Title
81331
    1CHL1    C3    1   1.769   3.207  10.052  0.0179  0.2514  0.5670
    1CHL1    H3    2   1.878   3.220  10.033 -0.2374  1.6785  0.0235
    1CHL1    O3    3   1.742   3.228  10.190 -0.1124  0.6054 -0.1075
    1CHL1   H3'    4   1.648   3.239  10.203 -0.6406 -3.3340 -0.0735
    1CHL1    C4    5   1.688   3.300   9.965 -0.5134  0.1830  0.3172
    1CHL1   H4A    6   1.584   3.289  10.003 -0.8716  0.8833 -0.4505
    1CHL1   H4B    7   1.703   3.407   9.992 -1.6912  0.8441 -1.5068
    1CHL1    C5    8   1.693   3.274   9.812 -0.4565  0.0292  0.2615
    1CHL1    C6    9   1.724   3.365   9.722  0.0003  1.0555  0.4014
    1CHL1    H6   10   1.735   3.468   9.757  0.0527  2.4994 -3.5637
    1CHL1    C7   11   1.711   3.337   9.575  0.6314 -0.6522  0.3967
    1CHL1   H7A   12   1.656   3.418   9.523  0.9040 -1.6442 -1.4750
    1CHL1   H7B   13   1.815   3.346   9.536  0.9262 -0.2675  1.2495
    1CHL1    C8   14   1.653   3.199   9.529 -0.0534 -0.2145 -0.7011
    1CHL1    H8   15   1.544   3.222   9.538  0.5449  2.7831 -0.6512
    1CHL1   C14   16   1.711   3.172   9.390  0.0411 -1.1458 -0.3380
    1CHL1   H14   17   1.818   3.147   9.408 -0.4437 -1.8363  1.7770
    1CHL1   C15   18   1.719   3.273   9.278  0.2290  0.1978  0.4501
    1CHL1  H15A   19   1.622   3.329   9.271  1.2059  1.6220 -2.5607
    1CHL1  H15B   20   1.790   3.357   9.294  0.2996  0.0742  0.7741
    1CHL1   C16   21   1.728   3.193   9.151  0.1506 -0.2794  0.2190
    1CHL1  H16A   22   1.653   3.238   9.082  0.4312  1.5386  1.0709
    1CHL1  H16B   23   1.830   3.216   9.114 -0.3797  0.6787 -0.6805
    1CHL1   C17   24   1.707   3.050   9.196 -0.5957  0.4037  0.0122
    1CHL1   H17   25   1.808   3.003   9.205 -1.7645 -2.5908 -1.8412
    1CHL1   C13   26   1.640   3.046   9.329  0.2600  0.0878  0.6866
    1CHL1   C18   27   1.487   3.076   9.324 -0.3364 -0.1749 -0.0490
    1CHL1  H18A   28   1.444   3.098   9.424 -0.8584 -3.5094  0.5164
    1CHL1  H18B   29   1.459   3.161   9.258 -0.6302  0.8247  1.3436
    1CHL1  H18C   30   1.430   2.990   9.283  0.0504  0.0369 -1.0596
    1CHL1   C12   31   1.666   2.920   9.422 -0.1434 -0.8005  0.0308
    1CHL1  H12A   32   1.604   2.837   9.381  0.7159 -0.3070 -2.3078
    1CHL1  H12B   33   1.768   2.875   9.417  0.0138 -0.3204 -1.2169
    1CHL1   C11   34   1.632   2.955   9.575 -0.0369 -0.1786  0.7639
    1CHL1  H11A   35   1.521   2.963   9.584 -0.1877  1.3290 -2.0861
    1CHL1  H11B   36   1.670   2.868   9.633  1.5111 -0.5585 -0.8159
    1CHL1    C9   37   1.691   3.090   9.627  0.0907 -0.2870  0.0251
    1CHL1    H9   38   1.800   3.076   9.638  0.2446  0.8657  0.0263
    1CHL1   C10   39   1.654   3.124   9.773 -0.6159  0.1628 -0.6390
    1CHL1   C19   40   1.511   3.089   9.813 -0.3937 -0.0615 -0.0424
    1CHL1  H19A   41   1.493   2.979   9.812  2.2085 -0.6017  4.1461
    1CHL1  H19B   42   1.480   3.139   9.907 -1.6185  0.1363 -0.5377
    1CHL1  H19C   43   1.437   3.122   9.737 -0.9809 -0.3669  0.3939
    1CHL1    C1   44   1.751   3.037   9.869  0.0979  0.0305  0.0591
    1CHL1   H1A   45   1.728   2.930   9.849 -2.7948  0.1865  2.3257
    1CHL1   H1B   46   1.854   3.073   9.848  0.3871 -1.6075 -1.4247
    1CHL1    C2   47   1.733   3.056  10.018 -0.8824  0.6268 -0.1388
    1CHL1   H2A   48   1.795   2.991  10.083 -2.1332 -0.5428 -0.1017
    1CHL1   H2B   49   1.629   3.032  10.049 -0.1386 -1.3178  0.9170
    1CHL1   C20   50   1.640   2.969   9.083 -0.6804 -0.1302  0.3382
    1CHL1   H20   51   1.541   3.019   9.074 -0.4614  0.1964 -0.2368
    1CHL1   C21   52   1.611   2.824   9.103 -0.5712  0.2472  0.1377
    1CHL1  H21A   53   1.547   2.796   9.190  3.2042 -0.3293  2.8537
    1CHL1  H21B   54   1.701   2.764   9.130  1.7603  1.9489 -3.5024
    1CHL1  H21C   55   1.580   2.766   9.014  0.5998 -1.1518  0.6285
    1CHL1   C22   56   1.739   2.983   8.959  0.1601  0.1315  0.5530
    1CHL1  H22A   57   1.763   3.088   8.936 -0.8899 -0.2975 -2.6961
    1CHL1  H22B   58   1.833   2.929   8.984 -0.5142 -1.9184 -1.1757
    1CHL1   C23   59   1.683   2.930   8.824  0.4798 -0.5486  0.0283
    1CHL1  H23A   60   1.649   2.825   8.830 -2.5478  0.2882 -1.5943
    1CHL1  H23B   61   1.593   2.990   8.800  2.1104  2.7290  1.7070
    1CHL1   C24   62   1.788   2.975   8.710  0.3026  0.3578  0.0363
    1CHL1  H24A   63   1.776   3.085   8.700  0.7707  0.3638 -0.5192
    1CHL1  H24B   64   1.892   2.952   8.742 -0.4394 -0.5020  1.8917
    1CHL1   C25   65   1.751   2.925   8.562  0.1239 -1.1726 -0.2545
    1CHL1   H25   66   1.816   2.968   8.483 -0.7291 -0.9525 -0.8439
    1CHL1   C26   67   1.786   2.774   8.557 -0.2568  0.4405 -0.2361
    1CHL1  H26A   68   1.787   2.736   8.452  0.3051  3.8948 -1.5561
    1CHL1  H26B   69   1.893   2.754   8.580 -1.1716 -0.1881  3.7949
    1CHL1  H26C   70   1.726   2.713   8.627  3.0892 -0.7476  1.6837
    1CHL1   C27   71   1.606   2.949   8.533 -0.3273  0.5312 -0.4142
    1CHL1  H27A   72   1.579   3.051   8.567  1.4097  0.7284  0.4544
    1CHL1  H27B   73   1.592   2.934   8.424 -0.1038 -0.9215 -0.2547
    1CHL1  H27C   74   1.548   2.869   8.583  0.7992 -1.5295 -2.2837
    2CHL1    C3   75   2.400   1.437   9.968 -0.6138 -0.0556  0.3518
    2CHL1    H3   76   2.326   1.358   9.945 -1.9364  1.4174 -0.6033
    2CHL1    O3   77   2.451   1.413  10.095  0.6003 -0.4766 -0.0250
    2CHL1   H3'   78   2.387   1.364  10.146 -1.0064  2.2987  0.7286
    2CHL1    C4   79   2.516   1.431   9.870  0.0751 -0.0279  0.3720
    2CHL1   H4A   80   2.596   1.501   9.902  1.5975 -1.5124 -0.0824
    2CHL1   H4B   81   2.560   1.328   9.864  0.1508  0.0635 -0.7094
    2CHL1    C5   82   2.470   1.462   9.722 -0.0716  0.0336 -0.3680
    2CHL1    C6   83   2.470   1.363   9.632 -0.6826 -0.7176 -0.3490
    2CHL1    H6   84   2.517   1.265   9.651 -1.2922 -1.1311 -0.9307
    2CHL1    C7   85   2.425   1.387   9.484  0.0847  0.5917 -0.3754
    2CHL1   H7A   86   2.505   1.354   9.414  1.0513  0.7868  0.6241
    2CHL1   H7B   87   2.335   1.325   9.466  1.0660 -0.9441 -0.0214
    2CHL1    C8   88   2.400   1.532   9.454  0.2048  0.1983 -0.3203
    2CHL1    H8   89   2.497   1.587   9.446  0.4176 -0.2263 -0.6889
    2CHL1   C14   90   2.327   1.560   9.324  0.1630  1.1623 -1.1839
    2CHL1   H14   91   2.234   1.508   9.356  1.5774 -0.6972  0.0366
    2CHL1   C15   92   2.382   1.492   9.199 -0.0303  0.0521 -0.1234
    2CHL1  H15A   93   2.492   1.506   9.196 -0.1057  0.3373 -1.7559
    2CHL1  H15B   94   2.350   1.386   9.198 -2.5559  0.7492  2.0601
    2CHL1   C16   95   2.323   1.574   9.081 -0.2138  0.0009  0.3423
    2CHL1  H16A   96   2.400   1.623   9.017 -0.0850 -1.0480 -0.3002
    2CHL1  H16B   97   2.264   1.516   9.008  1.2366  0.8590 -1.5568
    2CHL1   C17   98   2.227   1.678   9.146  0.2894 -0.2017  0.4050
    2CHL1   H17   99   2.133   1.621   9.161  0.1671 -0.4998 -1.4054
    2CHL1   C13  100   2.294   1.708   9.283  0.8893  0.0964  0.0725
    2CHL1   C18  101   2.425   1.792   9.269  0.1808  0.3757  0.1861
    2CHL1  H18A  102   2.491   1.735   9.201  0.9273  1.5758 -0.1121
    2CHL1  H18B  103   2.410   1.886   9.212 -0.9833 -0.7491 -1.4054
    2CHL1  H18C  104   2.481   1.807   9.364  1.5098  0.4968 -0.5992
    2CHL1   C12  105   2.207   1.766   9.395 -0.0988  0.2668  0.6466
    2CHL1  H12A  106   2.205   1.873   9.369 -2.1555  0.2260  0.5488
    2CHL1  H12B  107   2.107   1.716   9.395  0.6612 -1.2821  0.8057
    2CHL1   C11  108   2.274   1.753   9.533 -0.0111  0.4701  0.3525
    2CHL1  H11A  109   2.365   1.816   9.534 -0.0987  0.6354 -0.9263
    2CHL1  H11B  110   2.216   1.788   9.621 -0.8094  0.4656 -0.1719
    2CHL1    C9  111   2.324   1.605   9.571 -0.6427  0.2623  0.5431
    2CHL1    H9  112   2.229   1.548   9.581 -0.2789 -0.4259  0.0807
    2CHL1   C10  113   2.391   1.593   9.710 -0.4895  0.2397 -0.5788
    2CHL1   C19  114   2.496   1.704   9.729 -0.6232 -0.3649 -0.0746
    2CHL1  H19A  115   2.571   1.696   9.648 -0.3171  2.7190 -0.1665
    2CHL1  H19B  116   2.439   1.800   9.722  0.2730  0.1312 -0.6065
    2CHL1  H19C  117   2.540   1.705   9.831  0.3093  1.4427 -0.4701
    2CHL1    C1  118   2.284   1.606   9.820  0.1679  0.1713 -0.0392
    2CHL1   H1A  119   2.239   1.707   9.818  1.2127  0.6836  1.4149
    2CHL1   H1B  120   2.207   1.529   9.798  1.7648 -0.9847 -1.7693
    2CHL1    C2  121   2.332   1.575   9.963  0.1625 -0.3025  0.0121
    2CHL1   H2A  122   2.240   1.569  10.025 -0.5215 -4.2090 -1.2548
    2CHL1   H2B  123   2.404   1.652   9.998  0.2096 -0.2795 -0.1358
    2CHL1   C20  124   2.192   1.799   9.059 -0.2665 -0.0387  0.5622
    2CHL1   H20  125   2.269   1.879   9.055 -0.6989  0.3562  0.0544
    2CHL1   C21  126   2.081   1.869   9.129  0.8255 -0.6125 -0.0695
    2CHL1  H21A  127   2.012   1.797   9.179 -1.0822  0.2138 -1.4592
    2CHL1  H21B  128   2.021   1.935   9.062 -1.0878 -0.1162  2.0787
    2CHL1  H21C  129   2.118   1.934   9.211  2.3642 -1.7130  0.1380
    2CHL1   C22  130   2.174   1.789   8.909  1.0670 -0.2796  0.3354
    2CHL1  H22A  131   2.176   1.892   8.866 -1.9438 -0.6792 -0.8704
    2CHL1  H22B  132   2.264   1.739   8.865  0.0897 -2.2231  0.4792
    2CHL1   C23  133   2.057   1.704   8.863 -0.6846  0.2842  0.1388
    2CHL1  H23A  134   2.096   1.600   8.868  0.5391  0.8310  3.5317
    2CHL1  H23B  135   1.974   1.709   8.937 -1.2658  0.0982 -0.4973
    2CHL1   C24  136   1.999   1.737   8.721  0.3549  0.2300  0.0558
    2CHL1  H24A  137   1.917   1.666   8.698  0.4582 -0.4680  1.7668
    2CHL1  H24B  138   1.957   1.839   8.720  0.0807  0.1150 -0.2769
    2CHL1   C25  139   2.100   1.738   8.607 -0.0972  0.3064 -0.8166
    2CHL1   H25  140   2.185   1.803   8.638  0.4317 -0.9860  0.4620
    2CHL1   C26  141   2.136   1.591   8.574  0.0536 -0.9970 -0.1170
    2CHL1  H26A  142   2.226   1.594   8.509 -1.0676 -3.8381 -1.9179
    2CHL1  H26B  143   2.161   1.531   8.663  0.1918  1.6959  1.7152
    2CHL1  H26C  144   2.056   1.547   8.510 -1.1100  2.2647 -1.0275
    2CHL1   C27  145   2.051   1.811   8.480  0.3589  0.6597 -0.6660
    2CHL1  H27A  146   2.019   1.917   8.493 -2.8341  0.2582 -4.1980
    2CHL1  H27B  147   2.130   1.805   8.402  0.0821  3.0861 -1.1942
    2CHL1  H27C  148   1.959   1.756   8.449  1.1527 -2.0484  1.5893
    3CHL1    C3  149   2.735   1.097  10.165  0.5018  0.2409  0.1951
    3CHL1    H3  150   2.629   1.066  10.148  1.1233 -2.9872  1.8543
    3CHL1    O3  151   2.739   1.127  10.301 -0.0683 -0.1608 -0.1123
    3CHL1   H3'  152   2.764   1.220  10.300 -1.3052  0.2402  2.3586
    3CHL1    C4  153   2.836   0.992  10.134 -0.6222  0.1631  0.3650
    3CHL1   H4A  154   2.938   1.026  10.161  0.1172 -0.1807 -1.8524
    3CHL1   H4B  155   2.816   0.902  10.195  0.2292  0.5729  1.2605
    3CHL1    C5  156   2.846   0.959   9.984  0.2352 -0.3382 -0.0393
    3CHL1    C6  157   2.837   0.832   9.936  0.3327  0.4078  0.4503
    3CHL1    H6  158   2.824   0.754  10.012 -2.4939  1.7847  1.4712
    3CHL1    C7  159   2.838   0.801   9.792 -0.0283 -0.3814  0.9310
    3CHL1   H7A  160   2.894   0.707   9.774  1.4797  0.9146 -1.4443
    3CHL1   H7B  161   2.733   0.780   9.760 -0.1511 -1.7614  2.1968
    3CHL1    C8  162   2.898   0.915   9.704 -0.9123 -0.2681  0.1713
    3CHL1    H8  163   3.008   0.911   9.714 -0.8784 -1.1869 -0.4786
    3CHL1   C14  164   2.858   0.887   9.557  0.4122 -0.0533 -0.9732
    3CHL1   H14  165   2.747   0.880   9.558  0.3827  0.3744  1.6547
    3CHL1   C15  166   2.890   0.750   9.494 -0.1916  0.2900 -0.0714
    3CHL1  H15A  167   2.996   0.738   9.526  0.5518 -0.0555 -2.5562
    3CHL1  H15B  168   2.820   0.666   9.511  1.0656 -0.5560  1.0458
    3CHL1   C16  169   2.884   0.772   9.341 -0.1129 -0.3043 -0.0661
    3CHL1  H16A  170   2.987   0.758   9.300  0.8930  1.0959  1.9385
    3CHL1  H16B  171   2.820   0.695   9.291  1.1207 -1.5934  0.3194
    3CHL1   C17  172   2.843   0.920   9.322  0.3350  0.2478  0.5701
    3CHL1   H17  173   2.732   0.921   9.329  0.3625 -0.7743  1.3021
    3CHL1   C13  174   2.890   0.993   9.457  0.1121 -0.1127  0.1658
    3CHL1   C18  175   3.045   1.018   9.453  0.4510  0.2372 -0.5508
    3CHL1  H18A  176   3.097   0.922   9.435 -0.8608 -0.6516  0.3112
    3CHL1  H18B  177   3.067   1.082   9.365  2.1303  0.3280 -0.0892
    3CHL1  H18C  178   3.074   1.065   9.549 -1.9125  0.4284  0.1018
    3CHL1   C12  179   2.819   1.127   9.496 -0.3681  0.2890 -0.4643
    3CHL1  H12A  180   2.833   1.211   9.425  0.6328 -0.2846 -0.9511
    3CHL1  H12B  181   2.709   1.110   9.487 -0.1941 -0.3071 -1.5493
    3CHL1   C11  182   2.859   1.161   9.643 -0.1857  0.3915  0.3330
    3CHL1  H11A  183   2.963   1.200   9.637  0.1784 -0.4587  1.1370
    3CHL1  H11B  184   2.795   1.242   9.682  0.8559  1.0849  0.6350
    3CHL1    C9  185   2.837   1.042   9.741  0.2880 -0.2475  0.0421
    3CHL1    H9  186   2.727   1.027   9.731  0.3647 -2.4323  1.9688
    3CHL1   C10  187   2.861   1.083   9.891 -0.2502  0.1425  0.6429
    3CHL1   C19  188   3.000   1.144   9.895  0.3913  0.3232  0.4573
    3CHL1  H19A  189   3.073   1.074   9.848 -0.4148 -0.3332  0.1863
    3CHL1  H19B  190   3.010   1.246   9.853 -0.2419 -0.3536 -1.4028
    3CHL1  H19C  191   3.034   1.156  10.000 -1.2053  0.0340  1.0068
    3CHL1    C1  192   2.764   1.194   9.935 -0.2895  0.1402 -0.1764
    3CHL1   H1A  193   2.777   1.292   9.885 -0.5272  1.2314  1.8366
    3CHL1   H1B  194   2.665   1.157   9.899 -0.2604  1.9280 -2.1706
    3CHL1    C2  195   2.763   1.224  10.086 -0.1148  0.1479  0.3771
    3CHL1   H2A  196   2.682   1.297  10.108 -0.0868  0.5401 -0.7398
    3CHL1   H2B  197   2.855   1.266  10.130 -0.4368  0.3075  0.8934
    3CHL1   C20  198   2.893   0.978   9.190 -0.0145  0.2872 -0.9352
    3CHL1   H20  199   3.004   0.977   9.201 -0.2217 -0.6076  1.4372
    3CHL1   C21  200   2.840   1.124   9.170  0.7637 -0.6075 -0.4013
    3CHL1  H21A  201   2.730   1.124   9.187  0.6049  2.5004 -1.0948
    3CHL1  H21B  202   2.863   1.146   9.063  2.6173 -4.0886 -0.8036
    3CHL1  H21C  203   2.892   1.198   9.234 -1.7455  1.5724 -0.8151
    3CHL1   C22  204   2.856   0.886   9.070 -0.3704  0.2103  0.0966
    3CHL1  H22A  205   2.885   0.782   9.094  0.0839  0.3665  0.2328
    3CHL1  H22B  206   2.745   0.893   9.071 -0.3529  0.4720  1.3306
    3CHL1   C23  207   2.907   0.918   8.923  0.2413 -0.5367  0.1630
    3CHL1  H23A  208   2.975   1.005   8.931 -2.3427  1.5048  0.6330
    3CHL1  H23B  209   2.946   0.827   8.874 -3.3327 -2.1035  0.0265
    3CHL1   C24  210   2.793   0.956   8.825  0.5529  0.4537 -0.4433
    3CHL1  H24A  211   2.723   0.870   8.831  0.0407  0.8948  0.0260
    3CHL1  H24B  212   2.740   1.043   8.869 -4.2036 -3.7455  2.7616
    3CHL1   C25  213   2.831   0.992   8.681 -0.1437  0.2144 -0.2113
    3CHL1   H25  214   2.739   1.012   8.621 -1.4948 -1.4200  1.2554
    3CHL1   C26  215   2.918   1.124   8.690  0.6757  0.3608 -0.1580
    3CHL1  H26A  216   2.946   1.155   8.587  0.0475  2.8780  0.3950
    3CHL1  H26B  217   2.859   1.204   8.738 -2.4751 -1.6695 -0.4716
    3CHL1  H26C  218   3.014   1.110   8.744  0.9711 -1.4890 -1.0811
    3CHL1   C27  219   2.908   0.874   8.628 -0.1581  0.1161  0.0634
    3CHL1  H27A  220   3.007   0.874   8.679 -0.2351 -2.0141  0.2253
    3CHL1  H27B  221   2.859   0.775   8.629 -2.0955  1.0247 -1.5573
    3CHL1  H27C  222   2.931   0.885   8.520  1.7250  0.3085  0.4711
    4CHL1    C3  223   2.662   2.856  10.437 -0.3349  0.5619 -0.5117
    4CHL1    H3  224   2.704   2.754  10.428  0.2820  0.8690 -1.2049
    4CHL1    O3  225   2.663   2.893  10.575  0.2311 -0.3368  0.0451
    4CHL1   H3'  226   2.591   2.957  10.579  0.4258 -0.1310  0.2251
    4CHL1    C4  227   2.764   2.956  10.359  0.2407  0.4086 -0.1578
    4CHL1   H4A  228   2.732   3.055  10.397 -1.7650  0.1769 -1.1829
    4CHL1   H4B  229   2.862   2.938  10.408 -0.8394  0.4504  2.1004
    4CHL1    C5  230   2.748   2.928  10.208 -0.1928  0.7574  0.1320
    4CHL1    C6  231   2.863   2.903  10.136  0.2811 -0.6037  0.4598
    4CHL1    H6  232   2.959   2.916  10.187  0.2011  2.2775 -0.0444
    4CHL1    C7  233   2.857   2.903   9.989 -0.0924  0.2319 -0.1670
    4CHL1   H7A  234   2.936   2.971   9.950 -0.3015  1.4513  1.5157
    4CHL1   H7B  235   2.870   2.796   9.960  3.0816  0.3975  0.4817
    4CHL1    C8  236   2.726   2.937   9.931 -0.1258 -0.1317  0.2401
    4CHL1    H8  237   2.725   3.048   9.931  0.9913 -0.1179  0.0442
    4CHL1   C14  238   2.719   2.890   9.785  0.6930 -0.2359  0.0691
    4CHL1   H14  239   2.722   2.779   9.793  1.0962 -0.3646 -1.7069
    4CHL1   C15  240   2.833   2.923   9.686  0.4918  0.0787  0.2821
    4CHL1  H15A  241   2.854   3.030   9.707 -2.1633  0.8436 -0.8405
    4CHL1  H15B  242   2.925   2.860   9.693 -0.1677 -1.1496 -1.7361
    4CHL1   C16  243   2.762   2.907   9.546 -0.7214  0.7085  0.4199
    4CHL1  H16A  244   2.777   3.005   9.495 -0.2678  0.9016  0.9152
    4CHL1  H16B  245   2.814   2.833   9.482  0.3786  2.6471 -1.0010
    4CHL1   C17  246   2.608   2.884   9.568  0.7274 -0.3951 -0.0494
    4CHL1   H17  247   2.588   2.776   9.553 -2.1203 -0.1175  1.3027
    4CHL1   C13  248   2.588   2.932   9.715  0.0052 -0.4244 -0.9393
    4CHL1   C18  249   2.570   3.088   9.704 -0.3121 -0.4366  0.0238
    4CHL1  H18A  250   2.469   3.106   9.660  0.3096  0.3434 -1.1165
    4CHL1  H18B  251   2.569   3.127   9.808 -2.8889 -0.7448  0.1511
    4CHL1  H18C  252   2.657   3.128   9.648  0.0864 -1.6952 -0.2584
    4CHL1   C12  253   2.475   2.854   9.794 -0.1864  0.2529  0.3479
    4CHL1  H12A  254   2.375   2.850   9.747 -0.4187  0.9837  0.7755
    4CHL1  H12B  255   2.488   2.744   9.804  1.1794  0.4580  1.0320
    4CHL1   C11  256   2.470   2.905   9.939  0.2604 -0.7902 -0.0578
    4CHL1  H11A  257   2.433   3.010   9.943  0.1961 -0.8452  0.7379
    4CHL1  H11B  258   2.391   2.839   9.980  0.0695 -0.7010 -0.2779
    4CHL1    C9  259   2.607   2.879  10.010  0.0528 -0.0774  0.4725
    4CHL1    H9  260   2.626   2.770  10.005  0.5585  0.1232 -2.7785
    4CHL1   C10  261   2.611   2.931  10.151  0.1297  0.3231  0.0238
    4CHL1   C19  262   2.566   3.082  10.163  0.3573  0.4338 -0.4113
    4CHL1  H19A  263   2.462   3.094  10.125  0.5624  1.9943 -0.5011
    4CHL1  H19B  264   2.563   3.114  10.269 -2.5380 -1.6651  0.2009
    4CHL1  H19C  265   2.631   3.142  10.095 -0.8571 -0.5255 -2.4718
    4CHL1    C1  266   2.519   2.842  10.233  0.1682  0.2923  0.3667
    4CHL1   H1A  267   2.412   2.855  10.206  0.5364  0.2091 -1.2065
    4CHL1   H1B  268   2.548   2.736  10.218 -0.9230 -0.3045  2.2875
    4CHL1    C2  269   2.527   2.868  10.386 -0.2399 -0.0842 -0.1407
    4CHL1   H2A  270   2.470   2.788  10.439  0.0265 -0.9662 -1.1638
    4CHL1   H2B  271   2.476   2.965  10.404  1.3138  0.6687  0.2707
    4CHL1   C20  272   2.520   2.949   9.460 -0.5430  0.8357 -0.2429
    4CHL1   H20  273   2.538   3.059   9.460  1.2265  0.6002 -4.0677
    4CHL1   C21  274   2.373   2.905   9.483 -0.2689  0.5668  0.3617
    4CHL1  H21A  275   2.319   2.978   9.547  0.3820  0.7487  0.7118
    4CHL1  H21B  276   2.373   2.808   9.538  1.0730 -0.4829 -1.4411
    4CHL1  H21C  277   2.307   2.903   9.394 -0.2450 -1.6866  0.3659
    4CHL1   C22  278   2.552   2.912   9.314  0.3102  0.4458  0.4874
    4CHL1  H22A  279   2.481   2.965   9.247  1.2467  0.1387 -0.7707
    4CHL1  H22B  280   2.657   2.938   9.290  0.8048 -0.1280  1.9913
    4CHL1   C23  281   2.538   2.760   9.271 -0.1625  0.3600  0.5997
    4CHL1  H23A  282   2.605   2.695   9.330 -1.1336 -0.3089  0.9776
    4CHL1  H23B  283   2.433   2.732   9.298 -0.5918  0.3604 -1.0465
    4CHL1   C24  284   2.565   2.737   9.118 -0.0063 -0.0520  0.4066
    4CHL1  H24A  285   2.504   2.799   9.050 -0.9176 -0.4279  0.8755
    4CHL1  H24B  286   2.673   2.756   9.101 -0.8074  4.8240  0.2155
    4CHL1   C25  287   2.544   2.594   9.071 -0.2384 -0.1120  0.0475
    4CHL1   H25  288   2.441   2.572   9.108  0.7944 -1.7435  2.0432
    4CHL1   C26  289   2.573   2.589   8.918 -0.0381 -0.4608 -0.5951
    4CHL1  H26A  290   2.510   2.655   8.855 -1.3015  0.0729  1.2084
    4CHL1  H26B  291   2.681   2.616   8.914 -0.5671  1.8092  0.1755
    4CHL1  H26C  292   2.580   2.486   8.876  0.7049 -0.5819 -0.1843
    4CHL1   C27  293   2.631   2.492   9.146 -0.3215  0.6617 -0.7611
    4CHL1  H27A  294   2.736   2.508   9.113  0.3841 -2.0057  0.0499
    4CHL1  H27B  295   2.634   2.493   9.257  0.8415 -2.2883 -0.7200
    4CHL1  H27C  296   2.609   2.386   9.123 -0.7034  0.2933  1.2264
    5CHL1    C3  297   3.347   1.128  10.224 -0.0612  0.0574  0.5367
    5CHL1    H3  298   3.296   1.183  10.142 -0.5526 -1.0312  0.1041
    5CHL1    O3  299   3.341   1.203  10.340  0.3309  0.1848  0.1705
    5CHL1   H3'  300   3.390   1.147  10.400 -1.5859  0.3274  1.9305
    5CHL1    C4  301   3.260   0.993  10.243 -0.3700 -0.5538  0.0881
    5CHL1   H4A  302   3.294   0.949  10.339  0.2993  0.0571  0.1437
    5CHL1   H4B  303   3.158   1.025  10.273 -0.7509 -2.0412  0.4100
    5CHL1    C5  304   3.274   0.896  10.131  0.6517  0.4652 -0.1107
    5CHL1    C6  305   3.163   0.852  10.072  0.3779 -0.6910 -0.2348
    5CHL1    H6  306   3.062   0.863  10.114  1.2515  3.4031  1.0636
    5CHL1    C7  307   3.159   0.754   9.961  0.0457  0.3359  0.0774
    5CHL1   H7A  308   3.076   0.689   9.994 -0.1743  0.7562  0.3646
    5CHL1   H7B  309   3.126   0.795   9.863 -2.0402 -2.0558 -0.2732
    5CHL1    C8  310   3.296   0.689   9.939 -0.7032 -0.2006 -1.2604
    5CHL1    H8  311   3.315   0.616  10.021  0.5437  1.1958 -0.2972
    5CHL1   C14  312   3.294   0.605   9.814  0.8307  0.3329  0.6203
    5CHL1   H14  313   3.282   0.678   9.731 -1.8996  0.7461  1.3213
    5CHL1   C15  314   3.190   0.497   9.794 -1.0761 -0.0099  0.3400
    5CHL1  H15A  315   3.168   0.430   9.879  0.0786 -0.8324  0.0073
    5CHL1  H15B  316   3.093   0.544   9.765 -0.7789  0.6280  0.3683
    5CHL1   C16  317   3.249   0.407   9.683 -0.1304 -0.2482  0.1267
    5CHL1  H16A  318   3.230   0.299   9.703  0.0097 -0.4026 -0.5771
    5CHL1  H16B  319   3.207   0.433   9.583 -1.2621 -0.3502  0.5638
    5CHL1   C17  320   3.396   0.444   9.665  0.0183  0.1179  0.6730
    5CHL1   H17  321   3.392   0.517   9.581  0.8889 -2.0760 -1.3450
    5CHL1   C13  322   3.425   0.526   9.789  0.1423 -0.5204 -0.8682
    5CHL1   C18  323   3.449   0.425   9.901  0.3042  0.0357 -0.8346
    5CHL1  H18A  324   3.540   0.366   9.880  1.6189  1.3411  1.0095
    5CHL1  H18B  325   3.451   0.469  10.003  3.3237 -2.0924  0.0696
    5CHL1  H18C  326   3.366   0.350   9.905  0.1018  0.3146  0.5428
    5CHL1   C12  327   3.538   0.628   9.787 -0.9754 -0.0810  0.0155
    5CHL1  H12A  328   3.638   0.579   9.778 -0.7868  0.2892  0.1043
    5CHL1  H12B  329   3.526   0.700   9.704 -1.2761 -0.0339  0.1014
    5CHL1   C11  330   3.548   0.715   9.915 -0.4811  0.3634  0.2840
    5CHL1  H11A  331   3.584   0.650   9.998 -0.6877 -2.5614 -1.8352
    5CHL1  H11B  332   3.623   0.795   9.900 -1.1572  0.4598 -2.8581
    5CHL1    C9  333   3.417   0.789   9.946 -1.1173  0.5692  0.4698
    5CHL1    H9  334   3.392   0.856   9.861 -2.2824 -0.8108 -0.2900
    5CHL1   C10  335   3.419   0.864  10.084  0.0259 -0.2901  0.5902
    5CHL1   C19  336   3.494   0.783  10.191  0.5756  0.5959  0.0039
    5CHL1  H19A  337   3.601   0.804  10.170  1.0817 -0.7379  1.0891
    5CHL1  H19B  338   3.472   0.821  10.294 -0.1722 -0.1026  0.1106
    5CHL1  H19C  339   3.478   0.673  10.191 -2.0431  0.9247 -2.1491
    5CHL1    C1  340   3.491   0.998  10.060  0.1315 -0.1236 -0.1932
    5CHL1   H1A  341   3.596   0.983  10.025  0.9891  1.4215  1.5963
    5CHL1   H1B  342   3.432   1.057   9.987  2.0778  0.5171 -1.2809
    5CHL1    C2  343   3.491   1.089  10.191  0.4292  0.7581 -0.0153
    5CHL1   H2A  344   3.554   1.177  10.164  1.1933  0.7827  1.7578
    5CHL1   H2B  345   3.521   1.034  10.283 -0.4832 -2.2944 -1.4977
    5CHL1   C20  346   3.479   0.320   9.629  0.6869  0.0359  0.1080
    5CHL1   H20  347   3.464   0.253   9.715 -0.5199  1.8240  1.3262
    5CHL1   C21  348   3.632   0.356   9.615  0.7651 -0.2577 -0.0231
    5CHL1  H21A  349   3.686   0.387   9.707  3.3683  0.7609 -1.8160
    5CHL1  H21B  350   3.650   0.426   9.530 -0.7318  0.1528 -0.0179
    5CHL1  H21C  351   3.692   0.266   9.589  1.1666 -0.4916  1.6767
    5CHL1   C22  352   3.427   0.254   9.499 -0.1372 -0.3147  0.1557
    5CHL1  H22A  353   3.324   0.216   9.516 -1.0373  2.9582  2.5238
    5CHL1  H22B  354   3.425   0.332   9.420  1.3215  1.5942  1.9303
    5CHL1   C23  355   3.506   0.145   9.421  0.2922  0.0222 -0.2790
    5CHL1  H23A  356   3.609   0.187   9.408  1.0295 -1.6049  0.2026
    5CHL1  H23B  357   3.513   0.055   9.486  1.5058 -0.1854 -0.6785
    5CHL1   C24  358   3.420   0.107   9.299  0.3850  0.0870 -0.7147
    5CHL1  H24A  359   3.318   0.077   9.329 -0.0869  1.5718 -0.8281
    5CHL1  H24B  360   3.419   0.187   9.222 -0.1110 -1.2537 -2.1143
    5CHL1   C25  361   3.470  -0.025   9.236 -0.0866  0.6380  0.5794
    5CHL1   H25  362   3.475  -0.111   9.306 -2.7592 -0.1136 -0.1025
    5CHL1   C26  363   3.369  -0.060   9.117 -0.0599 -0.4840 -0.3530
    5CHL1  H26A  364   3.395  -0.161   9.078  1.1977 -0.9596  1.6675
    5CHL1  H26B  365   3.267  -0.049   9.160 -0.4171 -1.7336 -0.8667
    5CHL1  H26C  366   3.378   0.018   9.038  2.5780 -0.2805  0.1283
    5CHL1   C27  367   3.617  -0.005   9.187  0.6053 -0.0414  0.1659
    5CHL1  H27A  368   3.642  -0.101   9.135 -1.2310 -0.6624  0.3708
    5CHL1  H27B  369   3.615   0.071   9.106 -0.7310  1.9895  2.0841
    5CHL1  H27C  370   3.686   0.030   9.266  0.9492  0.1640 -0.2198
    6CHL1    C3  371   0.937   5.318  10.302  0.3928  0.1699  0.3374
    6CHL1    H3  372   0.842   5.361  10.265  0.7228 -1.8603 -3.0223
    6CHL1    O3  373   0.969   5.381  10.422  0.4828  0.0332  0.4213
    6CHL1   H3'  374   0.889   5.375  10.474  0.6986  0.2110  0.7673
    6CHL1    C4  375   0.938   5.163  10.307  0.1865  0.2376 -0.4486
    6CHL1   H4A  376   1.038   5.121  10.329 -0.7628 -3.0360 -2.1436
    6CHL1   H4B  377   0.871   5.119  10.384  1.0863  0.3506  0.4134
    6CHL1    C5  378   0.903   5.115  10.165 -0.0848 -0.2336 -0.4233
    6CHL1    C6  379   0.801   5.032  10.149 -0.2485  0.2090 -0.3015
    6CHL1    H6  380   0.738   5.008  10.236 -0.3729  1.6553  0.0199
    6CHL1    C7  381   0.768   4.979  10.009 -0.6549 -0.0256  0.3982
    6CHL1   H7A  382   0.737   4.872  10.008 -0.0987 -0.1855  0.3264
    6CHL1   H7B  383   0.680   5.036   9.974 -1.1141 -0.8575  0.1721
    6CHL1    C8  384   0.883   4.992   9.904 -0.0871  0.4180  0.1286
    6CHL1    H8  385   0.958   4.915   9.930 -1.6688 -0.4195  2.2904
    6CHL1   C14  386   0.828   4.953   9.768 -0.5368 -0.7617 -0.4445
    6CHL1   H14  387   0.763   5.041   9.752  1.7726  0.8676 -1.0988
    6CHL1   C15  388   0.756   4.817   9.754 -0.9739 -0.2456 -0.5158
    6CHL1  H15A  389   0.798   4.742   9.825 -0.6107  1.3523  0.9954
    6CHL1  H15B  390   0.651   4.836   9.784  0.0023  2.2791  1.5051
    6CHL1   C16  391   0.782   4.771   9.605  0.4784  0.5529  0.5444
    6CHL1  H16A  392   0.850   4.685   9.586  1.8938  1.9817 -1.0088
    6CHL1  H16B  393   0.687   4.759   9.548 -0.7273  2.5407  2.1204
    6CHL1   C17  394   0.859   4.898   9.537 -0.2619  0.4653 -0.2489
    6CHL1   H17  395   0.781   4.972   9.510 -1.0682 -0.5375 -0.7351
    6CHL1   C13  396   0.933   4.960   9.656 -0.7746 -0.0840  0.2729
    6CHL1   C18  397   1.059   4.873   9.676  0.2227 -0.1071  0.2556
    6CHL1  H18A  398   1.142   4.896   9.605  1.0229 -0.0903  1.1962
    6CHL1  H18B  399   1.098   4.901   9.776 -3.0286 -0.6418  1.7416
    6CHL1  H18C  400   1.029   4.766   9.671  2.0136 -0.6486  0.5895
    6CHL1   C12  401   0.980   5.110   9.654 -0.3180  0.1158 -0.6121
    6CHL1  H12A  402   1.058   5.121   9.576 -0.3043  1.7785 -0.3761
    6CHL1  H12B  403   0.899   5.184   9.643  0.8638  1.5359 -0.0049
    6CHL1   C11  404   1.049   5.160   9.784 -0.3320  0.0200 -0.0132
    6CHL1  H11A  405   1.145   5.106   9.802  0.5882  0.8287 -2.2855
    6CHL1  H11B  406   1.063   5.269   9.775  1.1282 -0.1093  0.5643
    6CHL1    C9  407   0.945   5.133   9.907  0.1846 -0.3224  0.2068
    6CHL1    H9  408   0.857   5.198   9.888  0.0072  0.2302  2.8068
    6CHL1   C10  409   0.999   5.160  10.054 -0.0910  0.1591  0.4833
    6CHL1   C19  410   1.138   5.093  10.082  0.2941  0.9496 -0.3245
    6CHL1  H19A  411   1.125   4.985  10.061 -0.3858  0.5453  1.9898
    6CHL1  H19B  412   1.218   5.125  10.012  2.2999 -5.2228 -1.0993
    6CHL1  H19C  413   1.165   5.120  10.186 -3.1723  2.4141  0.2832
    6CHL1    C1  414   1.021   5.313  10.058 -0.0135 -0.0457  0.9089
    6CHL1   H1A  415   1.108   5.329   9.991 -0.0559  0.7553  1.0451
    6CHL1   H1B  416   0.950   5.378  10.004  0.2697  2.8130  3.8112
    6CHL1    C2  417   1.046   5.364  10.202 -0.1376 -0.5691 -0.1582
    6CHL1   H2A  418   1.032   5.474  10.200  0.2896 -0.5400 -2.3245
    6CHL1   H2B  419   1.151   5.344  10.230 -0.0486  0.2136  0.0546
    6CHL1   C20  420   0.931   4.870   9.398 -0.0280  0.1581 -0.2218
    6CHL1   H20  421   1.033   4.832   9.417 -0.8248 -1.5104  0.8366
    6CHL1   C21  422   0.960   5.005   9.331  0.0127 -0.0745 -0.4375
    6CHL1  H21A  423   0.859   5.047   9.309 -0.4247 -0.6068  0.4908
    6CHL1  H21B  424   1.019   4.989   9.239 -2.0957 -1.5794 -1.5736
    6CHL1  H21C  425   1.023   5.076   9.389  1.1059 -0.8264 -0.6873
    6CHL1   C22  426   0.856   4.773   9.307  0.4974  0.2692  0.5203
    6CHL1  H22A  427   0.911   4.750   9.213  0.3781 -0.7569  0.6954
    6CHL1  H22B  428   0.846   4.674   9.357 -0.4960  0.5440  0.8750
    6CHL1   C23  429   0.718   4.830   9.265  0.1438 -0.6888  0.7839
    6CHL1  H23A  430   0.673   4.890   9.347 -1.3593 -0.8461  0.0877
    6CHL1  H23B  431   0.734   4.909   9.189  0.4572  2.2196  3.7445
    6CHL1   C24  432   0.612   4.725   9.209 -0.3859  0.1086  0.0312
    6CHL1  H24A  433   0.601   4.647   9.288  0.9368  0.1971  0.3088
    6CHL1  H24B  434   0.517   4.782   9.196 -1.5417 -2.2489 -2.5104
    6CHL1   C25  435   0.651   4.641   9.089 -0.4350  0.4434  0.1673
    6CHL1   H25  436   0.751   4.594   9.100  0.4109  2.4929  1.3835
    6CHL1   C26  437   0.552   4.523   9.052 -0.3154 -0.8657 -0.8390
    6CHL1  H26A  438   0.446   4.545   9.076  0.3792  0.4445  1.1540
    6CHL1  H26B  439   0.564   4.497   8.945  0.6856 -3.2974 -0.1808
    6CHL1  H26C  440   0.569   4.432   9.115  0.5714 -1.0781 -1.3761
    6CHL1   C27  441   0.667   4.737   8.960  0.3413 -0.5497 -0.2832
    6CHL1  H27A  442   0.762   4.795   8.974 -1.1661  2.1270 -0.7888
    6CHL1  H27B  443   0.689   4.671   8.873  0.0830 -1.8338  0.6103
    6CHL1  H27C  444   0.580   4.799   8.929 -0.1043  0.3658  2.6341
    7CHL1    C3  445   4.534   1.430  10.483 -0.3744  0.4124  0.3801
    7CHL1    H3  446   4.578   1.333  10.451  0.6321 -0.0789  3.0677
    7CHL1    O3  447   4.552   1.446  10.626  0.6016  0.6427 -0.5095
    7CHL1   H3'  448   4.477   1.498  10.654 -0.1200 -1.5383  1.7332
    7CHL1    C4  449   4.615   1.539  10.403  0.3720  0.3384  0.8303
    7CHL1   H4A  450   4.589   1.638  10.446  0.9009  0.5041  0.7713
    7CHL1   H4B  451   4.722   1.516  10.417  1.0246  0.9688 -2.6556
    7CHL1    C5  452   4.579   1.537  10.252  0.0339  0.0765  0.6294
    7CHL1    C6  453   4.683   1.520  10.167 -0.1231 -0.5612  0.1788
    7CHL1    H6  454   4.786   1.533  10.205 -0.0844  0.7121 -0.3085
    7CHL1    C7  455   4.657   1.513  10.019  0.1943 -0.3007 -0.8924
    7CHL1   H7A  456   4.721   1.573   9.950  0.2950 -0.3884 -0.8741
    7CHL1   H7B  457   4.683   1.410   9.986 -1.4306 -1.0007 -0.0206
    7CHL1    C8  458   4.518   1.542   9.961 -0.2515 -0.4869 -0.7959
    7CHL1    H8  459   4.509   1.653   9.956  1.3743 -0.3786 -1.5754
    7CHL1   C14  460   4.485   1.485   9.824 -0.1420 -0.4874  0.8312
    7CHL1   H14  461   4.495   1.376   9.843 -0.9392 -0.7124 -0.0293
    7CHL1   C15  462   4.589   1.492   9.714 -0.1029 -0.3965 -0.3550
    7CHL1  H15A  463   4.637   1.593   9.716 -1.3803  0.2197  0.0291
    7CHL1  H15B  464   4.667   1.414   9.720 -0.7736 -0.9448  1.4800
    7CHL1   C16  465   4.512   1.479   9.583  0.2247  0.5417 -0.2631
    7CHL1  H16A  466   4.524   1.572   9.523  1.8884  0.2717 -0.3687
    7CHL1  H16B  467   4.558   1.391   9.532  1.4455 -0.9447  3.2098
    7CHL1   C17  468   4.361   1.458   9.620  0.0672  0.0126 -0.8771
    7CHL1   H17  469   4.353   1.348   9.635  2.6546 -0.1443 -0.3643
    7CHL1   C13  470   4.352   1.513   9.768  0.4541 -0.3476 -0.4037
    7CHL1   C18  471   4.325   1.668   9.758  0.0515  1.4653 -0.2329
    7CHL1  H18A  472   4.397   1.712   9.686  1.0272 -1.5675 -1.2039
    7CHL1  H18B  473   4.222   1.670   9.717 -1.0633  0.8128  2.4479
    7CHL1  H18C  474   4.348   1.723   9.852  0.2685  1.0326 -0.0281
    7CHL1   C12  475   4.248   1.454   9.855  0.4593  0.1752  0.6672
    7CHL1  H12A  476   4.142   1.472   9.827  0.0558 -3.1334 -0.0217
    7CHL1  H12B  477   4.253   1.343   9.854  0.5022  0.1610  1.6023
    7CHL1   C11  478   4.267   1.497   9.999 -0.2592  0.1290 -0.0916
    7CHL1  H11A  479   4.229   1.602  10.004  1.3440  0.7020  0.3626
    7CHL1  H11B  480   4.206   1.439  10.072  1.0328  0.1163  0.9948
    7CHL1    C9  481   4.413   1.485  10.058  0.7217  0.2946  0.1819
    7CHL1    H9  482   4.444   1.379  10.058  0.7086  0.2821 -1.1407
    7CHL1   C10  483   4.437   1.532  10.202  0.4970  0.9102 -0.3931
    7CHL1   C19  484   4.373   1.678  10.204 -0.9655  0.3916  0.8182
    7CHL1  H19A  485   4.263   1.670  10.190 -1.1625 -0.4136  2.5711
    7CHL1  H19B  486   4.391   1.731  10.300 -0.5042 -0.6886  1.3486
    7CHL1  H19C  487   4.403   1.735  10.114  0.2452 -0.9658  0.3448
    7CHL1    C1  488   4.354   1.435  10.294  0.1961 -0.6890 -0.0635
    7CHL1   H1A  489   4.249   1.468  10.281  0.4454 -0.1154 -0.7111
    7CHL1   H1B  490   4.359   1.331  10.255 -0.2098  0.0061 -2.0631
    7CHL1    C2  491   4.385   1.445  10.445 -0.2127  0.0591 -0.9257
    7CHL1   H2A  492   4.325   1.371  10.502  1.3746 -0.5572  0.0025
    7CHL1   H2B  493   4.364   1.546  10.486  1.6997  0.1801 -0.1640
    7CHL1   C20  494   4.268   1.519   9.513  0.3880  0.0370 -0.0602
    7CHL1   H20  495   4.265   1.630   9.503  0.7871  0.0943  0.3970
    7CHL1   C21  496   4.124   1.479   9.548  0.1744 -0.1981 -0.5100
    7CHL1  H21A  497   4.047   1.470   9.469 -2.1906 -0.0104  1.7013
    7CHL1  H21B  498   4.092   1.545   9.631  0.2031  1.4776 -1.8053
    7CHL1  H21C  499   4.121   1.376   9.590  1.3716 -0.2779 -0.6018
    7CHL1   C22  500   4.311   1.477   9.367 -0.2921  0.0736  0.9450
    7CHL1  H22A  501   4.243   1.522   9.291 -0.0594  1.0363  1.3092
    7CHL1  H22B  502   4.415   1.501   9.337 -0.3808  0.4047  0.9031
    7CHL1   C23  503   4.289   1.322   9.340 -0.3653  0.1023 -0.4100
    7CHL1  H23A  504   4.365   1.273   9.404 -1.7070  0.7619  1.7034
    7CHL1  H23B  505   4.187   1.293   9.371  0.0257 -1.6435 -0.7226
    7CHL1   C24  506   4.318   1.281   9.194 -0.1838 -0.4952 -0.7171
    7CHL1  H24A  507   4.304   1.172   9.202 -0.8525 -0.2378  2.6055
    7CHL1  H24B  508   4.242   1.327   9.128 -0.2113  0.5646  0.0325
    7CHL1   C25  509   4.461   1.300   9.137  0.1904 -0.1030 -0.8404
    7CHL1   H25  510   4.487   1.408   9.132 -0.1753  0.0098 -0.3626
    7CHL1   C26  511   4.567   1.231   9.223 -0.1233  0.0788 -0.8048
    7CHL1  H26A  512   4.568   1.256   9.331  2.9865 -1.1085 -0.5049
    7CHL1  H26B  513   4.552   1.120   9.223 -1.8098  0.2972  0.3232
    7CHL1  H26C  514   4.668   1.257   9.184  0.0240 -0.2871 -0.6669
    7CHL1   C27  515   4.476   1.244   8.999 -0.0744  0.1472 -0.2662
    7CHL1  H27A  516   4.481   1.133   8.994 -3.4932 -0.0940  0.1723
    7CHL1  H27B  517   4.399   1.283   8.929  0.3758  0.5083 -0.5584
    7CHL1  H27C  518   4.569   1.285   8.955  0.2370 -0.1039  0.1508
    8CHL1    C3  519   4.704   2.884  10.457 -0.7273  0.5345  0.1683
    8CHL1    H3  520   4.659   2.785  10.478 -2.2112  1.0163 -0.7101
    8CHL1    O3  521   4.771   2.928  10.578  0.0167  0.1249 -0.0008
    8CHL1   H3'  522   4.702   2.937  10.644 -0.9538  0.0752 -1.0108
    8CHL1    C4  523   4.804   2.872  10.344 -0.2842 -0.5323  0.5133
    8CHL1   H4A  524   4.864   2.966  10.343 -1.7244  0.4380  2.2478
    8CHL1   H4B  525   4.872   2.791  10.378  0.5761  0.2747  0.7363
    8CHL1    C5  526   4.735   2.856  10.202 -0.0306 -0.0806 -0.0283
    8CHL1    C6  527   4.752   2.753  10.120  0.1845 -0.2403  0.4052
    8CHL1    H6  528   4.832   2.685  10.153  1.2526  0.2000 -1.2199
    8CHL1    C7  529   4.717   2.754   9.972  0.1754 -0.2803 -0.2537
    8CHL1   H7A  530   4.799   2.717   9.907  0.5482  0.0043  0.0511
    8CHL1   H7B  531   4.634   2.681   9.963 -0.6970  0.5660  0.6732
    8CHL1    C8  532   4.654   2.892   9.928 -0.1476 -0.0091  0.3299
    8CHL1    H8  533   4.738   2.961   9.904 -1.3616  0.8332 -1.6333
    8CHL1   C14  534   4.566   2.872   9.803 -0.5187  0.9302 -0.5172
    8CHL1   H14  535   4.473   2.823   9.839  1.9515 -3.0566  0.7573
    8CHL1   C15  536   4.625   2.797   9.687 -0.2648 -0.3056 -0.0897
    8CHL1  H15A  537   4.724   2.843   9.671 -0.0156 -0.7070  0.2884
    8CHL1  H15B  538   4.627   2.690   9.718  0.8120 -0.7519 -1.6466
    8CHL1   C16  539   4.531   2.830   9.570 -0.4664 -0.6093  0.8401
    8CHL1  H16A  540   4.587   2.868   9.483  0.0660 -1.7546  0.6650
    8CHL1  H16B  541   4.486   2.738   9.526 -1.7603 -0.2631  1.4225
    8CHL1   C17  542   4.435   2.945   9.617 -0.4322 -0.3935  0.5292
    8CHL1   H17  543   4.341   2.899   9.656 -1.1570  0.8630  0.2812
    8CHL1   C13  544   4.503   3.003   9.743  0.5307 -0.5491  0.1431
    8CHL1   C18  545   4.619   3.098   9.694  0.6633  0.3203 -0.0179
    8CHL1  H18A  546   4.671   3.063   9.602  0.2748 -0.1209 -0.0698
    8CHL1  H18B  547   4.576   3.195   9.663 -1.1600 -0.6341 -0.4868
    8CHL1  H18C  548   4.701   3.109   9.769 -0.2722 -0.0396  1.0637
    8CHL1   C12  549   4.416   3.065   9.857  0.2147 -0.1772  0.1574
    8CHL1  H12A  550   4.377   3.167   9.836  1.0601 -0.5424 -3.6274
    8CHL1  H12B  551   4.326   3.001   9.867 -1.0557  1.3997 -0.8033
    8CHL1   C11  552   4.490   3.075   9.987 -0.3609  0.6092 -1.1153
    8CHL1  H11A  553   4.574   3.141   9.959  0.0069 -0.6672 -3.1568
    8CHL1  H11B  554   4.422   3.102  10.070 -0.6287 -0.5268 -0.9573
    8CHL1    C9  555   4.565   2.944  10.034  0.1140 -0.1478  0.1955
    8CHL1    H9  556   4.484   2.871  10.056  1.1509 -1.3581  0.0757
    8CHL1   C10  557   4.639   2.968  10.165  0.2634  0.2669 -0.4664
    8CHL1   C19  558   4.726   3.102  10.154 -0.3464  0.5039 -0.0108
    8CHL1  H19A  559   4.791   3.125  10.241  0.3748  0.6051 -0.5719
    8CHL1  H19B  560   4.779   3.091  10.057 -0.2957  0.8807 -0.0258
    8CHL1  H19C  561   4.666   3.195  10.145  0.6878  1.0680 -1.3211
    8CHL1    C1  562   4.538   2.966  10.286  0.3120  1.0734 -0.4179
    8CHL1   H1A  563   4.472   3.054  10.269  0.8187  1.9865  2.0542
    8CHL1   H1B  564   4.477   2.874  10.272 -0.5926  1.7876 -1.1955
    8CHL1    C2  565   4.587   2.983  10.427  0.8994 -0.7380 -0.2112
    8CHL1   H2A  566   4.504   2.959  10.498  1.5812  0.3834  0.9978
    8CHL1   H2B  567   4.610   3.091  10.442  0.3435 -0.5747 -0.5268
    8CHL1   C20  568   4.393   3.040   9.502 -0.8678 -0.5075 -0.8178
    8CHL1   H20  569   4.488   3.080   9.462  0.2393 -1.1206  1.1670
    8CHL1   C21  570   4.307   3.156   9.560  0.6072 -0.2410 -0.4488
    8CHL1  H21A  571   4.366   3.240   9.604 -0.0436 -0.4156  0.7696
    8CHL1  H21B  572   4.225   3.118   9.624  1.0644 -0.4081  0.0433
    8CHL1  H21C  573   4.256   3.213   9.479  0.9177  0.6304 -0.0461
    8CHL1   C22  574   4.318   2.969   9.391 -0.1797  0.8619  0.1079
    8CHL1  H22A  575   4.335   2.859   9.386  3.1652  1.3711 -1.3646
    8CHL1  H22B  576   4.213   2.982   9.424  0.8178  1.6172  3.1541
    8CHL1   C23  577   4.350   3.032   9.251 -0.2729  0.3791 -0.2025
    8CHL1  H23A  578   4.364   3.142   9.263 -1.6670  0.6489 -0.9441
    8CHL1  H23B  579   4.447   2.990   9.218  0.6428 -0.0885  2.9418
    8CHL1   C24  580   4.236   2.998   9.150  0.5956 -0.6412 -0.6455
    8CHL1  H24A  581   4.147   3.063   9.167 -1.0495 -2.6430 -1.3727
    8CHL1  H24B  582   4.269   3.035   9.051  4.3143 -0.0376  0.7203
    8CHL1   C25  583   4.202   2.846   9.132  0.0014  0.5368 -0.4190
    8CHL1   H25  584   4.188   2.803   9.233  1.0608  1.0543 -0.0390
    8CHL1   C26  585   4.094   2.830   9.036 -0.0886  0.2773 -0.7738
    8CHL1  H26A  586   4.056   2.726   9.035  0.6107 -0.0336  1.2346
    8CHL1  H26B  587   4.011   2.891   9.077 -0.3910 -1.0009  0.5679
    8CHL1  H26C  588   4.118   2.862   8.932  2.0212  0.3276 -0.3025
    8CHL1   C27  589   4.325   2.767   9.099  0.0843 -0.2776 -0.5088
    8CHL1  H27A  590   4.399   2.756   9.181 -0.0772  0.0379 -0.3180
    8CHL1  H27B  591   4.295   2.662   9.079  1.4448 -0.2928 -2.6958
    8CHL1  H27C  592   4.380   2.804   9.010  2.2400 -3.7677 -0.7149
    9CHL1    C3  593   1.422   0.488  10.031  0.3759 -0.7161 -0.3207
    9CHL1    H3  594   1.462   0.591  10.017  0.9820 -0.5638  2.3514
    9CHL1    O3  595   1.373   0.485  10.169 -0.2632 -0.2360 -0.0251
    9CHL1   H3'  596   1.320   0.406  10.176 -0.2565 -0.1943  0.5802
    9CHL1    C4  597   1.304   0.453   9.940  0.3369 -0.7684 -0.1150
    9CHL1   H4A  598   1.246   0.363   9.968 -4.2157  0.3715 -5.2010
    9CHL1   H4B  599   1.225   0.530   9.951  0.7893  0.0048 -2.0422
    9CHL1    C5  600   1.354   0.434   9.798 -0.1314  0.6661  0.4966
    9CHL1    C6  601   1.295   0.500   9.699 -0.1679  0.2202 -0.1705
    9CHL1    H6  602   1.218   0.572   9.729  0.0763  0.5312 -0.2914
    9CHL1    C7  603   1.324   0.478   9.550 -0.6211 -0.1537  0.1844
    9CHL1   H7A  604   1.232   0.465   9.489 -0.1532 -4.1665  0.2112
    9CHL1   H7B  605   1.367   0.572   9.509  0.0736 -0.2106  0.7677
    9CHL1    C8  606   1.414   0.360   9.523  0.1443 -0.4411  0.7683
    9CHL1    H8  607   1.344   0.278   9.550 -0.9946  0.9543  2.2015
    9CHL1   C14  608   1.459   0.374   9.378  0.1400  0.1115 -0.4222
    9CHL1   H14  609   1.507   0.474   9.365  2.0551 -0.6476  0.5824
    9CHL1   C15  610   1.351   0.370   9.266 -0.2689  0.2910 -0.1819
    9CHL1  H15A  611   1.273   0.291   9.266  0.4567 -0.4326  1.0394
    9CHL1  H15B  612   1.300   0.468   9.258  0.4371  0.6555 -0.2575
    9CHL1   C16  613   1.435   0.348   9.137  0.6589  0.0300 -0.7336
    9CHL1  H16A  614   1.382   0.269   9.079  0.1111  0.1412 -0.3863
    9CHL1  H16B  615   1.436   0.444   9.081 -2.7407 -0.2171 -1.3060
    9CHL1   C17  616   1.579   0.316   9.192 -0.3113 -0.5210 -0.3698
    9CHL1   H17  617   1.627   0.416   9.202  1.7771 -1.5470  0.1348
    9CHL1   C13  618   1.569   0.267   9.339  0.9108 -1.2236 -0.0254
    9CHL1   C18  619   1.503   0.126   9.331  0.1015 -0.9891  0.4223
    9CHL1  H18A  620   1.589   0.059   9.311  1.6420  1.0037  0.1589
    9CHL1  H18B  621   1.462   0.097   9.430 -1.9363  0.3817 -0.0022
    9CHL1  H18C  622   1.416   0.121   9.262  0.3658  0.0476 -0.0037
    9CHL1   C12  623   1.686   0.279   9.440 -0.0030  0.1281 -0.8384
    9CHL1  H12A  624   1.766   0.202   9.437 -0.8120 -0.7132 -0.8540
    9CHL1  H12B  625   1.733   0.380   9.433  1.0223 -0.3360 -0.7021
    9CHL1   C11  626   1.638   0.260   9.587  0.1021 -0.0114 -0.2536
    9CHL1  H11A  627   1.617   0.151   9.590  0.9682 -0.1802 -0.1467
    9CHL1  H11B  628   1.729   0.277   9.649  0.7209  0.1039 -1.1767
    9CHL1    C9  629   1.525   0.357   9.623  0.2283  0.0433  0.1348
    9CHL1    H9  630   1.567   0.459   9.608 -0.2008  0.0421 -1.1813
    9CHL1   C10  631   1.473   0.343   9.773 -0.1941  0.3595  0.4301
    9CHL1   C19  632   1.434   0.194   9.787 -0.4158  0.2772  0.0565
    9CHL1  H19A  633   1.379   0.150   9.702  1.8372  1.2589 -1.9580
    9CHL1  H19B  634   1.526   0.133   9.801 -2.0585 -1.9852  1.3834
    9CHL1  H19C  635   1.376   0.190   9.882 -0.7216  0.0691 -0.1410
    9CHL1    C1  636   1.582   0.370   9.878  0.1037  0.4921 -0.2134
    9CHL1   H1A  637   1.645   0.278   9.883  0.6093  0.9569  3.2000
    9CHL1   H1B  638   1.636   0.464   9.856  1.0079  0.0891  0.2556
    9CHL1    C2  639   1.521   0.383  10.029 -0.1320 -0.0694 -0.0828
    9CHL1   H2A  640   1.609   0.403  10.095  0.5926  0.4287 -1.1789
    9CHL1   H2B  641   1.476   0.284  10.049 -2.6555  1.1984  0.7231
    9CHL1   C20  642   1.656   0.238   9.092 -0.2191 -0.2665 -0.2117
    9CHL1   H20  643   1.629   0.131   9.077  0.7360 -0.5575  0.0550
    9CHL1   C21  644   1.808   0.232   9.143 -0.1001  0.2162  0.1899
    9CHL1  H21A  645   1.874   0.162   9.088  0.0314  1.2458 -0.9884
    9CHL1  H21B  646   1.827   0.189   9.243  1.3242  2.1532  0.7697
    9CHL1  H21C  647   1.857   0.332   9.138 -0.7287  0.5554  0.7248
    9CHL1   C22  648   1.657   0.302   8.951  0.2391 -0.7734 -0.1251
    9CHL1  H22A  649   1.560   0.293   8.899  0.8568 -2.0829 -1.0621
    9CHL1  H22B  650   1.668   0.409   8.979  1.3632 -0.7953 -0.4587
    9CHL1   C23  651   1.755   0.253   8.856  0.0335  0.9664 -0.0480
    9CHL1  H23A  652   1.856   0.277   8.895 -0.3436  0.7148  1.1166
    9CHL1  H23B  653   1.748   0.144   8.833  0.0551  1.2652 -1.5370
    9CHL1   C24  654   1.741   0.315   8.721  0.0322  0.1178  0.4117
    9CHL1  H24A  655   1.634   0.319   8.689  0.0266 -1.4417  0.1625
    9CHL1  H24B  656   1.772   0.421   8.726  0.5539  0.0094 -0.3790
    9CHL1   C25  657   1.807   0.244   8.604 -0.3013  0.2334  0.1590
    9CHL1   H25  658   1.792   0.134   8.604 -2.9537  0.5474  1.9797
    9CHL1   C26  659   1.766   0.291   8.463 -0.2950 -0.4040 -0.0363
    9CHL1  H26A  660   1.784   0.400   8.454 -0.9092 -0.4101 -1.4631
    9CHL1  H26B  661   1.817   0.225   8.390 -1.3738  0.8243 -1.9426
    9CHL1  H26C  662   1.656   0.273   8.453 -0.5966  1.1381  0.2812
    9CHL1   C27  663   1.965   0.253   8.622  0.3832 -0.2997  0.3275
    9CHL1  H27A  664   1.994   0.280   8.726  3.3064 -1.6385 -0.0807
    9CHL1  H27B  665   2.018   0.157   8.602  1.4524  0.3375  0.1077
    9CHL1  H27C  666   2.001   0.335   8.558 -3.4957  2.2744  1.2495
   10CHL1    C3  667   6.630   3.507  10.080  0.5628 -0.5203  0.9644
   10CHL1    H3  668   6.590   3.405  10.098  0.8882 -1.1520 -1.7222
   10CHL1    O3  669   6.651   3.579  10.198  0.7173  0.5796  0.4982
   10CHL1   H3'  670   6.714   3.649  10.185  2.8681 -1.7191 -2.1285
   10CHL1    C4  671   6.766   3.484   9.995 -0.5637  0.3554 -0.2035
   10CHL1   H4A  672   6.819   3.581   9.986  1.5775 -0.8453 -0.9582
   10CHL1   H4B  673   6.829   3.428  10.067 -2.7245 -1.2569  0.5105
   10CHL1    C5  674   6.735   3.423   9.854  0.4737  0.3548  0.3472
   10CHL1    C6  675   6.799   3.312   9.811  0.0924  0.5626 -0.2278
   10CHL1    H6  676   6.860   3.245   9.874  1.6214  0.3461 -1.9112
   10CHL1    C7  677   6.786   3.259   9.664  0.6359 -0.1261  0.1291
   10CHL1   H7A  678   6.882   3.231   9.616  1.8286 -1.2093  3.0482
   10CHL1   H7B  679   6.729   3.163   9.661  0.1345  0.1924 -0.8593
   10CHL1    C8  680   6.707   3.351   9.568  0.2677 -0.5758  0.3583
   10CHL1    H8  681   6.779   3.430   9.539 -1.0020  0.9375  1.2742
   10CHL1   C14  682   6.670   3.273   9.438  0.0598  0.3366 -0.3723
   10CHL1   H14  683   6.595   3.198   9.471  0.8257 -0.5907 -0.7338
   10CHL1   C15  684   6.769   3.197   9.346 -0.7840  0.0717 -0.4359
   10CHL1  H15A  685   6.863   3.255   9.333 -0.9236  0.0270 -1.6561
   10CHL1  H15B  686   6.788   3.099   9.395 -2.2929  0.6988  1.4556
   10CHL1   C16  687   6.698   3.180   9.217  0.7071 -0.5216  0.3438
   10CHL1  H16A  688   6.763   3.212   9.132  0.7808 -1.3544  0.0832
   10CHL1  H16B  689   6.677   3.072   9.201 -0.6880 -0.1830 -0.1362
   10CHL1   C17  690   6.563   3.264   9.228  0.5466  0.2758  1.3317
   10CHL1   H17  691   6.484   3.193   9.261  2.2424 -2.5427 -0.4809
   10CHL1   C13  692   6.582   3.362   9.344  0.3390  0.1756  0.2650
   10CHL1   C18  693   6.666   3.484   9.295  0.0339 -0.1277  0.5345
   10CHL1  H18A  694   6.747   3.447   9.229  0.8245 -2.2229  2.6384
   10CHL1  H18B  695   6.603   3.553   9.235  0.8025  0.4340  0.3515
   10CHL1  H18C  696   6.715   3.544   9.375 -2.3880  0.6672  1.4615
   10CHL1   C12  697   6.453   3.408   9.418 -0.3758  0.0456 -0.4543
   10CHL1  H12A  698   6.387   3.469   9.353 -1.4973 -0.2593  0.3841
   10CHL1  H12B  699   6.412   3.313   9.460 -1.0799  1.0508  1.1682
   10CHL1   C11  700   6.497   3.497   9.538 -0.6025  0.4123 -0.6297
   10CHL1  H11A  701   6.532   3.599   9.509 -0.1935  0.8136  1.2277
   10CHL1  H11B  702   6.402   3.531   9.583 -0.9430 -1.3910  0.0513
   10CHL1    C9  703   6.586   3.418   9.641 -0.2619  0.3036 -0.4115
   10CHL1    H9  704   6.517   3.340   9.679 -1.6259  2.7390  2.3187
   10CHL1   C10  705   6.627   3.494   9.764  0.5069 -1.1590 -0.3831
   10CHL1   C19  706   6.700   3.622   9.718 -1.1122  0.0341 -0.3283
   10CHL1  H19A  707   6.787   3.605   9.651  0.6590  3.9850  0.8193
   10CHL1  H19B  708   6.628   3.689   9.666 -1.5149 -0.4117 -0.3479
   10CHL1  H19C  709   6.739   3.681   9.804 -3.8693 -0.5053  1.3583
   10CHL1    C1  710   6.499   3.521   9.850  0.2564  0.1397  0.8437
   10CHL1   H1A  711   6.421   3.587   9.806  1.2012  1.2230  0.7665
   10CHL1   H1B  712   6.444   3.426   9.866  1.0143 -0.1831  1.5767
   10CHL1    C2  713   6.526   3.588   9.992 -0.2728 -0.2520  0.2360
   10CHL1   H2A  714   6.434   3.592  10.054 -0.2804  0.2502  0.2005
   10CHL1   H2B  715   6.571   3.690   9.984  0.3757 -0.6525 -1.3595
   10CHL1   C20  716   6.513   3.311   9.092 -0.7882  0.5575  0.4693
   10CHL1   H20  717   6.582   3.375   9.033  0.2126 -1.1694 -0.2710
   10CHL1   C21  718   6.375   3.372   9.102  0.2859 -0.6836  0.0533
   10CHL1  H21A  719   6.305   3.307   9.158 -1.7267  0.1877 -1.4038
   10CHL1  H21B  720   6.331   3.399   9.004  0.2683 -1.9622 -0.2891
   10CHL1  H21C  721   6.369   3.468   9.158 -2.0291 -0.2738 -0.8513
   10CHL1   C22  722   6.520   3.193   8.999 -0.0324  0.0020 -0.0252
   10CHL1  H22A  723   6.627   3.169   8.977  0.2093  0.7557  0.2961
   10CHL1  H22B  724   6.475   3.103   9.046 -0.4181  1.0541  1.6315
   10CHL1   C23  725   6.466   3.212   8.859  0.2466 -0.2786 -0.7491
   10CHL1  H23A  726   6.361   3.250   8.862  1.1573  2.1364  2.0803
   10CHL1  H23B  727   6.525   3.294   8.812  0.8063  0.4191  1.1225
   10CHL1   C24  728   6.470   3.084   8.772  0.5217 -0.3832 -0.3773
   10CHL1  H24A  729   6.430   3.108   8.671  1.2304  2.8823  0.0546
   10CHL1  H24B  730   6.572   3.053   8.744  0.7256 -0.6142  0.5951
   10CHL1   C25  731   6.380   2.968   8.823 -0.7735 -1.2422  0.2082
   10CHL1   H25  732   6.411   2.947   8.928  1.9821  0.3099 -0.2559
   10CHL1   C26  733   6.228   3.019   8.808 -0.2366  0.1895  0.3360
   10CHL1  H26A  734   6.215   3.088   8.894  1.8900 -2.0769  2.5604
   10CHL1  H26B  735   6.209   3.059   8.706  0.7053  0.6302  0.3247
   10CHL1  H26C  736   6.158   2.933   8.816 -0.2910  0.2851  0.9430
   10CHL1   C27  737   6.392   2.840   8.734 -0.4942 -0.3246 -0.6036
   10CHL1  H27A  738   6.325   2.761   8.776  0.4901 -0.1628  1.3479
   10CHL1  H27B  739   6.342   2.862   8.637  2.0496  0.5066 -1.7599
   10CHL1  H27C  740   6.496   2.802   8.728 -0.0845  0.8435 -1.0503
   11CHL1    C3  741   2.530   5.977   9.993  0.8279 -1.0742 -0.8457
   11CHL1    H3  742   2.639   5.990  10.006  0.4880  0.2334  0.9120
   11CHL1    O3  743   2.484   5.940  10.125  0.4089 -0.0056  0.6480
   11CHL1   H3'  744   2.565   5.903  10.160 -0.0489 -0.7002  1.0064
   11CHL1    C4  745   2.454   6.103   9.962 -0.2550  0.0338  0.4878
   11CHL1   H4A  746   2.349   6.091   9.997 -0.7030 -0.4061 -0.9637
   11CHL1   H4B  747   2.499   6.184  10.025  0.3372  0.4519 -0.4592
   11CHL1    C5  748   2.475   6.147   9.818 -0.9199  0.2305  0.2191
   11CHL1    C6  749   2.544   6.262   9.785 -0.7953 -0.6363  0.4361
   11CHL1    H6  750   2.566   6.326   9.872  0.8197 -0.7770  0.1402
   11CHL1    C7  751   2.575   6.309   9.649  0.0399  0.3095 -0.0040
   11CHL1   H7A  752   2.520   6.404   9.631 -0.7178 -0.7932 -3.8361
   11CHL1   H7B  753   2.684   6.323   9.633 -0.1778  3.6116  1.0872
   11CHL1    C8  754   2.514   6.219   9.536 -0.2134 -0.0776 -0.1011
   11CHL1    H8  755   2.413   6.263   9.520  1.1356  2.3698 -2.2296
   11CHL1   C14  756   2.582   6.241   9.395  0.6186  0.0363 -0.1486
   11CHL1   H14  757   2.684   6.197   9.400  0.8237  0.5981  0.5924
   11CHL1   C15  758   2.594   6.380   9.340 -0.6568 -0.8535 -0.1463
   11CHL1  H15A  759   2.506   6.442   9.365  0.9587  1.0171  1.0481
   11CHL1  H15B  760   2.679   6.431   9.390 -1.9674  1.3293 -0.0822
   11CHL1   C16  761   2.603   6.355   9.191 -0.1846 -0.3417  0.6224
   11CHL1  H16A  762   2.524   6.406   9.133  2.1873  3.0264  0.2036
   11CHL1  H16B  763   2.697   6.386   9.140 -1.7086  1.3379 -1.2820
   11CHL1   C17  764   2.593   6.197   9.164  0.1086 -1.0197 -0.2499
   11CHL1   H17  765   2.695   6.160   9.186 -0.3199 -0.4923  2.8415
   11CHL1   C13  766   2.515   6.153   9.286  0.0078 -0.1033  0.1445
   11CHL1   C18  767   2.362   6.190   9.249  0.7501  0.1843  0.1371
   11CHL1  H18A  768   2.324   6.107   9.186  0.1049 -0.2362  1.0683
   11CHL1  H18B  769   2.297   6.192   9.339 -0.9207  0.9199 -1.0770
   11CHL1  H18C  770   2.363   6.293   9.208  2.0113 -0.1570 -0.7169
   11CHL1   C12  771   2.524   6.007   9.327  0.0576  0.7895 -0.5929
   11CHL1  H12A  772   2.474   5.935   9.260 -1.6891 -0.0901  1.5960
   11CHL1  H12B  773   2.631   5.976   9.331 -0.2072  0.0964  1.8720
   11CHL1   C11  774   2.454   5.984   9.458 -0.0090 -0.2791  0.0979
   11CHL1  H11A  775   2.346   6.003   9.442  0.3694 -0.6669 -3.1326
   11CHL1  H11B  776   2.478   5.880   9.489 -1.6668 -1.0256 -1.0446
   11CHL1    C9  777   2.516   6.067   9.572 -0.3986 -0.4273  0.2560
   11CHL1    H9  778   2.625   6.050   9.575 -0.1917  0.8740  0.6051
   11CHL1   C10  779   2.453   6.033   9.716 -0.0312  0.3530  0.9549
   11CHL1   C19  780   2.302   6.015   9.692  0.3638 -0.4586  0.4994
   11CHL1  H19A  781   2.295   5.921   9.633 -0.9148 -0.9096  1.3627
   11CHL1  H19B  782   2.256   5.996   9.791  1.4494  1.8532  1.4925
   11CHL1  H19C  783   2.246   6.098   9.646 -0.5395  0.6230  3.4263
   11CHL1    C1  784   2.511   5.892   9.762  0.4827 -0.0267  0.0831
   11CHL1   H1A  785   2.479   5.813   9.690 -2.2365  0.9330  0.1704
   11CHL1   H1B  786   2.620   5.906   9.746  0.3109 -2.6578 -4.3661
   11CHL1    C2  787   2.478   5.862   9.907  0.0938 -0.2608  0.4744
   11CHL1   H2A  788   2.540   5.775   9.939  1.1383  1.0363  2.0030
   11CHL1   H2B  789   2.374   5.829   9.929 -0.1510  0.8421  1.0001
   11CHL1   C20  790   2.559   6.160   9.015 -0.0026 -0.2255  0.3925
   11CHL1   H20  791   2.459   6.204   8.994  0.5880  0.4099 -1.2146
   11CHL1   C21  792   2.559   6.008   8.991 -0.8106 -0.2591  0.2574
   11CHL1  H21A  793   2.471   5.954   9.033 -0.0036 -1.8882 -0.0789
   11CHL1  H21B  794   2.643   5.954   9.040 -1.0525  0.6685  1.7146
   11CHL1  H21C  795   2.565   5.992   8.881  0.6003  2.8723 -0.1616
   11CHL1   C22  796   2.658   6.230   8.915 -0.0236  0.6264 -0.2595
   11CHL1  H22A  797   2.660   6.339   8.935  0.3772  0.0136  3.3065
   11CHL1  H22B  798   2.760   6.193   8.939 -0.8406 -2.3244 -1.0427
   11CHL1   C23  799   2.623   6.218   8.758  0.7007  0.3552  0.0005
   11CHL1  H23A  800   2.637   6.113   8.725  2.2400  0.6124 -0.2179
   11CHL1  H23B  801   2.519   6.256   8.750 -0.0905 -1.5789  0.9614
   11CHL1   C24  802   2.728   6.305   8.685 -0.5382 -0.5991  0.1177
   11CHL1  H24A  803   2.736   6.398   8.746  1.0812  0.0672 -1.0931
   11CHL1  H24B  804   2.830   6.266   8.704 -0.4438  0.9222  3.1257
   11CHL1   C25  805   2.704   6.324   8.539  0.0535 -0.8987  0.4273
   11CHL1   H25  806   2.607   6.374   8.517 -0.1112 -1.5008 -0.2485
   11CHL1   C26  807   2.811   6.406   8.466 -0.1051  0.4183  1.2810
   11CHL1  H26A  808   2.908   6.353   8.479 -0.8684 -1.5076 -0.6432
   11CHL1  H26B  809   2.803   6.421   8.356  1.2418  2.5422  1.4421
   11CHL1  H26C  810   2.832   6.503   8.516  0.0297  0.8286  0.4371
   11CHL1   C27  811   2.715   6.190   8.467 -0.8913  0.1670  0.1172
   11CHL1  H27A  812   2.719   6.201   8.357  1.4126 -0.2558  0.1404
   11CHL1  H27B  813   2.810   6.137   8.490 -1.8220 -2.0739 -1.0757
   11CHL1  H27C  814   2.631   6.126   8.503 -0.0550 -0.3606  1.1579
   12CHL1    C3  815   5.744   2.619  10.250 -0.5592 -0.2462  0.2861
   12CHL1    H3  816   5.772   2.724  10.228 -1.6742  0.4652  2.1218
   12CHL1    O3  817   5.835   2.576  10.351 -0.4352 -0.6596  0.0090
   12CHL1   H3'  818   5.792   2.504  10.397  2.7157 -1.3280  2.1112
   12CHL1    C4  819   5.600   2.593  10.289 -0.6227 -0.4909  0.6045
   12CHL1   H4A  820   5.568   2.486  10.296 -1.9025 -0.2848 -1.6129
   12CHL1   H4B  821   5.577   2.647  10.384  0.6524  0.1909  0.5353
   12CHL1    C5  822   5.494   2.636  10.183 -0.2576 -0.2318 -0.2109
   12CHL1    C6  823   5.401   2.727  10.202 -0.8015  0.5062  0.1271
   12CHL1    H6  824   5.391   2.783  10.296 -0.8342 -0.2069  0.5514
   12CHL1    C7  825   5.299   2.758  10.099 -0.2991  0.3402  0.0662
   12CHL1   H7A  826   5.205   2.749  10.157  0.9440 -0.0785  2.0773
   12CHL1   H7B  827   5.313   2.863  10.065 -0.4024  0.8675  1.6325
   12CHL1    C8  828   5.301   2.669   9.970  0.8774  0.2741 -0.3784
   12CHL1    H8  829   5.238   2.582   9.996 -2.0171  1.9183 -1.5861
   12CHL1   C14  830   5.223   2.732   9.846 -0.7324  0.2937 -0.0853
   12CHL1   H14  831   5.283   2.822   9.823  0.1763 -0.2062  0.3103
   12CHL1   C15  832   5.084   2.791   9.874 -0.6866  0.5679 -0.0602
   12CHL1  H15A  833   5.034   2.716   9.938 -0.6729 -1.4851 -2.3692
   12CHL1  H15B  834   5.096   2.884   9.933  2.7980  1.1046 -1.5122
   12CHL1   C16  835   5.024   2.804   9.732 -0.0456  1.3565  0.1761
   12CHL1  H16A  836   4.926   2.753   9.730  0.7675 -0.3113  1.1996
   12CHL1  H16B  837   5.006   2.911   9.709 -0.5265  1.1864 -0.2349
   12CHL1   C17  838   5.127   2.729   9.637  0.0061 -0.0536  1.1342
   12CHL1   H17  839   5.201   2.810   9.619 -1.8690  1.8032  1.5467
   12CHL1   C13  840   5.212   2.637   9.723 -1.2273  0.5519 -0.3151
   12CHL1   C18  841   5.130   2.513   9.762 -0.4238 -0.0248  0.3784
   12CHL1  H18A  842   5.116   2.439   9.680 -1.3865  2.3075 -1.6179
   12CHL1  H18B  843   5.184   2.448   9.834 -2.0993  0.3171  1.9627
   12CHL1  H18C  844   5.028   2.532   9.800 -1.5740 -0.8348 -2.1616
   12CHL1   C12  845   5.359   2.610   9.681 -0.2279 -0.1038  0.3199
   12CHL1  H12A  846   5.359   2.557   9.584 -1.2666  3.4590 -1.7100
   12CHL1  H12B  847   5.413   2.705   9.665 -0.1984  0.0864  1.4939
   12CHL1   C11  848   5.441   2.543   9.795 -0.0044 -0.4329  0.5156
   12CHL1  H11A  849   5.413   2.436   9.808  0.6523 -0.6736 -0.0627
   12CHL1  H11B  850   5.547   2.546   9.763  0.1914  0.4939  1.2491
   12CHL1    C9  851   5.447   2.624   9.930  0.8609 -0.0409 -0.4848
   12CHL1    H9  852   5.504   2.717   9.908 -0.1205  0.3728 -1.3384
   12CHL1   C10  853   5.520   2.564  10.049  0.0392  0.1696 -0.4607
   12CHL1   C19  854   5.472   2.419  10.067  0.1944 -0.0034  0.4241
   12CHL1  H19A  855   5.361   2.411  10.057  0.3665 -2.8743  0.5210
   12CHL1  H19B  856   5.513   2.347   9.994  1.1484  0.6980  0.2642
   12CHL1  H19C  857   5.480   2.372  10.167 -0.4635 -0.3407  0.3211
   12CHL1    C1  858   5.674   2.567  10.012 -0.4908 -0.2785 -0.2726
   12CHL1   H1A  859   5.699   2.499   9.927 -2.4679 -1.2305 -0.1291
   12CHL1   H1B  860   5.693   2.675   9.993 -0.6920 -0.4456 -1.4949
   12CHL1    C2  861   5.761   2.524  10.125  0.0035 -0.3627  0.2417
   12CHL1   H2A  862   5.867   2.531  10.091 -0.5864  3.6384 -1.0638
   12CHL1   H2B  863   5.739   2.418  10.146  0.7122 -0.3552  1.0784
   12CHL1   C20  864   5.052   2.672   9.507 -0.2017  0.0455  0.1822
   12CHL1   H20  865   4.980   2.604   9.556  2.8591 -2.1398  1.8170
   12CHL1   C21  866   5.149   2.586   9.416 -0.5738 -0.3361 -0.3057
   12CHL1  H21A  867   5.188   2.501   9.476 -1.6732 -0.4262  0.2979
   12CHL1  H21B  868   5.226   2.652   9.371  1.0444 -2.4678 -0.7678
   12CHL1  H21C  869   5.092   2.541   9.332  0.3895  2.1850 -2.3668
   12CHL1   C22  870   4.987   2.782   9.427 -0.6838  0.8041 -0.4922
   12CHL1  H22A  871   4.970   2.747   9.323 -0.8546  0.3816 -0.3229
   12CHL1  H22B  872   4.890   2.809   9.473 -0.7756  2.0812 -1.3948
   12CHL1   C23  873   5.069   2.915   9.411  0.4969 -0.8806  0.0394
   12CHL1  H23A  874   5.093   2.952   9.513 -2.5587  0.9962  0.1595
   12CHL1  H23B  875   5.158   2.889   9.350  0.7312 -2.3922  0.9940
   12CHL1   C24  876   4.991   3.030   9.339  0.1037  0.3154  0.0266
   12CHL1  H24A  877   4.892   3.034   9.388  1.1076 -0.0116  2.1417
   12CHL1  H24B  878   5.041   3.124   9.368  0.8149 -0.2894  0.7882
   12CHL1   C25  879   4.978   3.010   9.184  0.0947  0.2851  0.8363
   12CHL1   H25  880   4.930   2.911   9.174  3.4089 -1.3554  0.3131
   12CHL1   C26  881   4.881   3.116   9.115  0.9483  0.1734 -0.1775
   12CHL1  H26A  882   4.794   3.140   9.180  0.8280  0.8191 -0.5742
   12CHL1  H26B  883   4.928   3.213   9.088  1.0221 -0.1736 -1.3069
   12CHL1  H26C  884   4.853   3.083   9.013  1.3851  0.5610 -0.4254
   12CHL1   C27  885   5.111   3.024   9.113  0.0573 -0.0289  0.0733
   12CHL1  H27A  886   5.146   3.129   9.124  1.8146 -0.5095 -0.6495
   12CHL1  H27B  887   5.184   2.953   9.157 -0.9647 -0.4859  1.0393
   12CHL1  H27C  888   5.108   3.005   9.003 -1.6738  1.1342 -0.0901
   13CHL1    C3  889   4.438   4.408   9.879 -0.2524  0.6460  0.4519
   13CHL1    H3  890   4.433   4.303   9.843 -0.3850  1.3965 -1.7909
   13CHL1    O3  891   4.473   4.402  10.015  0.0937  0.3905  0.1211
   13CHL1   H3'  892   4.558   4.446  10.023 -1.0732  2.3343  2.1386
   13CHL1    C4  893   4.549   4.499   9.818  0.3434  0.1423  0.2832
   13CHL1   H4A  894   4.541   4.601   9.860 -1.1360 -0.2050  0.8758
   13CHL1   H4B  895   4.644   4.452   9.851 -1.1827 -1.8470  2.0392
   13CHL1    C5  896   4.536   4.477   9.670 -0.0877 -0.0376  0.2662
   13CHL1    C6  897   4.629   4.425   9.584  0.2249  0.9164 -0.9237
   13CHL1    H6  898   4.729   4.403   9.625 -0.1351  1.7968  0.4717
   13CHL1    C7  899   4.618   4.416   9.434  0.3949  0.1230 -0.7673
   13CHL1   H7A  900   4.716   4.436   9.387  1.5824 -1.3109  0.9990
   13CHL1   H7B  901   4.584   4.311   9.415 -1.9212  1.2970 -3.4430
   13CHL1    C8  902   4.508   4.505   9.381  0.7708  0.1356 -0.5285
   13CHL1    H8  903   4.546   4.609   9.380  1.2038 -0.0147  0.0751
   13CHL1   C14  904   4.482   4.469   9.234 -0.0018  0.3080 -0.0483
   13CHL1   H14  905   4.443   4.365   9.240  0.4070  0.0904 -1.0884
   13CHL1   C15  906   4.599   4.475   9.140 -0.9480  0.1598 -0.3074
   13CHL1  H15A  907   4.669   4.560   9.157  1.4003 -1.7643 -0.0943
   13CHL1  H15B  908   4.654   4.383   9.168 -0.0295  0.2660 -1.7363
   13CHL1   C16  909   4.534   4.490   9.002 -0.2192 -0.1731 -0.2940
   13CHL1  H16A  910   4.577   4.580   8.951 -0.6534 -0.6081 -1.4477
   13CHL1  H16B  911   4.562   4.397   8.948  1.6132  1.3731 -2.1244
   13CHL1   C17  912   4.386   4.494   9.020 -0.2166 -0.0596  0.4211
   13CHL1   H17  913   4.345   4.392   9.010 -1.3261  0.1426  2.5088
   13CHL1   C13  914   4.368   4.541   9.163 -0.4785  0.3854  0.8881
   13CHL1   C18  915   4.383   4.700   9.165  0.8152 -0.0920 -0.3289
   13CHL1  H18A  916   4.369   4.745   9.265 -2.4528 -2.1686  0.2021
   13CHL1  H18B  917   4.486   4.721   9.129  1.8196 -4.2319 -0.1238
   13CHL1  H18C  918   4.307   4.745   9.097 -0.2395 -2.6926 -0.9391
   13CHL1   C12  919   4.239   4.496   9.236 -0.0230  0.6284 -0.2548
   13CHL1  H12A  920   4.148   4.538   9.187  0.1730  2.1992  0.7130
   13CHL1  H12B  921   4.217   4.388   9.222  1.5181  0.4871 -1.6949
   13CHL1   C11  922   4.245   4.542   9.384 -0.7513 -0.3206 -0.3906
   13CHL1  H11A  923   4.238   4.652   9.397  1.2908 -0.4142  1.8514
   13CHL1  H11B  924   4.156   4.504   9.439 -0.0815 -1.5145 -0.1186
   13CHL1    C9  925   4.377   4.489   9.460 -0.0195 -0.1774 -0.5249
   13CHL1    H9  926   4.353   4.380   9.459  1.0162 -0.4059 -0.2660
   13CHL1   C10  927   4.400   4.533   9.611  0.7342 -0.8129 -0.3293
   13CHL1   C19  928   4.393   4.690   9.615  0.4899 -0.0858 -0.4579
   13CHL1  H19A  929   4.471   4.736   9.550  0.9827  0.4714  0.5331
   13CHL1  H19B  930   4.288   4.721   9.596  0.5379  0.8758  0.8292
   13CHL1  H19C  931   4.414   4.719   9.720 -1.4770 -0.3732  0.0345
   13CHL1    C1  932   4.288   4.488   9.694  0.3243 -0.1444  0.3801
   13CHL1   H1A  933   4.192   4.536   9.664  0.7834 -1.3136 -3.2346
   13CHL1   H1B  934   4.266   4.382   9.666 -2.5879  0.2825  0.8402
   13CHL1    C2  935   4.304   4.473   9.854  0.2486 -0.1788 -0.2858
   13CHL1   H2A  936   4.218   4.421   9.901  1.0050 -1.9463 -0.8441
   13CHL1   H2B  937   4.302   4.567   9.914  3.0468 -0.7032  0.7001
   13CHL1   C20  938   4.306   4.551   8.901 -0.0321 -0.0346 -0.3900
   13CHL1   H20  939   4.298   4.662   8.913 -1.7948 -0.3706  1.9098
   13CHL1   C21  940   4.156   4.501   8.910 -0.0322  0.2761 -0.4115
   13CHL1  H21A  941   4.105   4.533   8.817 -1.6527 -0.3945  0.2323
   13CHL1  H21B  942   4.092   4.536   8.994 -1.5500 -0.9110 -1.0443
   13CHL1  H21C  943   4.155   4.391   8.926  0.3314  0.2587 -0.5117
   13CHL1   C22  944   4.368   4.523   8.759 -0.5307 -0.1005 -0.2566
   13CHL1  H22A  945   4.322   4.575   8.672  1.4564  1.5173 -0.3855
   13CHL1  H22B  946   4.473   4.559   8.757 -0.5771  0.0621  0.1321
   13CHL1   C23  947   4.354   4.375   8.721 -0.4015 -0.4749 -0.1481
   13CHL1  H23A  948   4.408   4.310   8.793  0.3058  0.9641  0.6438
   13CHL1  H23B  949   4.251   4.335   8.728  0.2791 -2.0748  1.1289
   13CHL1   C24  950   4.406   4.358   8.580  0.5376 -0.2146  0.0504
   13CHL1  H24A  951   4.343   4.404   8.502 -0.3998 -2.2817 -0.4269
   13CHL1  H24B  952   4.505   4.408   8.570  0.9246 -0.5480  1.8964
   13CHL1   C25  953   4.433   4.219   8.549  0.0095 -0.3398 -0.1123
   13CHL1   H25  954   4.502   4.179   8.627  0.0921  1.1954  0.6019
   13CHL1   C26  955   4.302   4.124   8.543  0.2718 -0.2146  0.0599
   13CHL1  H26A  956   4.252   4.158   8.449  0.5246 -0.1165 -0.0414
   13CHL1  H26B  957   4.324   4.017   8.523 -2.0718 -0.4684 -1.4484
   13CHL1  H26C  958   4.234   4.143   8.629 -0.7443 -0.0337 -0.7648
   13CHL1   C27  959   4.510   4.195   8.412 -0.7237 -0.6317 -0.4231
   13CHL1  H27A  960   4.448   4.212   8.321  0.7762 -0.2833 -1.3986
   13CHL1  H27B  961   4.595   4.266   8.410  0.0404 -1.5022  0.3741
   13CHL1  H27C  962   4.556   4.094   8.409 -1.6430 -1.0489 -0.6672
   14CHL1    C3  963   4.112   1.003  10.480  0.0430 -0.3481  0.2218
   14CHL1    H3  964   4.041   1.085  10.459  1.0497  0.2601 -0.8300
   14CHL1    O3  965   4.123   0.980  10.620  0.7035  0.1758 -0.4823
   14CHL1   H3'  966   4.200   1.029  10.647  0.4766 -0.3184  1.1357
   14CHL1    C4  967   4.053   0.874  10.424 -0.1671 -0.1616  0.6172
   14CHL1   H4A  968   4.121   0.796  10.466  1.5971  0.6874 -0.5818
   14CHL1   H4B  969   3.960   0.853  10.480 -1.2560 -1.1517 -1.5313
   14CHL1    C5  970   4.044   0.869  10.275  0.2953 -0.5741 -0.0808
   14CHL1    C6  971   3.930   0.846  10.214 -0.0092  0.2247  0.8223
   14CHL1    H6  972   3.833   0.838  10.265 -0.8736 -0.5884 -0.9138
   14CHL1    C7  973   3.916   0.828  10.070  0.5987 -0.1049 -0.2339
   14CHL1   H7A  974   3.851   0.743  10.039 -2.4063  1.6501  1.1503
   14CHL1   H7B  975   3.873   0.919  10.023  2.6255  1.5875  1.1083
   14CHL1    C8  976   4.060   0.813   9.997  0.1339 -0.0288  0.3664
   14CHL1    H8  977   4.096   0.711  10.018 -1.1918 -0.5283  0.2592
   14CHL1   C14  978   4.045   0.843   9.850  0.0227  0.6264 -0.2814
   14CHL1   H14  979   4.005   0.946   9.841 -2.1136 -0.0864  0.9139
   14CHL1   C15  980   3.941   0.756   9.773  0.2173 -0.5700  0.4571
   14CHL1  H15A  981   3.933   0.653   9.814 -0.9381  0.1743  2.2013
   14CHL1  H15B  982   3.838   0.798   9.772  0.8772  1.1032 -0.2757
   14CHL1   C16  983   3.992   0.757   9.623 -0.5613 -0.3970  0.2728
   14CHL1  H16A  984   4.024   0.654   9.597 -0.4943 -0.4973  0.7484
   14CHL1  H16B  985   3.911   0.794   9.556 -0.5686 -1.4662 -0.3178
   14CHL1   C17  986   4.119   0.850   9.628 -0.1860  0.2633 -0.7109
   14CHL1   H17  987   4.080   0.954   9.620  1.7268  1.3211  2.8955
   14CHL1   C13  988   4.179   0.839   9.768  0.5272  0.4610 -0.3774
   14CHL1   C18  989   4.241   0.704   9.775 -0.2327  0.4485 -0.0860
   14CHL1  H18A  990   4.268   0.675   9.879  1.5808  1.6775 -0.1907
   14CHL1  H18B  991   4.168   0.628   9.739 -1.1054  1.7491 -1.0918
   14CHL1  H18C  992   4.338   0.711   9.721 -1.1887 -0.9734 -2.0780
   14CHL1   C12  993   4.272   0.951   9.829  0.4659  0.6968 -0.4324
   14CHL1  H12A  994   4.369   0.955   9.773  0.2632 -0.3063 -0.8712
   14CHL1  H12B  995   4.221   1.049   9.819  1.0953  0.9942 -0.7795
   14CHL1   C11  996   4.288   0.922   9.976 -0.4076 -0.3689 -0.0622
   14CHL1  H11A  997   4.338   0.823   9.991  1.8171  1.0285  2.1840
   14CHL1  H11B  998   4.358   0.995  10.021  0.0476 -1.1104  0.4436
   14CHL1    C9  999   4.159   0.916  10.056 -0.0878 -0.5426 -0.0832
   14CHL1    H9 1000   4.107   1.013  10.038 -0.7222 -1.0212 -0.8579
   14CHL1   C10 1001   4.179   0.895  10.209 -0.5539  0.7483  0.6256
   14CHL1   C19 1002   4.267   0.777  10.238  0.0046 -0.2103  0.2047
   14CHL1  H19A 1003   4.220   0.680  10.209 -2.9751  0.7904  1.4794
   14CHL1  H19B 1004   4.360   0.780  10.177  0.5678 -0.9756  1.0198
   14CHL1  H19C 1005   4.299   0.785  10.344  0.7186 -1.5832  0.0992
   14CHL1    C1 1006   4.232   1.022  10.267 -0.3219 -0.2726  0.5139
   14CHL1   H1A 1007   4.330   1.044  10.219  0.9677  1.8031  3.9057
   14CHL1   H1B 1008   4.164   1.107  10.248 -0.1499 -0.7437 -2.3906
   14CHL1    C2 1009   4.248   1.033  10.423 -0.5259  0.3335 -0.4431
   14CHL1   H2A 1010   4.279   1.136  10.449  0.5050 -0.4913  1.7193
   14CHL1   H2B 1011   4.327   0.962  10.456 -2.3978 -1.8496 -0.5408
   14CHL1   C20 1012   4.214   0.833   9.504  0.3178  0.3946 -0.0368
   14CHL1   H20 1013   4.266   0.735   9.503  2.8543  1.6574  2.2134
   14CHL1   C21 1014   4.327   0.935   9.495 -0.1562 -0.1528 -0.1882
   14CHL1  H21A 1015   4.387   0.922   9.402  1.6217  1.2434  0.7334
   14CHL1  H21B 1016   4.402   0.932   9.577 -1.9242  1.7114  1.5601
   14CHL1  H21C 1017   4.292   1.040   9.503  2.0571  0.7851 -2.2058
   14CHL1   C22 1018   4.120   0.832   9.373 -0.2046  0.5417  0.2659
   14CHL1  H22A 1019   4.057   0.741   9.372  3.2188 -1.9066 -0.4625
   14CHL1  H22B 1020   4.063   0.926   9.392  1.2313  1.2536  1.1512
   14CHL1   C23 1021   4.199   0.842   9.240  0.3732 -0.1631 -0.4016
   14CHL1  H23A 1022   4.252   0.940   9.240 -2.7578  1.5852 -0.4208
   14CHL1  H23B 1023   4.285   0.772   9.247  1.4318  1.1281 -0.4178
   14CHL1   C24 1024   4.122   0.808   9.112  0.7092 -0.0703  0.2981
   14CHL1  H24A 1025   4.097   0.700   9.115 -0.9121  0.2651 -0.4531
   14CHL1  H24B 1026   4.027   0.865   9.124 -1.9080 -3.9420 -1.0825
   14CHL1   C25 1027   4.211   0.836   8.989 -0.2604 -0.5512 -0.4256
   14CHL1   H25 1028   4.234   0.944   9.001  0.6677 -0.7765 -0.1245
   14CHL1   C26 1029   4.341   0.758   8.972 -0.5636 -0.3624  0.4218
   14CHL1  H26A 1030   4.414   0.773   9.055  1.7515 -3.1646 -1.0065
   14CHL1  H26B 1031   4.321   0.649   8.982 -0.4669 -0.3665  0.5817
   14CHL1  H26C 1032   4.409   0.782   8.887  0.2666  1.6024  1.5960
   14CHL1   C27 1033   4.125   0.833   8.860  0.6831 -0.1494  0.9133
   14CHL1  H27A 1034   4.187   0.851   8.769 -1.4690 -1.5597 -0.8942
   14CHL1  H27B 1035   4.073   0.736   8.850  1.1836 -0.1113 -2.9041
   14CHL1  H27C 1036   4.046   0.910   8.848 -0.9311 -1.5900  2.1169
   15CHL1    C3 1037   4.143   6.517  10.148  0.1574 -0.3041  0.6837
   15CHL1    H3 1038   4.037   6.491  10.126  0.5633  0.6712 -2.7167
   15CHL1    O3 1039   4.141   6.560  10.290 -0.0361  0.4260 -0.2389
   15CHL1   H3' 1040   4.181   6.647  10.296 -0.8314  0.8851 -1.3123
   15CHL1    C4 1041   4.245   6.400  10.146  0.7163 -0.3472 -0.1993
   15CHL1   H4A 1042   4.341   6.434  10.191  0.0084  0.9532  0.3337
   15CHL1   H4B 1043   4.201   6.317  10.206  1.6505  1.1223  2.5746
   15CHL1    C5 1044   4.266   6.356  10.002  0.4294 -0.4866  0.5429
   15CHL1    C6 1045   4.256   6.233   9.969 -0.5602 -0.2939 -0.1390
   15CHL1    H6 1046   4.233   6.165  10.053  1.1497  0.1899  0.7470
   15CHL1    C7 1047   4.268   6.178   9.831 -0.2670 -0.2902 -0.9397
   15CHL1   H7A 1048   4.320   6.079   9.838  2.4665  1.1077 -0.9045
   15CHL1   H7B 1049   4.172   6.158   9.779 -0.2181  0.4038 -1.3054
   15CHL1    C8 1050   4.342   6.275   9.736 -0.5351 -0.0008  0.5238
   15CHL1    H8 1051   4.450   6.268   9.763 -0.1246 -1.3720 -1.3808
   15CHL1   C14 1052   4.332   6.236   9.594 -0.1640 -0.2020  0.8574
   15CHL1   H14 1053   4.228   6.247   9.559  0.3826 -1.9689 -1.4253
   15CHL1   C15 1054   4.362   6.087   9.549  0.1866  1.1688 -0.0231
   15CHL1  H15A 1055   4.448   6.049   9.609 -0.3645  0.5130  0.3516
   15CHL1  H15B 1056   4.280   6.014   9.564  0.3039  1.1708  0.6459
   15CHL1   C16 1057   4.396   6.097   9.403 -0.1394  0.6625  0.1872
   15CHL1  H16A 1058   4.505   6.074   9.402 -0.3957 -0.6052 -0.2127
   15CHL1  H16B 1059   4.339   6.021   9.344 -0.0734  0.6854  0.0940
   15CHL1   C17 1060   4.377   6.241   9.363  0.4581 -0.3620 -0.7601
   15CHL1   H17 1061   4.268   6.252   9.341  0.3361 -0.5396 -0.2498
   15CHL1   C13 1062   4.409   6.329   9.487  0.5341  0.1179 -0.2155
   15CHL1   C18 1063   4.563   6.319   9.513 -0.0759  0.7831 -0.0749
   15CHL1  H18A 1064   4.608   6.378   9.431  1.2154 -1.2659 -0.9122
   15CHL1  H18B 1065   4.593   6.362   9.611  0.0177  2.2662 -0.7542
   15CHL1  H18C 1066   4.591   6.211   9.513  1.6698  1.2107  0.1390
   15CHL1   C12 1067   4.347   6.470   9.497 -0.5529  0.1783  0.2890
   15CHL1  H12A 1068   4.418   6.541   9.450 -1.6680  0.5484 -0.8821
   15CHL1  H12B 1069   4.246   6.475   9.451 -1.5629 -2.2368  2.1492
   15CHL1   C11 1070   4.344   6.524   9.641 -0.3583 -0.5405  0.6977
   15CHL1  H11A 1071   4.451   6.535   9.668  0.3192  0.3248 -2.1390
   15CHL1  H11B 1072   4.301   6.626   9.648  1.7413  0.5263 -1.3696
   15CHL1    C9 1073   4.286   6.420   9.746  0.0967 -0.3478 -0.1488
   15CHL1    H9 1074   4.177   6.413   9.728  0.3309  2.3779 -3.1356
   15CHL1   C10 1075   4.297   6.468   9.897  0.7766  0.2980  0.0884
   15CHL1   C19 1076   4.445   6.503   9.933 -0.1793  0.0683  0.3028
   15CHL1  H19A 1077   4.503   6.409   9.915 -3.5944 -2.1091  0.2263
   15CHL1  H19B 1078   4.487   6.587   9.874 -2.4413  0.7521 -0.3792
   15CHL1  H19C 1079   4.444   6.525  10.042 -0.8150  0.3211  0.2450
   15CHL1    C1 1080   4.207   6.599   9.915  0.3440  0.2458 -0.4297
   15CHL1   H1A 1081   4.264   6.685   9.874  1.8603 -1.1393 -1.3037
   15CHL1   H1B 1082   4.115   6.582   9.855 -0.7557 -0.3972  1.4164
   15CHL1    C2 1083   4.177   6.637  10.060  0.1337 -0.3663 -0.5464
   15CHL1   H2A 1084   4.096   6.713  10.061 -1.1787 -1.6925 -2.6112
   15CHL1   H2B 1085   4.270   6.674  10.108  0.3209 -0.8955 -0.4944
   15CHL1   C20 1086   4.445   6.266   9.224 -0.4559  0.7497  0.2715
   15CHL1   H20 1087   4.550   6.231   9.232 -1.0087 -1.0632 -0.1402
   15CHL1   C21 1088   4.455   6.417   9.180 -0.2895  0.0873  0.9155
   15CHL1  H21A 1089   4.521   6.419   9.091 -0.0974 -0.9552  1.0294
   15CHL1  H21B 1090   4.501   6.489   9.251  1.5793  1.9391 -2.0362
   15CHL1  H21C 1091   4.352   6.452   9.157 -0.4155 -1.5629 -1.1705
   15CHL1   C22 1092   4.381   6.189   9.107 -1.0748 -0.0995 -0.4601
   15CHL1  H22A 1093   4.373   6.085   9.147  1.0144 -0.6588 -1.4449
   15CHL1  H22B 1094   4.284   6.235   9.079 -0.7086  1.7774  1.2527
   15CHL1   C23 1095   4.463   6.169   8.973  0.3779 -0.1137  0.3280
   15CHL1  H23A 1096   4.452   6.267   8.921 -0.2329  0.0505  0.7496
   15CHL1  H23B 1097   4.564   6.154   9.017 -1.4434 -2.1043  4.0828
   15CHL1   C24 1098   4.415   6.044   8.891  0.4089  0.8251  0.4811
   15CHL1  H24A 1099   4.409   5.955   8.957 -2.1605  0.2819 -0.4137
   15CHL1  H24B 1100   4.314   6.056   8.847  0.0186 -0.5989  0.9721
   15CHL1   C25 1101   4.512   6.023   8.774 -0.1330 -0.0948 -0.1695
   15CHL1   H25 1102   4.614   6.053   8.807 -1.1090  3.5943 -0.2897
   15CHL1   C26 1103   4.502   5.882   8.723 -0.4791  0.4095 -0.2412
   15CHL1  H26A 1104   4.397   5.861   8.695 -0.3808  0.3222 -0.5454
   15CHL1  H26B 1105   4.566   5.866   8.633 -1.9201 -0.8010 -1.0751
   15CHL1  H26C 1106   4.530   5.809   8.802  2.7632  0.4052 -1.3082
   15CHL1   C27 1107   4.477   6.117   8.651 -0.3111  0.0040  0.4972
   15CHL1  H27A 1108   4.374   6.096   8.616  0.2942  2.0797 -2.7275
   15CHL1  H27B 1109   4.472   6.221   8.691 -0.3510 -0.3867  1.5308
   15CHL1  H27C 1110   4.537   6.099   8.560  0.5426  1.4699  0.7506
   16CHL1    C3 1111   4.985   0.080  10.083 -0.1347  0.9949 -0.3219
   16CHL1    H3 1112   4.897   0.144  10.102 -1.4133 -0.7299 -0.3510
   16CHL1    O3 1113   5.051   0.050  10.208 -0.3246  0.2649 -0.2656
   16CHL1   H3' 1114   5.098  -0.032  10.192 -1.0346 -0.2388  0.2121
   16CHL1    C4 1115   4.954  -0.051  10.020  0.9159  0.3531  0.0007
   16CHL1   H4A 1116   5.034  -0.128  10.019 -1.0268 -1.7143  1.9169
   16CHL1   H4B 1117   4.878  -0.100  10.083 -0.0408  3.0326  0.9893
   16CHL1    C5 1118   4.905  -0.027   9.877 -0.0201 -0.2954  0.6308
   16CHL1    C6 1119   4.784  -0.074   9.852  0.1021  0.0788  0.6240
   16CHL1    H6 1120   4.727  -0.128   9.928 -1.5924 -1.6839 -1.8036
   16CHL1    C7 1121   4.718  -0.066   9.717 -0.2399  0.4273 -0.2811
   16CHL1   H7A 1122   4.649  -0.152   9.703  0.2362 -0.1542  0.8640
   16CHL1   H7B 1123   4.643   0.015   9.726 -0.6676 -0.1456  1.4307
   16CHL1    C8 1124   4.827  -0.027   9.608  0.7418  0.6551  0.8064
   16CHL1    H8 1125   4.893  -0.115   9.594 -1.6634 -1.0774  0.0398
   16CHL1   C14 1126   4.757   0.007   9.481 -0.4872  0.0107 -0.0893
   16CHL1   H14 1127   4.696   0.098   9.500  0.7003  0.8485 -0.1946
   16CHL1   C15 1128   4.655  -0.088   9.425 -0.6360  0.1471  0.1838
   16CHL1  H15A 1129   4.688  -0.191   9.451 -0.4771 -0.0440 -0.7874
   16CHL1  H15B 1130   4.559  -0.077   9.481 -1.5362 -1.1097 -1.0877
   16CHL1   C16 1131   4.646  -0.061   9.272  0.6720 -0.8839  0.3524
   16CHL1  H16A 1132   4.672  -0.155   9.219  0.7356 -0.9211  0.4493
   16CHL1  H16B 1133   4.541  -0.036   9.245  0.6488 -0.9648  0.3691
   16CHL1   C17 1134   4.739   0.057   9.259  0.3905  0.4803  0.1133
   16CHL1   H17 1135   4.681   0.149   9.282  0.6448  0.9564 -1.1089
   16CHL1   C13 1136   4.851   0.042   9.369  0.2883  0.3054 -0.7561
   16CHL1   C18 1137   4.935  -0.083   9.331  0.3685 -0.7371 -1.0610
   16CHL1  H18A 1138   4.962  -0.102   9.225  0.7772 -1.0338 -0.9011
   16CHL1  H18B 1139   5.022  -0.084   9.399 -0.1418 -2.3420 -0.4215
   16CHL1  H18C 1140   4.880  -0.175   9.360 -0.1857  0.1313  0.7203
   16CHL1   C12 1141   4.937   0.164   9.407  0.0713 -0.2309  0.4284
   16CHL1  H12A 1142   5.011   0.182   9.326 -0.7564  3.9538  0.5193
   16CHL1  H12B 1143   4.867   0.250   9.412 -0.0546 -0.2811 -0.4304
   16CHL1   C11 1144   5.006   0.153   9.542 -0.2067 -0.5112 -0.1140
   16CHL1  H11A 1145   5.092   0.082   9.536  0.2809 -0.2320  2.8006
   16CHL1  H11B 1146   5.042   0.252   9.577 -1.3510 -0.3649  0.6716
   16CHL1    C9 1147   4.912   0.096   9.651 -0.4326  0.2475  0.1031
   16CHL1    H9 1148   4.837   0.176   9.671  0.7332  1.4915 -0.4153
   16CHL1   C10 1149   4.994   0.060   9.778 -0.5790 -0.1417  0.1341
   16CHL1   C19 1150   5.114  -0.032   9.750  0.4723 -0.5491  0.1966
   16CHL1  H19A 1151   5.154  -0.061   9.849  0.0489 -0.5533  0.3652
   16CHL1  H19B 1152   5.093  -0.124   9.691 -2.1859 -0.8577  1.5851
   16CHL1  H19C 1153   5.193   0.024   9.695  0.8865 -1.6252 -0.3307
   16CHL1    C1 1154   5.032   0.185   9.862  1.0694  0.0454  0.6149
   16CHL1   H1A 1155   5.093   0.257   9.803  0.3084  1.3140  1.3279
   16CHL1   H1B 1156   4.938   0.242   9.881  0.3882 -1.3768  1.5539
   16CHL1    C2 1157   5.089   0.158  10.002 -0.0357 -0.0541 -0.2562
   16CHL1   H2A 1158   5.108   0.256  10.052  0.0911 -0.7899  1.1688
   16CHL1   H2B 1159   5.183   0.099   9.996  0.4533  0.9578 -2.8203
   16CHL1   C20 1160   4.781   0.078   9.110  0.0388 -0.2705  0.3625
   16CHL1   H20 1161   4.854   0.005   9.071  0.9701 -0.8564  3.0763
   16CHL1   C21 1162   4.838   0.222   9.092  0.4646  0.0014  0.0971
   16CHL1  H21A 1163   4.753   0.293   9.105 -0.5673 -1.6440  2.6343
   16CHL1  H21B 1164   4.868   0.244   8.987 -0.7540 -1.0927 -0.4939
   16CHL1  H21C 1165   4.920   0.248   9.162  2.7678 -1.2345 -2.0773
   16CHL1   C22 1166   4.663   0.065   9.022 -0.1440  0.9666  0.4299
   16CHL1  H22A 1167   4.606  -0.030   9.029  0.7733  0.3286 -0.4742
   16CHL1  H22B 1168   4.586   0.145   9.032 -1.4703 -0.2409  0.0329
   16CHL1   C23 1169   4.704   0.051   8.868 -0.0632 -0.0574 -0.2849
   16CHL1  H23A 1170   4.744   0.150   8.838  2.9048 -1.4059 -0.9074
   16CHL1  H23B 1171   4.796  -0.008   8.850  1.0221  1.2113  0.9829
   16CHL1   C24 1172   4.589   0.021   8.771  0.0463  0.0293  0.4017
   16CHL1  H24A 1173   4.495   0.052   8.821 -2.4320 -2.6233 -2.4061
   16CHL1  H24B 1174   4.599   0.081   8.678 -0.9647 -0.3254  0.0541
   16CHL1   C25 1175   4.572  -0.127   8.737  0.3146  0.1952  0.1852
   16CHL1   H25 1176   4.557  -0.184   8.831  1.7122  0.8063  0.7951
   16CHL1   C26 1177   4.441  -0.149   8.659  0.5864  0.2479  0.0776
   16CHL1  H26A 1178   4.450  -0.089   8.566  1.3524 -0.2280 -0.1526
   16CHL1  H26B 1179   4.417  -0.255   8.636  0.8592  0.0994  0.4681
   16CHL1  H26C 1180   4.354  -0.105   8.713  1.0751 -0.0680  1.1492
   16CHL1   C27 1181   4.687  -0.173   8.647  0.5348  0.4481  0.4432
   16CHL1  H27A 1182   4.787  -0.196   8.692 -0.5143  0.0305  2.6482
   16CHL1  H27B 1183   4.660  -0.263   8.587  0.8020 -0.1663  1.2268
   16CHL1  H27C 1184   4.702  -0.088   8.578 -0.8817  0.8630  0.6377
   17CHL1    C3 1185   0.700   4.452  10.408  0.1990 -0.5190 -0.4122
   17CHL1    H3 1186   0.771   4.536  10.389 -2.5344  1.9861  0.1730
   17CHL1    O3 1187   0.667   4.462  10.544  0.4544 -0.3457  0.4744
   17CHL1   H3' 1188   0.588   4.411  10.562 -0.0721  0.2573 -0.0986
   17CHL1    C4 1189   0.575   4.489  10.330 -0.3551 -0.8435  0.2529
   17CHL1   H4A 1190   0.496   4.424  10.372  0.6017 -0.7809  2.2206
   17CHL1   H4B 1191   0.553   4.592  10.365 -3.3036 -1.3726  0.0970
   17CHL1    C5 1192   0.598   4.468  10.181 -0.2427 -0.0445 -0.0777
   17CHL1    C6 1193   0.564   4.568  10.091 -0.2916  0.1713  0.2802
   17CHL1    H6 1194   0.521   4.661  10.131  1.5584  1.3510 -0.3744
   17CHL1    C7 1195   0.568   4.554   9.940  0.2287  0.1452 -0.3651
   17CHL1   H7A 1196   0.475   4.599   9.899  0.3274  0.6225 -0.0692
   17CHL1   H7B 1197   0.660   4.598   9.898 -0.1048  1.0225 -0.1982
   17CHL1    C8 1198   0.577   4.400   9.904 -0.1934 -0.4822  0.2596
   17CHL1    H8 1199   0.472   4.365   9.915 -0.4871 -0.3706 -1.9451
   17CHL1   C14 1200   0.618   4.382   9.759  0.3559  0.0578  0.0861
   17CHL1   H14 1201   0.720   4.425   9.745  0.7914 -0.8735  0.3409
   17CHL1   C15 1202   0.530   4.454   9.653  0.1325 -0.0295  0.4551
   17CHL1  H15A 1203   0.421   4.439   9.668 -0.0386 -1.5712 -2.0330
   17CHL1  H15B 1204   0.553   4.562   9.656 -1.3950  0.3565 -1.1994
   17CHL1   C16 1205   0.571   4.384   9.521  0.3374  0.0110 -0.3059
   17CHL1  H16A 1206   0.480   4.353   9.465  2.5124 -3.4077 -2.1510
   17CHL1  H16B 1207   0.633   4.459   9.469 -1.4357  1.0330 -0.9831
   17CHL1   C17 1208   0.658   4.260   9.559 -0.1383  0.4210 -0.7405
   17CHL1   H17 1209   0.766   4.288   9.551  0.4972 -1.0064  1.9675
   17CHL1   C13 1210   0.635   4.243   9.711  0.0519 -0.0806  0.0072
   17CHL1   C18 1211   0.498   4.158   9.723 -0.4752  0.3662 -0.0143
   17CHL1  H18A 1212   0.458   4.184   9.823 -0.7885  0.0579 -0.0584
   17CHL1  H18B 1213   0.423   4.181   9.644  0.5419  1.2601 -0.7259
   17CHL1  H18C 1214   0.524   4.050   9.716  0.9798  0.6576  0.7242
   17CHL1   C12 1215   0.744   4.176   9.793  0.6087  0.3465  0.4635
   17CHL1  H12A 1216   0.756   4.071   9.761  0.7194 -0.3167  2.6738
   17CHL1  H12B 1217   0.827   4.248   9.774 -0.3617  1.4297  0.2113
   17CHL1   C11 1218   0.708   4.175   9.941 -0.7304  0.0102  0.4614
   17CHL1  H11A 1219   0.621   4.106   9.952 -2.0572  1.5871  0.0201
   17CHL1  H11B 1220   0.800   4.135   9.988 -0.4436 -1.1514 -1.0164
   17CHL1    C9 1221   0.676   4.319   9.992 -0.6745 -0.0918  0.6514
   17CHL1    H9 1222   0.770   4.375   9.977 -0.4522 -0.0220  2.2561
   17CHL1   C10 1223   0.656   4.324  10.143  0.3274  0.3022 -0.1656
   17CHL1   C19 1224   0.539   4.225  10.176  0.5373 -0.2843 -0.2003
   17CHL1  H19A 1225   0.453   4.241  10.107  0.6465  0.2846 -0.2033
   17CHL1  H19B 1226   0.571   4.120  10.163  2.7734  0.2748  0.6340
   17CHL1  H19C 1227   0.505   4.242  10.280  0.0742 -0.9642 -0.2406
   17CHL1    C1 1228   0.782   4.294  10.229 -0.1460  0.2764  0.3864
   17CHL1   H1A 1229   0.822   4.193  10.206 -0.4515 -0.6177  3.5455
   17CHL1   H1B 1230   0.857   4.372  10.206 -1.1749  0.4945 -2.3437
   17CHL1    C2 1231   0.759   4.314  10.382  0.0343  0.1934  0.2815
   17CHL1   H2A 1232   0.860   4.309  10.428  0.7071  0.6244 -1.1406
   17CHL1   H2B 1233   0.699   4.234  10.432  0.8497  0.1879  1.2682
   17CHL1   C20 1234   0.644   4.137   9.465 -0.5051 -0.1310  0.3740
   17CHL1   H20 1235   0.538   4.105   9.474 -0.3383 -0.7352  0.2260
   17CHL1   C21 1236   0.739   4.017   9.505  0.6366 -0.2110 -0.6870
   17CHL1  H21A 1237   0.697   3.963   9.592  1.4103  2.3754  1.3491
   17CHL1  H21B 1238   0.844   4.051   9.510  0.2620  0.8976 -0.1271
   17CHL1  H21C 1239   0.741   3.945   9.420  1.4276  1.1402 -1.8376
   17CHL1   C22 1240   0.657   4.189   9.314 -0.0820  0.2651  0.8408
   17CHL1  H22A 1241   0.614   4.290   9.296  0.7743  0.7528  1.4895
   17CHL1  H22B 1242   0.768   4.199   9.310  0.0337 -1.1243  0.1118
   17CHL1   C23 1243   0.607   4.085   9.204 -0.1320 -0.5185 -0.7877
   17CHL1  H23A 1244   0.634   3.979   9.219 -2.4709 -0.7749  2.1213
   17CHL1  H23B 1245   0.496   4.083   9.205 -0.1920  1.7953 -0.5799
   17CHL1   C24 1246   0.660   4.134   9.072 -0.1173 -1.0142 -0.2957
   17CHL1  H24A 1247   0.655   4.245   9.071  0.7537 -0.9523  0.7273
   17CHL1  H24B 1248   0.766   4.100   9.071  0.3634  0.2560  2.6122
   17CHL1   C25 1249   0.582   4.088   8.949 -0.8955  0.8658  0.5640
   17CHL1   H25 1250   0.477   4.125   8.955 -0.3447  3.1278 -2.5328
   17CHL1   C26 1251   0.643   4.149   8.817  0.2082  0.1241  0.4581
   17CHL1  H26A 1252   0.654   4.260   8.811  1.5938 -0.0271  0.0449
   17CHL1  H26B 1253   0.747   4.110   8.816  0.1136 -0.1613  1.5137
   17CHL1  H26C 1254   0.584   4.108   8.732  0.4201 -1.5302  1.0952
   17CHL1   C27 1255   0.571   3.935   8.933  0.4744 -0.1190  0.2083
   17CHL1  H27A 1256   0.669   3.884   8.937  1.7529  2.3662  4.3506
   17CHL1  H27B 1257   0.509   3.896   9.017  1.0868  0.4072  0.9171
   17CHL1  H27C 1258   0.531   3.922   8.830  1.1267  0.8409 -0.1707
   18CHL1    C3 1259   6.682   2.907  10.063 -0.6557  0.6106 -0.1168
   18CHL1    H3 1260   6.758   2.968  10.010 -1.8168  0.7867 -1.5990
   18CHL1    O3 1261   6.671   2.940  10.205 -0.3741  0.0992 -0.4355
   18CHL1   H3' 1262   6.721   3.020  10.224  0.3895 -0.3357 -0.6168
   18CHL1    C4 1263   6.543   2.909  10.000  0.1663  0.5967  0.0984
   18CHL1   H4A 1264   6.469   2.836  10.040  1.9020 -1.6341 -0.6830
   18CHL1   H4B 1265   6.514   3.016  10.005  5.0996  2.1416 -1.1650
   18CHL1    C5 1266   6.551   2.872   9.857 -0.8360  0.3824 -0.2623
   18CHL1    C6 1267   6.496   2.949   9.757 -0.4381 -0.3189  0.3924
   18CHL1    H6 1268   6.444   3.042   9.782 -0.4881  0.2775 -1.8930
   18CHL1    C7 1269   6.500   2.920   9.607  0.4626  0.7833 -0.3840
   18CHL1   H7A 1270   6.406   2.954   9.558  0.4919 -0.7541 -1.5325
   18CHL1   H7B 1271   6.589   2.975   9.569  0.5225  0.2041 -1.0762
   18CHL1    C8 1272   6.522   2.770   9.576 -0.0382  0.1469  0.5415
   18CHL1    H8 1273   6.436   2.706   9.603 -0.1346 -0.4172 -1.0980
   18CHL1   C14 1274   6.556   2.745   9.422 -0.3369  0.2521 -0.0893
   18CHL1   H14 1275   6.656   2.791   9.406 -0.7271  1.1073 -0.0803
   18CHL1   C15 1276   6.452   2.792   9.314 -0.0687  0.8601  0.0030
   18CHL1  H15A 1277   6.355   2.759   9.357 -0.2242  0.4488 -0.6612
   18CHL1  H15B 1278   6.450   2.902   9.297 -1.4678  0.5143 -2.3938
   18CHL1   C16 1279   6.502   2.732   9.183 -0.3284  0.1885  0.2556
   18CHL1  H16A 1280   6.408   2.695   9.136 -2.0234  1.7631  2.3390
   18CHL1  H16B 1281   6.548   2.811   9.120  0.2118  0.7936  1.3825
   18CHL1   C17 1282   6.609   2.625   9.225 -0.9100 -0.0597 -0.2537
   18CHL1   H17 1283   6.708   2.676   9.225  1.4214 -4.3521 -0.9097
   18CHL1   C13 1284   6.581   2.603   9.380 -0.2579 -0.5430  0.8017
   18CHL1   C18 1285   6.464   2.508   9.396  1.1171 -0.2680  0.0575
   18CHL1  H18A 1286   6.484   2.404   9.364 -1.3088 -0.9972  0.8648
   18CHL1  H18B 1287   6.429   2.496   9.501 -1.8300 -0.2559 -0.9042
   18CHL1  H18C 1288   6.379   2.531   9.329  2.1859  1.8894 -0.6225
   18CHL1   C12 1289   6.704   2.548   9.461 -0.0537  0.2827  0.1277
   18CHL1  H12A 1290   6.716   2.438   9.450 -1.2645  0.2352 -0.8800
   18CHL1  H12B 1291   6.794   2.601   9.423 -0.5295 -0.0461 -1.5308
   18CHL1   C11 1292   6.685   2.570   9.616 -0.1270 -0.0463 -0.4535
   18CHL1  H11A 1293   6.602   2.500   9.639  0.5107 -0.2738  1.2536
   18CHL1  H11B 1294   6.781   2.535   9.661  1.6904  2.5952 -2.1276
   18CHL1    C9 1295   6.642   2.717   9.658 -0.1751  0.0640  0.3450
   18CHL1    H9 1296   6.730   2.781   9.637  0.0948  0.0667  1.4253
   18CHL1   C10 1297   6.615   2.733   9.814  0.0855 -0.4810  0.1775
   18CHL1   C19 1298   6.530   2.617   9.857 -0.0907 -0.6470  0.4529
   18CHL1  H19A 1299   6.504   2.631   9.964 -0.4764  2.3775 -0.0065
   18CHL1  H19B 1300   6.436   2.611   9.799  1.1576 -0.1579 -1.6855
   18CHL1  H19C 1301   6.579   2.518   9.838  1.0695  0.5472 -3.1834
   18CHL1    C1 1302   6.746   2.730   9.894 -0.3179  0.2709  0.7707
   18CHL1   H1A 1303   6.788   2.629   9.879  0.9057  0.8605  0.1815
   18CHL1   H1B 1304   6.817   2.801   9.847 -0.1667 -1.2477 -1.3427
   18CHL1    C2 1305   6.740   2.769  10.044  0.2632 -0.3431 -0.1572
   18CHL1   H2A 1306   6.845   2.759  10.079  0.8867 -0.3444 -1.9599
   18CHL1   H2B 1307   6.670   2.708  10.105 -0.0870  0.2041 -0.0037
   18CHL1   C20 1308   6.620   2.493   9.142 -0.1603  0.2566 -0.3129
   18CHL1   H20 1309   6.521   2.444   9.138 -0.7925  1.4536  0.5593
   18CHL1   C21 1310   6.748   2.405   9.170 -0.0905 -0.4745 -0.3437
   18CHL1  H21A 1311   6.835   2.469   9.197 -0.9819 -0.2644  2.1955
   18CHL1  H21B 1312   6.770   2.330   9.091  0.2614 -1.0709  0.3092
   18CHL1  H21C 1313   6.725   2.349   9.264  0.2288  2.2500  1.4219
   18CHL1   C22 1314   6.628   2.538   8.989 -1.2143  0.4995  0.3137
   18CHL1  H22A 1315   6.552   2.615   8.963 -0.7513  0.3487 -1.4813
   18CHL1  H22B 1316   6.730   2.581   8.980  0.1209 -1.9300  3.0968
   18CHL1   C23 1317   6.622   2.426   8.879  0.0855 -1.3174  0.3148
   18CHL1  H23A 1318   6.702   2.352   8.896  2.5462  0.5595 -2.5656
   18CHL1  H23B 1319   6.526   2.371   8.888 -0.5252 -0.5894 -1.3608
   18CHL1   C24 1320   6.655   2.481   8.736  0.2108  0.7441 -0.1109
   18CHL1  H24A 1321   6.597   2.573   8.715 -2.6067 -1.1155 -0.7618
   18CHL1  H24B 1322   6.764   2.500   8.728  0.4753 -0.4046  0.6884
   18CHL1   C25 1323   6.625   2.390   8.611  0.7155  0.2768 -0.6082
   18CHL1   H25 1324   6.659   2.284   8.620  0.1016  0.1222 -0.0904
   18CHL1   C26 1325   6.470   2.376   8.581  0.1896  0.1451 -0.3459
   18CHL1  H26A 1326   6.440   2.308   8.664  0.8208  0.7693  0.3955
   18CHL1  H26B 1327   6.414   2.473   8.582  1.0561  0.6446  2.0964
   18CHL1  H26C 1328   6.446   2.330   8.483  1.2784  3.6765 -2.3555
   18CHL1   C27 1329   6.699   2.452   8.487 -0.2677 -0.1475 -0.5578
   18CHL1  H27A 1330   6.808   2.469   8.502 -0.5870  0.8556  0.7530
   18CHL1  H27B 1331   6.696   2.384   8.399  2.8585 -0.0645 -0.7808
   18CHL1  H27C 1332   6.650   2.549   8.466 -1.0242 -0.1110  1.2986
   19CHL1    C3 1333   3.718   6.292  10.033  0.0844  0.3462 -0.3650
   19CHL1    H3 1334   3.736   6.401  10.026 -0.9030  0.7809  3.1608
   19CHL1    O3 1335   3.705   6.258  10.168 -0.1537  0.2102  0.2312
   19CHL1   H3' 1336   3.664   6.171  10.169  1.1247 -0.4131 -0.3719
   19CHL1    C4 1337   3.587   6.274   9.952  0.5696  0.3338 -0.5408
   19CHL1   H4A 1338   3.560   6.169   9.978 -1.7080  1.6310  2.5122
   19CHL1   H4B 1339   3.509   6.337   9.998 -1.6662 -0.9837 -2.3859
   19CHL1    C5 1340   3.597   6.299   9.797  0.4717  0.1488 -0.3393
   19CHL1    C6 1341   3.510   6.374   9.724 -0.2812  0.2132 -0.0819
   19CHL1    H6 1342   3.433   6.435   9.773 -0.2392  1.1340 -1.1350
   19CHL1    C7 1343   3.514   6.371   9.570  0.3100  0.6041 -0.1815
   19CHL1   H7A 1344   3.411   6.344   9.536 -0.2124  2.5912 -0.2602
   19CHL1   H7B 1345   3.530   6.474   9.533  2.0307  0.1045 -0.8910
   19CHL1    C8 1346   3.623   6.274   9.503 -0.5158 -0.5143  0.6128
   19CHL1    H8 1347   3.573   6.175   9.496 -1.4772  0.0036  0.0632
   19CHL1   C14 1348   3.648   6.306   9.353  0.0994 -0.0284 -0.2968
   19CHL1   H14 1349   3.693   6.408   9.354  0.5483 -0.2205 -0.8221
   19CHL1   C15 1350   3.531   6.312   9.256 -0.8614 -0.8019  0.1367
   19CHL1  H15A 1351   3.478   6.215   9.260  0.3287 -1.4024  2.1982
   19CHL1  H15B 1352   3.460   6.394   9.282 -0.5640 -0.7029  0.6485
   19CHL1   C16 1353   3.596   6.332   9.116  0.6248  0.5214 -0.2211
   19CHL1  H16A 1354   3.560   6.249   9.053 -0.6992 -0.3331  1.5981
   19CHL1  H16B 1355   3.590   6.432   9.069  0.9729  0.5094 -0.2939
   19CHL1   C17 1356   3.752   6.302   9.141 -0.7478 -0.3859  0.0366
   19CHL1   H17 1357   3.794   6.400   9.172  0.8436 -1.3541  1.0526
   19CHL1   C13 1358   3.757   6.222   9.280  0.4769  0.1055 -0.5524
   19CHL1   C18 1359   3.712   6.072   9.269 -0.6072 -0.0254  0.3524
   19CHL1  H18A 1360   3.638   6.055   9.188 -1.0259  1.1414  0.4874
   19CHL1  H18B 1361   3.806   6.012   9.258 -0.5784  0.3169 -1.4911
   19CHL1  H18C 1362   3.670   6.021   9.358 -2.7335 -0.9496 -1.1255
   19CHL1   C12 1363   3.887   6.228   9.366 -0.8327  0.2318  0.3843
   19CHL1  H12A 1364   3.964   6.161   9.322 -0.8422  1.1864 -1.0952
   19CHL1  H12B 1365   3.923   6.333   9.370 -0.0210  0.0116 -0.8809
   19CHL1   C11 1366   3.860   6.182   9.509 -0.3950 -0.2588 -0.2225
   19CHL1  H11A 1367   3.843   6.072   9.512 -1.2183 -0.0976  1.6930
   19CHL1  H11B 1368   3.958   6.190   9.561 -0.0079 -2.9361 -0.4800
   19CHL1    C9 1369   3.743   6.257   9.583  0.1062 -0.9905  0.5599
   19CHL1    H9 1370   3.779   6.362   9.585 -0.8269 -0.6301 -0.6621
   19CHL1   C10 1371   3.713   6.215   9.729 -0.0475 -0.3817 -0.0236
   19CHL1   C19 1372   3.664   6.066   9.736  0.5755  0.3547  0.0124
   19CHL1  H19A 1373   3.743   5.993   9.708  1.7556  2.5295 -2.6805
   19CHL1  H19B 1374   3.619   6.036   9.832  0.8792  0.1589  0.0947
   19CHL1  H19C 1375   3.592   6.073   9.652  0.7442 -0.3231 -0.1915
   19CHL1    C1 1376   3.846   6.230   9.814  0.4662  0.1115  0.1545
   19CHL1   H1A 1377   3.922   6.152   9.790 -1.0596 -0.9635 -1.3648
   19CHL1   H1B 1378   3.889   6.332   9.806  1.1574 -0.2376 -0.7037
   19CHL1    C2 1379   3.826   6.207   9.961 -0.0429  0.4946 -0.1660
   19CHL1   H2A 1380   3.923   6.222  10.013 -0.8972  0.7244  1.4137
   19CHL1   H2B 1381   3.792   6.102   9.972  1.1236  0.2531  1.2852
   19CHL1   C20 1382   3.832   6.241   9.017  0.3499  0.2674  0.3022
   19CHL1   H20 1383   3.800   6.136   9.004  0.6147  0.0790  1.1297
   19CHL1   C21 1384   3.984   6.237   9.051 -0.1910  0.2246  0.1837
   19CHL1  H21A 1385   4.017   6.331   9.098 -0.0989 -1.2643  3.1843
   19CHL1  H21B 1386   4.035   6.212   8.955  0.5165  0.9672  0.3650
   19CHL1  H21C 1387   3.997   6.156   9.126 -1.0264  0.5435  0.6771
   19CHL1   C22 1388   3.802   6.309   8.884 -0.2709 -0.6607  0.1458
   19CHL1  H22A 1389   3.870   6.263   8.809  2.3940  1.3511  1.2339
   19CHL1  H22B 1390   3.694   6.291   8.865 -0.2581 -1.7204  1.0252
   19CHL1   C23 1391   3.829   6.464   8.881  0.2898  0.2114  0.0234
   19CHL1  H23A 1392   3.771   6.525   8.953  1.5335 -0.6455  1.7899
   19CHL1  H23B 1393   3.938   6.475   8.894  0.1220  2.3586 -0.3051
   19CHL1   C24 1394   3.804   6.525   8.739 -0.1863 -0.0311 -0.4084
   19CHL1  H24A 1395   3.846   6.451   8.668 -1.1960  0.6240 -1.6997
   19CHL1  H24B 1396   3.693   6.524   8.740 -0.1911 -1.1224  2.7336
   19CHL1   C25 1397   3.860   6.668   8.707 -0.5005  0.0244 -0.4505
   19CHL1   H25 1398   3.971   6.660   8.713 -0.4130  1.7975  0.6703
   19CHL1   C26 1399   3.825   6.718   8.563  0.3144 -0.3564  0.4302
   19CHL1  H26A 1400   3.717   6.743   8.562  0.3837 -0.0622 -0.7674
   19CHL1  H26B 1401   3.886   6.806   8.534  1.6751 -1.6539 -0.8115
   19CHL1  H26C 1402   3.838   6.630   8.495  1.6365  1.4042 -1.6656
   19CHL1   C27 1403   3.823   6.767   8.817  0.8906  0.2670  0.2341
   19CHL1  H27A 1404   3.863   6.870   8.806  2.3669 -0.2132  0.9933
   19CHL1  H27B 1405   3.713   6.787   8.817  0.8263 -0.0689  1.3654
   19CHL1  H27C 1406   3.839   6.740   8.923  0.6147 -1.3262 -0.1158
   20CHL1    C3 1407   5.870   6.514  10.215  0.3173 -0.6828 -1.3093
   20CHL1    H3 1408   5.781   6.447  10.205 -0.5711  0.3654 -0.6025
   20CHL1    O3 1409   5.905   6.507  10.350 -0.3004  0.0748 -0.0214
   20CHL1   H3' 1410   5.988   6.554  10.354  0.1999 -0.7829 -0.0550
   20CHL1    C4 1411   5.983   6.462  10.123  0.1495  0.0811 -0.0142
   20CHL1   H4A 1412   6.077   6.515  10.149  1.5745 -1.8156 -1.1137
   20CHL1   H4B 1413   5.998   6.353  10.143  2.8038  0.9035  2.9220
   20CHL1    C5 1414   5.955   6.496   9.973  0.1692  0.6149 -0.2488
   20CHL1    C6 1415   5.962   6.400   9.877 -0.0710 -0.2344 -0.4449
   20CHL1    H6 1416   5.997   6.302   9.912 -0.8213 -0.6478 -0.8506
   20CHL1    C7 1417   5.941   6.412   9.729 -0.0399 -0.9000 -0.3767
   20CHL1   H7A 1418   6.027   6.359   9.683  1.8108  0.8769  0.8821
   20CHL1   H7B 1419   5.848   6.360   9.700  0.2388 -1.3846 -0.4017
   20CHL1    C8 1420   5.937   6.568   9.689 -1.1109  0.4830  0.0928
   20CHL1    H8 1421   6.044   6.598   9.694 -0.2100 -2.7860  2.2159
   20CHL1   C14 1422   5.866   6.582   9.555 -0.1601 -0.1057 -0.2342
   20CHL1   H14 1423   5.760   6.563   9.584 -1.0237  2.1444 -1.7623
   20CHL1   C15 1424   5.910   6.495   9.432  0.2619  0.2992  0.0632
   20CHL1  H15A 1425   6.020   6.482   9.439  0.5269  2.5502  0.4926
   20CHL1  H15B 1426   5.848   6.403   9.436  0.6304  0.0966  1.1962
   20CHL1   C16 1427   5.874   6.572   9.309 -0.4430 -0.2181 -0.1549
   20CHL1  H16A 1428   5.962   6.593   9.245 -0.9215 -0.5510 -0.9378
   20CHL1  H16B 1429   5.798   6.519   9.247 -1.6874 -1.4992  2.3695
   20CHL1   C17 1430   5.815   6.708   9.358  0.0089  0.1939  0.2791
   20CHL1   H17 1431   5.707   6.694   9.378  0.1136 -1.4317 -0.1658
   20CHL1   C13 1432   5.876   6.725   9.498  0.0104  0.2076 -0.0549
   20CHL1   C18 1433   6.029   6.752   9.476 -0.1471 -0.3238 -0.0081
   20CHL1  H18A 1434   6.083   6.758   9.573  0.1524  0.0873 -0.2002
   20CHL1  H18B 1435   6.078   6.677   9.411 -0.9005 -0.8868  0.0625
   20CHL1  H18C 1436   6.052   6.848   9.426  3.2506 -1.2291 -0.2974
   20CHL1   C12 1437   5.801   6.820   9.599  0.2641 -0.1568  0.0819
   20CHL1  H12A 1438   5.813   6.928   9.575 -0.8660 -0.3173 -1.2534
   20CHL1  H12B 1439   5.691   6.804   9.601  0.4210 -1.3993 -0.8719
   20CHL1   C11 1440   5.870   6.800   9.739 -0.3777  0.1517  0.0136
   20CHL1  H11A 1441   5.972   6.841   9.724 -1.2935  2.1278 -0.9539
   20CHL1  H11B 1442   5.801   6.861   9.801 -1.8685  0.1736 -1.6365
   20CHL1    C9 1443   5.862   6.652   9.795 -0.2957 -0.5523  0.1836
   20CHL1    H9 1444   5.757   6.618   9.806  0.1262 -2.4097 -1.2771
   20CHL1   C10 1445   5.910   6.640   9.941 -0.4456 -0.1667  1.1758
   20CHL1   C19 1446   6.032   6.743   9.952  0.6806  0.0807 -0.2001
   20CHL1  H19A 1447   5.996   6.846   9.972  0.8595 -0.1471  1.3421
   20CHL1  H19B 1448   6.086   6.724  10.047 -0.3670 -0.9693  0.1974
   20CHL1  H19C 1449   6.100   6.728   9.865  0.5286 -0.9074 -0.1567
   20CHL1    C1 1450   5.799   6.685  10.032 -0.3983 -0.2998 -0.5234
   20CHL1   H1A 1451   5.788   6.795  10.020  0.4865  0.1299  2.2760
   20CHL1   H1B 1452   5.701   6.641  10.002  1.2615 -3.1358 -2.0533
   20CHL1    C2 1453   5.837   6.660  10.183  0.1905 -0.0465  0.2104
   20CHL1   H2A 1454   5.757   6.696  10.251 -0.6318 -0.3968 -0.5551
   20CHL1   H2B 1455   5.926   6.721  10.211  0.2804  0.1870 -0.5729
   20CHL1   C20 1456   5.828   6.822   9.253  0.0958 -0.2248 -0.1717
   20CHL1   H20 1457   5.935   6.845   9.235  0.3026  0.8225  2.2174
   20CHL1   C21 1458   5.774   6.961   9.306 -0.1883  0.3709 -0.3744
   20CHL1  H21A 1459   5.671   6.958   9.349  0.6397  1.2420  1.7128
   20CHL1  H21B 1460   5.779   7.042   9.230  2.0162  1.0834  0.4931
   20CHL1  H21C 1461   5.842   7.004   9.383 -1.4363  1.1721  0.3014
   20CHL1   C22 1462   5.757   6.782   9.116  0.3707  0.5884 -1.2475
   20CHL1  H22A 1463   5.791   6.683   9.077 -1.4831 -0.8010  0.5793
   20CHL1  H22B 1464   5.651   6.758   9.139  0.5259  0.0474 -1.0851
   20CHL1   C23 1465   5.774   6.887   9.000 -0.0760 -0.0393  0.1872
   20CHL1  H23A 1466   5.717   6.853   8.911  0.3314  0.8287 -0.4159
   20CHL1  H23B 1467   5.726   6.975   9.048  0.7920  0.2782  0.4825
   20CHL1   C24 1468   5.920   6.897   8.959 -0.3130 -1.0154 -0.0762
   20CHL1  H24A 1469   5.966   6.951   9.044  1.3275 -1.9482 -0.3673
   20CHL1  H24B 1470   5.972   6.799   8.955  1.5688 -0.2726  3.6773
   20CHL1   C25 1471   5.923   6.980   8.823 -0.4305 -0.3230 -0.2000
   20CHL1   H25 1472   5.861   6.925   8.750 -0.3581  0.3576 -0.7764
   20CHL1   C26 1473   5.870   7.126   8.841  0.5139 -0.2004 -0.1779
   20CHL1  H26A 1474   5.771   7.139   8.890  0.7612 -1.8563  0.7958
   20CHL1  H26B 1475   5.931   7.186   8.912  1.4781 -1.7986  0.3754
   20CHL1  H26C 1476   5.886   7.178   8.745  2.0629 -0.2700  0.0246
   20CHL1   C27 1477   6.074   6.979   8.776  0.1794  0.4743  0.3585
   20CHL1  H27A 1478   6.099   7.031   8.681  2.1115 -3.3827 -1.3552
   20CHL1  H27B 1479   6.132   7.030   8.856 -0.3199  1.1801  0.2735
   20CHL1  H27C 1480   6.108   6.875   8.758 -0.3293 -0.2366  3.2411
   21CHL1    C3 1481   5.857   3.218  10.351  0.0346  1.8276 -0.1176
   21CHL1    H3 1482   5.962   3.230  10.319  0.6667 -2.9192 -0.1036
   21CHL1    O3 1483   5.849   3.222  10.494  0.2052 -0.8116 -0.4561
   21CHL1   H3' 1484   5.769   3.172  10.511 -0.2547 -0.1256 -0.5717
   21CHL1    C4 1485   5.767   3.330  10.280 -0.1697 -0.5749 -0.5903
   21CHL1   H4A 1486   5.673   3.335  10.339 -0.3059  1.3317 -0.9333
   21CHL1   H4B 1487   5.820   3.425  10.303 -1.6168 -0.1216  0.9746
   21CHL1    C5 1488   5.745   3.305  10.135  0.3936  0.3998 -0.5512
   21CHL1    C6 1489   5.764   3.401  10.048 -0.5043  0.7393  0.5294
   21CHL1    H6 1490   5.808   3.498  10.076  1.6694  0.0287 -0.2790
   21CHL1    C7 1491   5.753   3.376   9.897 -0.2087 -0.5552 -0.3222
   21CHL1   H7A 1492   5.719   3.464   9.838  0.2967 -0.3128 -0.2569
   21CHL1   H7B 1493   5.858   3.359   9.865 -0.8047 -1.7696 -1.6756
   21CHL1    C8 1494   5.670   3.254   9.859  0.5308  0.3763 -0.6094
   21CHL1    H8 1495   5.561   3.271   9.873  0.7910  1.1860  0.4751
   21CHL1   C14 1496   5.687   3.223   9.706  0.7027  0.2963 -0.5052
   21CHL1   H14 1497   5.796   3.207   9.696  1.0342  2.4309 -0.4798
   21CHL1   C15 1498   5.661   3.328   9.595  0.2943  0.9694 -0.0657
   21CHL1  H15A 1499   5.564   3.380   9.613 -0.3376 -0.2590  0.0800
   21CHL1  H15B 1500   5.729   3.416   9.596  1.2575  0.2354 -0.1693
   21CHL1   C16 1501   5.656   3.249   9.463  0.2474 -0.1812 -0.0146
   21CHL1  H16A 1502   5.572   3.272   9.394 -0.1840  3.8952  1.7050
   21CHL1  H16B 1503   5.754   3.262   9.413 -0.1198  1.5303 -0.3337
   21CHL1   C17 1504   5.645   3.098   9.501 -0.5136  0.2150  0.5988
   21CHL1   H17 1505   5.750   3.064   9.505 -0.4542 -0.0510 -2.2248
   21CHL1   C13 1506   5.609   3.100   9.661  0.6839  0.5056  0.1013
   21CHL1   C18 1507   5.455   3.119   9.678  0.1456  0.3944 -0.1174
   21CHL1  H18A 1508   5.413   3.183   9.597 -0.1743  0.0021 -0.2631
   21CHL1  H18B 1509   5.403   3.022   9.689  1.0106 -0.1154 -0.4908
   21CHL1  H18C 1510   5.432   3.173   9.773  2.2315  1.2115 -0.0518
   21CHL1   C12 1511   5.656   2.978   9.733  0.0022  0.0833  0.0096
   21CHL1  H12A 1512   5.600   2.884   9.714  0.3133 -0.4046  1.4485
   21CHL1  H12B 1513   5.762   2.950   9.713 -0.1549 -0.3238 -0.2455
   21CHL1   C11 1514   5.645   2.997   9.882 -0.3123  0.3408  0.3860
   21CHL1  H11A 1515   5.537   2.999   9.907 -0.9621  2.3235 -2.3191
   21CHL1  H11B 1516   5.690   2.918   9.945 -1.3910 -0.1054  0.6067
   21CHL1    C9 1517   5.706   3.134   9.942 -0.4683  0.1047 -0.3061
   21CHL1    H9 1518   5.815   3.119   9.924 -0.9206 -2.1114 -1.3048
   21CHL1   C10 1519   5.700   3.164  10.097  0.2285  0.1658 -0.0365
   21CHL1   C19 1520   5.556   3.133  10.152  0.5098 -0.4737 -0.1508
   21CHL1  H19A 1521   5.536   3.029  10.120  1.0131 -0.5764 -0.1269
   21CHL1  H19B 1522   5.545   3.140  10.262 -2.0402  0.2869 -0.4149
   21CHL1  H19C 1523   5.483   3.204  10.106 -0.3468 -2.0561 -1.2715
   21CHL1    C1 1524   5.801   3.057  10.155  0.9242 -0.3089 -0.3548
   21CHL1   H1A 1525   5.759   2.955  10.138  2.9424 -1.0543 -0.9781
   21CHL1   H1B 1526   5.899   3.079  10.108  0.7408 -1.6501 -1.3873
   21CHL1    C2 1527   5.815   3.072  10.308  0.0501  0.1565  0.3762
   21CHL1   H2A 1528   5.893   2.997  10.334  1.6444  0.9529 -1.9797
   21CHL1   H2B 1529   5.712   3.049  10.344 -0.1238  0.1312 -0.1306
   21CHL1   C20 1530   5.561   3.007   9.406  0.5278 -0.3011  0.3572
   21CHL1   H20 1531   5.453   3.026   9.424 -0.4618 -2.9066 -2.3693
   21CHL1   C21 1532   5.586   2.866   9.445 -0.3032 -0.4107  0.7471
   21CHL1  H21A 1533   5.691   2.837   9.467  0.0589  0.1803 -0.1991
   21CHL1  H21B 1534   5.554   2.800   9.362  0.7461  1.3776 -1.1096
   21CHL1  H21C 1535   5.529   2.822   9.530 -1.4845 -0.8684 -0.2793
   21CHL1   C22 1536   5.599   3.019   9.257 -0.0481 -0.3000  0.3994
   21CHL1  H22A 1537   5.623   3.125   9.232 -1.7181  0.4639  1.9394
   21CHL1  H22B 1538   5.694   2.963   9.257  0.4581  0.5491  0.9763
   21CHL1   C23 1539   5.487   2.967   9.164  0.3388 -0.5108 -0.0040
   21CHL1  H23A 1540   5.454   2.867   9.199 -0.5042  0.2436  1.4218
   21CHL1  H23B 1541   5.404   3.040   9.154  1.7294  1.1417  0.1267
   21CHL1   C24 1542   5.539   2.952   9.017 -0.4392  0.2045  0.0097
   21CHL1  H24A 1543   5.451   2.978   8.955 -1.2283  0.1822  1.0977
   21CHL1  H24B 1544   5.618   3.026   8.997  0.0051  0.7906  3.6198
   21CHL1   C25 1545   5.592   2.808   8.984 -0.9822  0.6874  1.4997
   21CHL1   H25 1546   5.637   2.762   9.075 -1.0212 -0.9773  0.7000
   21CHL1   C26 1547   5.483   2.707   8.942 -0.5484  0.0542  0.4460
   21CHL1  H26A 1548   5.392   2.715   9.006 -0.6188 -0.2846  0.3920
   21CHL1  H26B 1549   5.462   2.720   8.834  2.2646  1.8354  0.0658
   21CHL1  H26C 1550   5.509   2.599   8.955 -1.4804 -0.2844 -0.4767
   21CHL1   C27 1551   5.693   2.812   8.868 -0.8830 -0.1013  0.4216
   21CHL1  H27A 1552   5.660   2.848   8.769  0.8075 -1.0522 -0.5052
   21CHL1  H27B 1553   5.784   2.860   8.909 -0.6769 -0.8417  0.8369
   21CHL1  H27C 1554   5.729   2.710   8.842  1.7540  0.3743  2.0653
   22CHL1    C3 1555   5.356   4.147  10.334  0.0108  0.1126 -0.9481
   22CHL1    H3 1556   5.452   4.095  10.353 -1.5298 -2.3711  0.3186
   22CHL1    O3 1557   5.298   4.171  10.462  0.8039  0.4302 -0.0218
   22CHL1   H3' 1558   5.203   4.172  10.448  0.0955  3.3905  4.0696
   22CHL1    C4 1559   5.378   4.282  10.272 -0.8059 -0.2044  0.4700
   22CHL1   H4A 1560   5.285   4.343  10.282 -0.7636  0.2688 -1.7841
   22CHL1   H4B 1561   5.450   4.327  10.344 -1.1075  2.5270 -0.8885
   22CHL1    C5 1562   5.431   4.269  10.128  0.1510 -0.0620  0.7994
   22CHL1    C6 1563   5.543   4.337  10.089  0.7209 -0.5715  0.0346
   22CHL1    H6 1564   5.595   4.394  10.167  1.8166  1.1344 -1.8832
   22CHL1    C7 1565   5.589   4.323   9.943  0.7009 -0.1678 -0.5130
   22CHL1   H7A 1566   5.627   4.422   9.911 -0.2980  0.8796  1.4482
   22CHL1   H7B 1567   5.680   4.260   9.936  0.1255 -0.7935 -2.7996
   22CHL1    C8 1568   5.487   4.274   9.838  0.4774 -0.0869  0.2502
   22CHL1    H8 1569   5.408   4.350   9.822  0.1543  0.2564  3.1570
   22CHL1   C14 1570   5.550   4.229   9.711 -0.0174 -0.0774 -0.0748
   22CHL1   H14 1571   5.623   4.155   9.750  2.2815  2.8129  1.3178
   22CHL1   C15 1572   5.639   4.332   9.639  0.4473 -0.3335  0.1165
   22CHL1  H15A 1573   5.603   4.436   9.658  0.4006 -0.4775  0.8266
   22CHL1  H15B 1574   5.744   4.333   9.675  0.7836 -2.1650 -0.7676
   22CHL1   C16 1575   5.637   4.283   9.488 -0.9011 -0.0579 -0.5800
   22CHL1  H16A 1576   5.604   4.377   9.438  1.1351  1.5042  0.9040
   22CHL1  H16B 1577   5.744   4.269   9.460 -0.8277 -0.7808  0.0480
   22CHL1   C17 1578   5.552   4.152   9.485  0.0769  0.5876  0.2302
   22CHL1   H17 1579   5.616   4.072   9.527 -1.7462 -0.6903  0.6238
   22CHL1   C13 1580   5.453   4.167   9.606  0.1961  0.8498 -0.5683
   22CHL1   C18 1581   5.343   4.267   9.566  1.2555  0.8810  0.1457
   22CHL1  H18A 1582   5.271   4.204   9.509  0.9175  0.3503  1.1403
   22CHL1  H18B 1583   5.283   4.307   9.651 -0.0483 -1.5987  0.4553
   22CHL1  H18C 1584   5.388   4.353   9.513 -0.1474  0.9724 -0.9302
   22CHL1   C12 1585   5.386   4.042   9.662  0.9255  0.4665  0.7574
   22CHL1  H12A 1586   5.311   3.990   9.599 -0.1769  2.2433  0.5656
   22CHL1  H12B 1587   5.466   3.970   9.690  1.2043  0.3709 -0.2663
   22CHL1   C11 1588   5.319   4.080   9.797 -0.0826  0.1350 -0.0665
   22CHL1  H11A 1589   5.238   4.152   9.773  0.3148  0.6484  0.1160
   22CHL1  H11B 1590   5.269   3.987   9.832  1.1325 -1.8734 -3.4170
   22CHL1    C9 1591   5.414   4.147   9.898  0.1553 -0.2284  0.3092
   22CHL1    H9 1592   5.500   4.079   9.918 -0.9386 -1.2431  1.6885
   22CHL1   C10 1593   5.351   4.181  10.032  0.1136  0.1918  0.2951
   22CHL1   C19 1594   5.225   4.260  10.005 -0.2088  0.9408 -0.6558
   22CHL1  H19A 1595   5.239   4.350   9.941  0.2027  0.4037 -1.3229
   22CHL1  H19B 1596   5.151   4.189   9.964 -0.3374 -0.2401  1.5770
   22CHL1  H19C 1597   5.172   4.300  10.094 -0.9067  0.6151 -0.9257
   22CHL1    C1 1598   5.318   4.044  10.106 -0.8482  0.4223  0.2270
   22CHL1   H1A 1599   5.256   3.984  10.037  0.4774  0.6906 -1.2333
   22CHL1   H1B 1600   5.409   3.980  10.107 -1.5037 -0.5131  1.2810
   22CHL1    C2 1601   5.260   4.063  10.251 -0.0864 -0.2488  0.0800
   22CHL1   H2A 1602   5.250   3.964  10.301  0.5311  0.7671  2.2867
   22CHL1   H2B 1603   5.159   4.106  10.240 -0.0173  0.0023  0.4263
   22CHL1   C20 1604   5.510   4.107   9.339  0.3318  0.4163 -0.3917
   22CHL1   H20 1605   5.457   4.009   9.346 -0.5299  0.9814  1.1673
   22CHL1   C21 1606   5.649   4.071   9.274  0.4311 -0.3304  0.7178
   22CHL1  H21A 1607   5.702   4.162   9.240  0.8040 -0.9631 -0.4306
   22CHL1  H21B 1608   5.628   4.009   9.184 -0.2341  1.5145 -0.4230
   22CHL1  H21C 1609   5.719   4.009   9.334  0.3909 -1.5826 -0.5084
   22CHL1   C22 1610   5.422   4.197   9.254  0.0394  0.1487 -0.4383
   22CHL1  H22A 1611   5.318   4.189   9.292  0.2971 -0.8161  0.0746
   22CHL1  H22B 1612   5.461   4.300   9.244  1.8991 -0.8245 -3.9737
   22CHL1   C23 1613   5.419   4.139   9.106  0.3439  0.1786 -0.1668
   22CHL1  H23A 1614   5.519   4.145   9.057  1.0478 -0.4867  1.1304
   22CHL1  H23B 1615   5.401   4.031   9.126 -2.2589  0.7525  0.7342
   22CHL1   C24 1616   5.300   4.192   9.036 -0.0117  0.0914  0.0149
   22CHL1  H24A 1617   5.217   4.152   9.100 -0.5169 -0.1700 -0.7975
   22CHL1  H24B 1618   5.301   4.303   9.030 -0.1537 -0.0302 -2.8986
   22CHL1   C25 1619   5.273   4.128   8.899  0.4603  0.1235 -0.7394
   22CHL1   H25 1620   5.275   4.017   8.911  1.3887  0.1156 -0.9280
   22CHL1   C26 1621   5.121   4.157   8.864 -0.1525 -0.4104  0.0570
   22CHL1  H26A 1622   5.054   4.145   8.952  1.5854  0.8692  1.6003
   22CHL1  H26B 1623   5.102   4.263   8.839 -2.2445 -0.8534 -0.3161
   22CHL1  H26C 1624   5.074   4.106   8.778 -0.9455  0.3792  0.0191
   22CHL1   C27 1625   5.375   4.168   8.786  0.9939 -0.5425  0.1178
   22CHL1  H27A 1626   5.377   4.278   8.797 -0.2550 -0.4698 -0.2933
   22CHL1  H27B 1627   5.477   4.131   8.811  0.5411 -0.7668  1.6716
   22CHL1  H27C 1628   5.346   4.136   8.684  1.1108 -1.4642  0.3646
   23CHL1    C3 1629   1.613   5.462  10.229 -0.1916 -0.2704  1.0430
   23CHL1    H3 1630   1.712   5.413  10.212 -0.3107 -0.1166 -0.1071
   23CHL1    O3 1631   1.612   5.486  10.368 -0.3969  0.1757 -0.4556
   23CHL1   H3' 1632   1.596   5.397  10.401 -2.5823  0.3022 -1.1142
   23CHL1    C4 1633   1.610   5.595  10.146 -0.2786 -0.2359  0.3710
   23CHL1   H4A 1634   1.522   5.655  10.179  0.4518  1.3442 -0.4628
   23CHL1   H4B 1635   1.698   5.654  10.178 -2.8080  2.8088  2.0608
   23CHL1    C5 1636   1.598   5.565   9.999 -0.6890  0.3678 -0.6955
   23CHL1    C6 1637   1.676   5.624   9.914 -0.7286  0.0078  0.5032
   23CHL1    H6 1638   1.752   5.689   9.960 -0.8832  0.4646  0.1176
   23CHL1    C7 1639   1.659   5.617   9.763  0.5789 -0.0671  0.9834
   23CHL1   H7A 1640   1.661   5.719   9.719  0.5984 -1.0495 -1.3798
   23CHL1   H7B 1641   1.742   5.553   9.724  1.7233  1.5870  0.6266
   23CHL1    C8 1642   1.522   5.555   9.726 -0.4082 -0.5790 -0.8436
   23CHL1    H8 1643   1.448   5.635   9.745  0.1348 -0.4890  1.0593
   23CHL1   C14 1644   1.520   5.517   9.584 -0.0248 -0.7383  0.0419
   23CHL1   H14 1645   1.591   5.432   9.585 -1.1834 -1.7195  0.5666
   23CHL1   C15 1646   1.571   5.618   9.479  0.3196  0.5266 -0.3885
   23CHL1  H15A 1647   1.538   5.721   9.506 -2.1151  0.0208 -1.3217
   23CHL1  H15B 1648   1.681   5.612   9.466  0.6117  0.5675  1.9220
   23CHL1   C16 1649   1.511   5.565   9.349  0.0261  0.4267 -0.1542
   23CHL1  H16A 1650   1.439   5.642   9.314 -1.5735 -0.6629  0.6438
   23CHL1  H16B 1651   1.590   5.564   9.271 -0.9218 -1.6110 -1.1277
   23CHL1   C17 1652   1.420   5.444   9.388  0.4609  0.0382  0.7408
   23CHL1   H17 1653   1.491   5.359   9.378  2.1362  1.2949  1.7815
   23CHL1   C13 1654   1.388   5.455   9.538 -0.3443 -0.1977 -0.1028
   23CHL1   C18 1655   1.264   5.545   9.555  0.0121 -0.2981 -0.2568
   23CHL1  H18A 1656   1.274   5.647   9.512 -0.3127  0.6388  1.8352
   23CHL1  H18B 1657   1.174   5.500   9.507 -1.4144  3.7200 -1.5170
   23CHL1  H18C 1658   1.237   5.566   9.661  2.1357 -1.6834  0.5926
   23CHL1   C12 1659   1.361   5.320   9.610 -0.3085 -0.2604 -0.8233
   23CHL1  H12A 1660   1.272   5.260   9.582  0.5790 -1.3143 -1.4312
   23CHL1  H12B 1661   1.441   5.248   9.582 -1.2331 -1.8029  0.4500
   23CHL1   C11 1662   1.365   5.341   9.768  0.2067 -0.4031 -0.2054
   23CHL1  H11A 1663   1.268   5.377   9.808  0.7845 -2.4390  3.1823
   23CHL1  H11B 1664   1.384   5.242   9.812 -1.5854  0.0648  1.7166
   23CHL1    C9 1665   1.488   5.429   9.809 -0.6480 -1.0990  0.7195
   23CHL1    H9 1666   1.572   5.358   9.795  1.8420  2.0120 -0.7974
   23CHL1   C10 1667   1.485   5.465   9.962 -0.2087  0.3543 -0.6964
   23CHL1   C19 1668   1.355   5.528   9.996 -0.3870  0.0144  0.4460
   23CHL1  H19A 1669   1.311   5.577   9.906  3.7472  2.5955 -0.2977
   23CHL1  H19B 1670   1.281   5.450  10.023 -0.2741  0.6540  2.6855
   23CHL1  H19C 1671   1.363   5.589  10.088 -1.1661  0.1858  0.3961
   23CHL1    C1 1672   1.499   5.340  10.049 -0.6803 -0.4498  0.2801
   23CHL1   H1A 1673   1.413   5.270  10.038 -1.3610  0.3900  0.2097
   23CHL1   H1B 1674   1.582   5.273  10.018  0.1651  0.1348  1.2461
   23CHL1    C2 1675   1.498   5.362  10.201  0.4421  0.9644  0.1551
   23CHL1   H2A 1676   1.526   5.263  10.242 -1.2271  0.2682 -0.3718
   23CHL1   H2B 1677   1.398   5.396  10.235  1.0375  1.2231  1.6752
   23CHL1   C20 1678   1.309   5.410   9.283 -0.7056  0.0903 -0.8003
   23CHL1   H20 1679   1.226   5.484   9.285 -1.4422 -0.7633  1.2806
   23CHL1   C21 1680   1.236   5.279   9.308  0.4590 -0.1849 -0.5388
   23CHL1  H21A 1681   1.295   5.190   9.337 -0.7665  0.6747  5.1807
   23CHL1  H21B 1682   1.175   5.260   9.217  0.7754  1.3243 -1.0872
   23CHL1  H21C 1683   1.172   5.296   9.397  0.8115  0.1932 -0.3561
   23CHL1   C22 1684   1.378   5.417   9.136  0.3519  0.1208  0.0557
   23CHL1  H22A 1685   1.416   5.519   9.115  1.0634  0.4270  2.6134
   23CHL1  H22B 1686   1.453   5.335   9.133 -0.5416 -0.7225  0.3546
   23CHL1   C23 1687   1.283   5.391   9.026 -0.2427 -0.1066 -0.3357
   23CHL1  H23A 1688   1.248   5.286   9.025 -1.5415  0.3279 -1.7562
   23CHL1  H23B 1689   1.194   5.453   9.050 -0.8941 -0.8635 -0.7678
   23CHL1   C24 1690   1.333   5.431   8.890  0.6414 -0.5538  0.3763
   23CHL1  H24A 1691   1.368   5.536   8.898  0.7060 -0.3690 -1.8412
   23CHL1  H24B 1692   1.427   5.379   8.862  2.1322  1.7975  0.8693
   23CHL1   C25 1693   1.228   5.409   8.777 -0.0114 -0.0652 -1.2281
   23CHL1   H25 1694   1.128   5.443   8.811 -0.6828 -3.9735  0.9974
   23CHL1   C26 1695   1.264   5.482   8.654 -0.5110 -0.2985  0.1732
   23CHL1  H26A 1696   1.256   5.593   8.652 -1.0633 -0.3458 -1.8431
   23CHL1  H26B 1697   1.363   5.445   8.620 -1.1288 -0.4653 -1.4979
   23CHL1  H26C 1698   1.200   5.446   8.570 -0.0921 -1.1539  0.2181
   23CHL1   C27 1699   1.224   5.263   8.756 -0.0529  0.0005 -0.2229
   23CHL1  H27A 1700   1.162   5.223   8.839 -2.0062  1.4879 -0.9187
   23CHL1  H27B 1701   1.198   5.222   8.656 -1.6134  1.2940 -0.3591
   23CHL1  H27C 1702   1.326   5.225   8.776 -0.0448  0.5635  0.8317
   24CHL1    C3 1703   3.156   5.789  10.200 -0.4272 -1.0769 -0.4049
   24CHL1    H3 1704   3.245   5.736  10.159  0.5808  1.4668 -1.6385
   24CHL1    O3 1705   3.155   5.777  10.342  0.1619  0.0084  0.4750
   24CHL1   H3' 1706   3.069   5.804  10.374 -0.0971  1.9794 -1.7724
   24CHL1    C4 1707   3.161   5.935  10.165 -0.2614  0.4011 -0.0838
   24CHL1   H4A 1708   3.075   5.984  10.216 -0.4452  0.5191 -0.5056
   24CHL1   H4B 1709   3.244   5.990  10.214 -0.2121 -0.2057  0.5183
   24CHL1    C5 1710   3.146   5.975  10.017  0.1747  0.0244  0.5862
   24CHL1    C6 1711   3.238   6.051   9.951  0.0520  0.4350  0.7149
   24CHL1    H6 1712   3.326   6.081  10.008  1.3901 -1.8485 -0.0891
   24CHL1    C7 1713   3.246   6.083   9.809  0.3560  0.0488 -0.6218
   24CHL1   H7A 1714   3.250   6.193   9.792 -2.7623  0.3576  0.4665
   24CHL1   H7B 1715   3.339   6.034   9.772  1.5067  1.3798  0.4668
   24CHL1    C8 1716   3.122   6.023   9.735 -0.5916 -0.2936  0.6722
   24CHL1    H8 1717   3.043   6.096   9.763 -1.7807 -1.2407 -0.1734
   24CHL1   C14 1718   3.146   6.016   9.586  0.3810  0.9920  0.5461
   24CHL1   H14 1719   3.221   5.936   9.573 -1.0919 -0.5045  1.0812
   24CHL1   C15 1720   3.209   6.136   9.507  0.0734 -0.2190  0.6774
   24CHL1  H15A 1721   3.169   6.232   9.544 -0.7259  0.5615 -2.0713
   24CHL1  H15B 1722   3.319   6.130   9.521  0.2347 -2.9989 -1.1586
   24CHL1   C16 1723   3.181   6.109   9.359  0.2479 -0.1740 -0.1322
   24CHL1  H16A 1724   3.117   6.189   9.317  1.4018  0.4351 -0.7137
   24CHL1  H16B 1725   3.272   6.108   9.296 -0.3492  1.2533 -1.0368
   24CHL1   C17 1726   3.100   5.974   9.356  0.3720  0.0454 -0.0993
   24CHL1   H17 1727   3.172   5.890   9.358 -2.5444 -2.5397  0.6299
   24CHL1   C13 1728   3.030   5.971   9.500  0.4383  0.2135 -0.5646
   24CHL1   C18 1729   2.913   6.071   9.499  0.5697  1.0139  0.0038
   24CHL1  H18A 1730   2.822   6.023   9.456  1.7189  0.1776 -1.5432
   24CHL1  H18B 1731   2.879   6.105   9.599 -1.7110  1.4166 -0.8817
   24CHL1  H18C 1732   2.942   6.160   9.440  1.2134  1.9773  1.7470
   24CHL1   C12 1733   2.995   5.825   9.544  0.4748 -0.6280 -0.8309
   24CHL1  H12A 1734   2.903   5.805   9.486 -1.7345 -0.2919  2.4141
   24CHL1  H12B 1735   3.083   5.765   9.514  1.6465  1.6268 -2.0841
   24CHL1   C11 1736   2.974   5.816   9.695 -0.1452 -0.0861  0.0791
   24CHL1  H11A 1737   2.875   5.861   9.715 -0.4866  0.1146 -1.9536
   24CHL1  H11B 1738   2.966   5.708   9.720 -1.9234 -0.4993 -2.0883
   24CHL1    C9 1739   3.079   5.885   9.791 -0.5197  0.1136 -0.1000
   24CHL1    H9 1740   3.169   5.819   9.791  1.0146  2.1533 -0.2363
   24CHL1   C10 1741   3.043   5.893   9.937  0.0288  0.3318 -0.1677
   24CHL1   C19 1742   2.901   5.962   9.954  0.7737 -0.7834 -0.1579
   24CHL1  H19A 1743   2.819   5.910   9.900 -0.6939 -1.0998  2.3051
   24CHL1  H19B 1744   2.880   5.968  10.063  0.8592  2.2999 -0.2664
   24CHL1  H19C 1745   2.899   6.070   9.926 -0.5725 -1.1181 -1.4235
   24CHL1    C1 1746   3.027   5.751   9.986  0.4136  0.3762  0.1682
   24CHL1   H1A 1747   2.930   5.714   9.948  0.2278  0.4472  0.5727
   24CHL1   H1B 1748   3.103   5.679   9.947 -1.4072 -0.1275 -2.5336
   24CHL1    C2 1749   3.028   5.725  10.134  0.1740 -0.5031  0.5103
   24CHL1   H2A 1750   3.031   5.614  10.143  0.6685 -0.5074  0.2808
   24CHL1   H2B 1751   2.933   5.752  10.187 -0.4630 -1.5833 -0.0674
   24CHL1   C20 1752   3.004   5.953   9.234  0.4123 -0.2559 -0.7627
   24CHL1   H20 1753   2.901   5.988   9.256  0.5167 -1.0139  1.0326
   24CHL1   C21 1754   3.020   5.805   9.205  0.0594 -0.1593  0.1552
   24CHL1  H21A 1755   2.958   5.781   9.116 -0.3047  0.2731  0.2890
   24CHL1  H21B 1756   2.987   5.752   9.296  2.7638  1.6179  2.2749
   24CHL1  H21C 1757   3.126   5.780   9.182  0.1708 -0.4543  0.9668
   24CHL1   C22 1758   3.044   6.040   9.109  0.3267  0.0238  0.9075
   24CHL1  H22A 1759   3.011   6.145   9.118 -0.9716 -0.4610  1.9902
   24CHL1  H22B 1760   3.153   6.023   9.096  0.3012 -1.2589  2.1511
   24CHL1   C23 1761   2.984   5.989   8.976 -0.0940 -0.4484 -0.0171
   24CHL1  H23A 1762   3.033   5.894   8.948 -0.8401 -0.7271 -0.3731
   24CHL1  H23B 1763   2.875   5.969   8.984 -0.1156  0.0466  1.0244
   24CHL1   C24 1764   3.024   6.085   8.859  0.3726 -0.3354  0.3059
   24CHL1  H24A 1765   2.945   6.161   8.840  0.3645 -0.6200 -0.8421
   24CHL1  H24B 1766   3.120   6.139   8.874  0.6949 -0.9035  0.2939
   24CHL1   C25 1767   3.039   6.017   8.721  0.0808 -0.7365 -0.7461
   24CHL1   H25 1768   3.049   6.096   8.644 -2.7608 -0.5278 -0.9586
   24CHL1   C26 1769   3.158   5.915   8.714 -0.3550 -0.3841  1.0362
   24CHL1  H26A 1770   3.145   5.868   8.615  1.3610  0.2659  0.4886
   24CHL1  H26B 1771   3.258   5.962   8.701 -0.0351 -0.6634  2.3881
   24CHL1  H26C 1772   3.164   5.841   8.797 -1.2647  1.5293  2.8670
   24CHL1   C27 1773   2.915   5.927   8.688  0.2784 -0.5672  0.2599
   24CHL1  H27A 1774   2.892   5.857   8.771  1.0259 -1.7809 -0.5233
   24CHL1  H27B 1775   2.832   5.993   8.657  0.3186 -1.5223 -2.0608
   24CHL1  H27C 1776   2.934   5.866   8.597 -2.3394  1.7889 -1.9623
   25CHL1    C3 1777   4.748   1.034  10.426  0.5580 -0.4193 -0.0303
   25CHL1    H3 1778   4.830   0.959  10.441  0.0708 -0.4684  2.5461
   25CHL1    O3 1779   4.708   1.085  10.553  0.1666 -0.0265  0.3431
   25CHL1   H3' 1780   4.790   1.079  10.603 -0.6809 -2.6715  1.5245
   25CHL1    C4 1781   4.796   1.148  10.330 -0.0349 -0.2787 -0.3727
   25CHL1   H4A 1782   4.720   1.229  10.334  0.0714 -0.1331 -1.1406
   25CHL1   H4B 1783   4.882   1.184  10.390 -1.1407 -0.7531  1.5276
   25CHL1    C5 1784   4.825   1.111  10.195 -0.3588 -0.3039 -0.0112
   25CHL1    C6 1785   4.949   1.127  10.139 -0.3760 -0.7221 -0.5264
   25CHL1    H6 1786   5.027   1.183  10.193 -1.0343  0.0585 -0.3767
   25CHL1    C7 1787   4.979   1.089   9.993  0.0018  0.6142  0.1819
   25CHL1   H7A 1788   5.039   1.168   9.943 -0.4839  0.4910 -0.5993
   25CHL1   H7B 1789   5.034   0.993  10.004  1.1425  1.3720  1.3300
   25CHL1    C8 1790   4.849   1.061   9.909 -0.3796 -0.4750  0.2072
   25CHL1    H8 1791   4.805   1.160   9.886 -0.5649  0.0817  2.7748
   25CHL1   C14 1792   4.882   0.995   9.773  0.0589  0.6957 -0.0166
   25CHL1   H14 1793   4.912   0.892   9.801  0.4242  0.6538 -0.5393
   25CHL1   C15 1794   5.003   1.048   9.689  0.1926  0.2461  0.1480
   25CHL1  H15A 1795   5.006   1.159   9.693  0.1405  0.2903 -0.7741
   25CHL1  H15B 1796   5.091   0.994   9.729  0.8067  0.7771 -0.4675
   25CHL1   C16 1797   4.975   1.010   9.543 -1.2267  0.2502 -0.4704
   25CHL1  H16A 1798   4.954   1.095   9.474 -1.3663 -0.6501 -1.5615
   25CHL1  H16B 1799   5.066   0.950   9.519 -1.0537 -0.1974  1.2368
   25CHL1   C17 1800   4.847   0.924   9.554  0.2283  0.5497 -0.8094
   25CHL1   H17 1801   4.885   0.822   9.574  0.4053  0.4249 -1.7620
   25CHL1   C13 1802   4.764   0.974   9.679  0.0013  1.0545 -0.3336
   25CHL1   C18 1803   4.696   1.099   9.647  0.6917  0.1680 -0.0486
   25CHL1  H18A 1804   4.629   1.136   9.727  1.1672 -3.7396  2.2826
   25CHL1  H18B 1805   4.758   1.174   9.592  1.1647 -0.3670 -0.2552
   25CHL1  H18C 1806   4.629   1.078   9.561  2.4574  0.7628 -1.6339
   25CHL1   C12 1807   4.679   0.866   9.763  0.3964 -0.3751  0.9805
   25CHL1  H12A 1808   4.580   0.867   9.711  0.7542  0.2826  0.3018
   25CHL1  H12B 1809   4.722   0.765   9.779  1.5625 -0.3529 -1.7008
   25CHL1   C11 1810   4.637   0.921   9.905 -0.0722 -0.2460  0.0409
   25CHL1  H11A 1811   4.567   1.002   9.876  0.2536  0.0107 -0.0291
   25CHL1  H11B 1812   4.570   0.849   9.956 -0.0250 -0.2222  0.1390
   25CHL1    C9 1813   4.751   0.970   9.994  0.3418 -0.0371 -0.5134
   25CHL1    H9 1814   4.810   0.879  10.018 -0.3031 -0.5461 -0.8420
   25CHL1   C10 1815   4.712   1.035  10.121  1.0908  0.6218 -0.3322
   25CHL1   C19 1816   4.596   1.134  10.111  0.5645  0.0104 -0.2980
   25CHL1  H19A 1817   4.606   1.213  10.033  0.1149  1.3432  0.9698
   25CHL1  H19B 1818   4.506   1.075  10.082 -1.3335  0.2425  4.7252
   25CHL1  H19C 1819   4.572   1.184  10.207 -2.0649 -1.4111 -0.1739
   25CHL1    C1 1820   4.659   0.915  10.215  0.0017  0.4225  0.1372
   25CHL1   H1A 1821   4.565   0.886  10.164  0.7575 -0.0677 -1.0060
   25CHL1   H1B 1822   4.719   0.822  10.226  0.1731  0.5692  0.4520
   25CHL1    C2 1823   4.628   0.960  10.359 -0.8685 -0.0498 -0.6989
   25CHL1   H2A 1824   4.591   0.883  10.431 -0.4567  0.5393  0.1508
   25CHL1   H2B 1825   4.547   1.035  10.369 -1.9032 -1.4216  1.7385
   25CHL1   C20 1826   4.771   0.903   9.422  0.4888 -1.0221 -0.1220
   25CHL1   H20 1827   4.713   0.996   9.406  0.2164 -1.2834 -0.6718
   25CHL1   C21 1828   4.671   0.793   9.429  0.2592 -0.3343 -0.2915
   25CHL1  H21A 1829   4.600   0.810   9.513  1.0263  1.5965 -0.0002
   25CHL1  H21B 1830   4.703   0.687   9.437  1.5584  0.0391 -0.4904
   25CHL1  H21C 1831   4.608   0.813   9.339 -0.7525 -1.9195  0.0477
   25CHL1   C22 1832   4.865   0.884   9.297 -0.1248 -0.7316  0.0800
   25CHL1  H22A 1833   4.912   0.982   9.275 -1.1329 -0.4515 -0.9207
   25CHL1  H22B 1834   4.938   0.806   9.326 -0.8554 -0.8855  1.5014
   25CHL1   C23 1835   4.796   0.842   9.167 -0.6777 -0.6281 -0.4674
   25CHL1  H23A 1836   4.762   0.737   9.178 -1.3237 -0.4871 -1.1234
   25CHL1  H23B 1837   4.707   0.906   9.151 -0.1392 -0.2814 -2.1785
   25CHL1   C24 1838   4.885   0.847   9.041  0.3652 -0.0740  0.1599
   25CHL1  H24A 1839   4.922   0.952   9.031  1.7608 -0.5999 -0.2857
   25CHL1  H24B 1840   4.970   0.778   9.056  1.1521  0.8680  0.0868
   25CHL1   C25 1841   4.810   0.795   8.912 -0.1036  0.6431 -0.2885
   25CHL1   H25 1842   4.777   0.695   8.949  3.7197 -1.0739 -1.3248
   25CHL1   C26 1843   4.698   0.898   8.873  0.3525 -0.1216  0.0231
   25CHL1  H26A 1844   4.614   0.835   8.835 -0.9766  1.5568  0.1318
   25CHL1  H26B 1845   4.652   0.941   8.964 -0.3312 -1.7471  0.4771
   25CHL1  H26C 1846   4.732   0.977   8.803 -2.8432  0.3978 -1.0084
   25CHL1   C27 1847   4.902   0.761   8.790  0.8435 -0.4028 -0.5080
   25CHL1  H27A 1848   4.973   0.677   8.809  0.3261 -0.8396 -0.4877
   25CHL1  H27B 1849   4.836   0.748   8.702 -2.8585  0.9403  1.9560
   25CHL1  H27C 1850   4.975   0.841   8.767 -0.5950  1.6400  1.7723
   26CHL1    C3 1851   5.823   3.913  10.099 -0.2876 -0.4720 -0.3004
   26CHL1    H3 1852   5.798   3.818  10.152 -0.8777  0.7383  1.6677
   26CHL1    O3 1853   5.821   4.018  10.197  0.7133  0.6201  0.0980
   26CHL1   H3' 1854   5.829   4.097  10.142  1.6790 -0.4999 -1.4234
   26CHL1    C4 1855   5.962   3.884  10.040  0.3810  0.2388  0.0422
   26CHL1   H4A 1856   6.004   3.984  10.015  0.8451 -0.3102 -1.4675
   26CHL1   H4B 1857   6.033   3.848  10.118 -0.4810 -0.8295  0.3367
   26CHL1    C5 1858   5.951   3.802   9.915  0.2886 -0.2167 -0.4494
   26CHL1    C6 1859   6.023   3.692   9.910  0.0582 -0.4406 -0.2980
   26CHL1    H6 1860   6.094   3.668   9.990 -0.1422 -1.1471 -0.3290
   26CHL1    C7 1861   6.034   3.614   9.781  0.9969 -1.0322 -0.0075
   26CHL1   H7A 1862   6.141   3.587   9.764  1.3199  1.0838 -1.5043
   26CHL1   H7B 1863   5.975   3.520   9.787  2.4600 -1.9783 -0.1263
   26CHL1    C8 1864   5.978   3.692   9.654 -0.3987  0.9596 -0.4961
   26CHL1    H8 1865   6.055   3.773   9.647 -0.5333  1.2043  0.8102
   26CHL1   C14 1866   5.966   3.604   9.534 -0.0385 -0.0944 -0.1024
   26CHL1   H14 1867   5.895   3.521   9.553  0.8288 -0.9565 -0.5852
   26CHL1   C15 1868   6.093   3.535   9.480  0.0677  0.2008 -0.2312
   26CHL1  H15A 1869   6.182   3.601   9.486 -0.6802  1.3091 -1.0702
   26CHL1  H15B 1870   6.107   3.445   9.543  0.9138  0.8670  0.5500
   26CHL1   C16 1871   6.059   3.493   9.341 -0.0007  0.0116  0.9789
   26CHL1  H16A 1872   6.132   3.532   9.267 -0.7187 -1.5340 -0.5806
   26CHL1  H16B 1873   6.045   3.383   9.333 -0.9723  0.0822  1.6406
   26CHL1   C17 1874   5.926   3.564   9.309  0.3242  0.6729 -0.6057
   26CHL1   H17 1875   5.850   3.487   9.334  0.6888  0.8589  1.1327
   26CHL1   C13 1876   5.905   3.675   9.417  0.0493  0.9129 -0.7714
   26CHL1   C18 1877   5.990   3.801   9.387  0.7469 -0.3019  1.4509
   26CHL1  H18A 1878   6.011   3.875   9.467  3.0605  0.2788  0.3403
   26CHL1  H18B 1879   6.091   3.764   9.359 -0.6027 -4.1062  1.2289
   26CHL1  H18C 1880   5.963   3.858   9.296  1.2664 -2.9715 -0.4608
   26CHL1   C12 1881   5.753   3.711   9.451  0.0769  0.3347  0.1563
   26CHL1  H12A 1882   5.699   3.756   9.365 -1.5235 -2.4071 -0.3068
   26CHL1  H12B 1883   5.713   3.609   9.470 -0.6106  0.6129  0.2275
   26CHL1   C11 1884   5.744   3.800   9.573  0.3803 -0.9934 -0.7310
   26CHL1  H11A 1885   5.782   3.897   9.535  0.9311 -0.3830  1.3297
   26CHL1  H11B 1886   5.636   3.808   9.600  0.5734 -1.4309  0.1656
   26CHL1    C9 1887   5.840   3.750   9.688  0.2318 -0.4869 -0.6773
   26CHL1    H9 1888   5.788   3.664   9.735 -1.9301  1.3641  0.4525
   26CHL1   C10 1889   5.857   3.846   9.810  0.6061 -0.5390  0.2375
   26CHL1   C19 1890   5.901   3.974   9.751 -0.2879 -0.0281  0.7022
   26CHL1  H19A 1891   5.904   4.050   9.832  3.1079 -0.8822  1.4462
   26CHL1  H19B 1892   6.003   3.971   9.707 -0.9098  0.3985 -0.8134
   26CHL1  H19C 1893   5.837   4.022   9.673  1.8367  1.8642  0.0876
   26CHL1    C1 1894   5.718   3.850   9.884  0.5166  0.5963 -0.5580
   26CHL1   H1A 1895   5.640   3.885   9.813 -0.7423 -0.0234  0.5146
   26CHL1   H1B 1896   5.683   3.753   9.924 -3.1771  2.1121  0.0278
   26CHL1    C2 1897   5.717   3.954   9.999  0.5149 -0.5355  0.4787
   26CHL1   H2A 1898   5.613   3.970  10.034 -0.2698 -2.9187 -0.6577
   26CHL1   H2B 1899   5.741   4.052   9.953  0.3429 -1.6840 -2.2115
   26CHL1   C20 1900   5.919   3.600   9.155 -0.5997  0.8039 -0.3144
   26CHL1   H20 1901   6.007   3.665   9.143 -0.8388  2.0461  3.8178
   26CHL1   C21 1902   5.790   3.681   9.117 -0.1230 -1.1950 -0.3682
   26CHL1  H21A 1903   5.794   3.688   9.006  0.6436  0.6089 -0.2376
   26CHL1  H21B 1904   5.792   3.781   9.165  4.0443  0.1899 -3.0895
   26CHL1  H21C 1905   5.698   3.627   9.145  0.8543 -2.9950 -0.5673
   26CHL1   C22 1906   5.927   3.469   9.065 -0.0971  0.2482 -0.2835
   26CHL1  H22A 1907   5.912   3.504   8.960 -2.9663 -0.3660 -0.1306
   26CHL1  H22B 1908   6.024   3.418   9.080  0.0343  0.2495 -1.1323
   26CHL1   C23 1909   5.819   3.358   9.082  0.2474  1.0270 -0.1411
   26CHL1  H23A 1910   5.850   3.303   9.174  2.5355  1.5198 -0.5893
   26CHL1  H23B 1911   5.717   3.402   9.087 -1.1999 -2.1557  0.0464
   26CHL1   C24 1912   5.818   3.252   8.968  0.1827 -0.7782  0.1771
   26CHL1  H24A 1913   5.923   3.218   8.951 -0.4226 -2.5266 -0.1702
   26CHL1  H24B 1914   5.763   3.166   9.011  0.1955 -0.2772  1.2085
   26CHL1   C25 1915   5.736   3.289   8.843 -0.2504 -0.4923  0.3415
   26CHL1   H25 1916   5.779   3.379   8.795 -2.4879  1.1536  1.3100
   26CHL1   C26 1917   5.762   3.166   8.746 -0.8107 -0.5500  0.1230
   26CHL1  H26A 1918   5.871   3.160   8.727 -1.1351 -2.0404 -1.4183
   26CHL1  H26B 1919   5.742   3.067   8.792 -0.7218  0.2275  1.8634
   26CHL1  H26C 1920   5.700   3.170   8.654 -2.4967 -1.3566  1.2001
   26CHL1   C27 1921   5.587   3.314   8.864 -0.5795 -0.1017 -0.0944
   26CHL1  H27A 1922   5.572   3.377   8.955  1.7222 -1.4620  1.2649
   26CHL1  H27B 1923   5.537   3.358   8.775  1.5889 -2.7398 -2.7383
   26CHL1  H27C 1924   5.535   3.220   8.893 -0.1742  0.2879  2.0052
   27CHL1    C3 1925   4.957   0.635  10.403 -0.7514 -0.5869  0.5836
   27CHL1    H3 1926   4.882   0.713  10.378 -0.4475 -0.3652  0.3599
   27CHL1    O3 1927   4.930   0.586  10.532 -0.3385  0.0216  0.0529
   27CHL1   H3' 1928   4.992   0.515  10.548 -0.1823 -0.0844 -0.9743
   27CHL1    C4 1929   4.940   0.528  10.304  0.1654 -0.6750 -0.0515
   27CHL1   H4A 1930   4.985   0.433  10.341  2.1682 -0.0727 -0.8229
   27CHL1   H4B 1931   4.831   0.508  10.295  0.2049 -0.6305 -0.6369
   27CHL1    C5 1932   4.985   0.553  10.161  0.2418 -0.3858  0.5028
   27CHL1    C6 1933   4.906   0.552  10.056 -0.0025  0.4817  0.4045
   27CHL1    H6 1934   4.803   0.513  10.055 -0.2819  1.1580  1.8226
   27CHL1    C7 1935   4.944   0.579   9.915 -0.6617  0.5131  0.3436
   27CHL1   H7A 1936   4.905   0.496   9.852  2.0737 -0.0289 -0.7032
   27CHL1   H7B 1937   4.905   0.679   9.887 -1.1199  0.3683  0.4625
   27CHL1    C8 1938   5.100   0.579   9.904  0.3387 -0.1883  0.8302
   27CHL1    H8 1939   5.145   0.478   9.893  0.2044 -0.1404 -0.1935
   27CHL1   C14 1940   5.135   0.638   9.770 -0.2488  0.6441  0.1316
   27CHL1   H14 1941   5.101   0.744   9.769  2.6373  1.6371  1.6304
   27CHL1   C15 1942   5.071   0.569   9.644  0.3951 -0.3572 -0.3783
   27CHL1  H15A 1943   5.079   0.459   9.653 -0.4459 -0.4176 -0.3047
   27CHL1  H15B 1944   4.965   0.599   9.629  1.0793  0.7059 -3.3195
   27CHL1   C16 1945   5.146   0.631   9.530 -0.5020  0.3265  0.1740
   27CHL1  H16A 1946   5.179   0.539   9.477  0.8784 -2.1209  4.9365
   27CHL1  H16B 1947   5.079   0.691   9.466  1.5251  0.0864 -2.2420
   27CHL1   C17 1948   5.261   0.711   9.593 -0.2822 -0.5461  0.1827
   27CHL1   H17 1949   5.218   0.812   9.612 -2.5649 -1.2998 -0.7361
   27CHL1   C13 1950   5.282   0.657   9.736 -0.5599 -0.2763  0.1152
   27CHL1   C18 1951   5.359   0.526   9.740 -0.3549  0.0633 -0.0079
   27CHL1  H18A 1952   5.466   0.552   9.725 -0.0912 -0.3721  1.0718
   27CHL1  H18B 1953   5.351   0.476   9.838  2.8267  0.2943  0.4325
   27CHL1  H18C 1954   5.326   0.457   9.659  1.0321 -2.0455  1.1654
   27CHL1   C12 1955   5.346   0.748   9.848  0.0404  0.1867  0.0030
   27CHL1  H12A 1956   5.456   0.744   9.843  0.0292 -1.9133  0.8759
   27CHL1  H12B 1957   5.312   0.854   9.836 -0.4715 -0.1538 -1.6792
   27CHL1   C11 1958   5.311   0.701   9.990 -0.1170  1.2192 -0.8323
   27CHL1  H11A 1959   5.377   0.616  10.018 -0.9535  1.5855  2.3897
   27CHL1  H11B 1960   5.339   0.786  10.055 -2.8909  1.2207  0.4292
   27CHL1    C9 1961   5.166   0.663  10.013 -0.3669 -0.4810 -0.2351
   27CHL1    H9 1962   5.109   0.758  10.011 -1.4330 -1.1267 -1.4903
   27CHL1   C10 1963   5.129   0.608  10.158  0.1941  0.3735 -0.1254
   27CHL1   C19 1964   5.228   0.501  10.203 -0.0336  0.5472 -0.8564
   27CHL1  H19A 1965   5.197   0.466  10.304 -1.6646  0.1780 -1.4686
   27CHL1  H19B 1966   5.236   0.416  10.133 -3.8346 -0.2744 -0.4048
   27CHL1  H19C 1967   5.330   0.544  10.208 -0.6675  1.9493  0.6494
   27CHL1    C1 1968   5.139   0.724  10.256  0.6145  0.2916 -0.1866
   27CHL1   H1A 1969   5.246   0.753  10.268  1.1662 -1.3661 -0.9050
   27CHL1   H1B 1970   5.078   0.809  10.220  0.1950 -0.2000 -0.6281
   27CHL1    C2 1971   5.093   0.703  10.403 -0.2576  0.0883 -0.4846
   27CHL1   H2A 1972   5.091   0.803  10.453  2.9277 -0.3858  0.7527
   27CHL1   H2B 1973   5.168   0.634  10.448 -1.3077 -2.8931 -3.1960
   27CHL1   C20 1974   5.375   0.715   9.503 -0.1144  0.5291  0.3223
   27CHL1   H20 1975   5.423   0.615   9.496  0.1559  0.7738 -1.3382
   27CHL1   C21 1976   5.469   0.828   9.553  0.3871  0.1721 -0.6194
   27CHL1  H21A 1977   5.555   0.854   9.487  2.2412 -2.9212  0.4564
   27CHL1  H21B 1978   5.509   0.783   9.646  2.3584  0.5557 -1.2424
   27CHL1  H21C 1979   5.414   0.916   9.591 -1.3468 -0.5926 -1.3135
   27CHL1   C22 1980   5.339   0.757   9.356  0.5517  0.6625  0.3773
   27CHL1  H22A 1981   5.422   0.719   9.293  1.9951 -0.4662  2.8703
   27CHL1  H22B 1982   5.250   0.699   9.322  0.6702  0.7475 -0.0760
   27CHL1   C23 1983   5.314   0.910   9.332 -0.4775  0.4694 -0.4785
   27CHL1  H23A 1984   5.249   0.944   9.415 -0.8884 -1.6597  0.1236
   27CHL1  H23B 1985   5.412   0.962   9.340  0.1743 -0.5072 -1.7985
   27CHL1   C24 1986   5.249   0.950   9.199  0.6898 -0.0719 -0.0153
   27CHL1  H24A 1987   5.144   0.915   9.201  1.3860 -2.2295 -0.2405
   27CHL1  H24B 1988   5.245   1.061   9.190  0.7044 -0.1857 -1.7566
   27CHL1   C25 1989   5.323   0.911   9.072  0.6265  0.6142 -0.5081
   27CHL1   H25 1990   5.339   0.802   9.083  0.0250  0.5254 -0.4741
   27CHL1   C26 1991   5.220   0.931   8.958  0.6306  0.0522 -0.3626
   27CHL1  H26A 1992   5.164   1.026   8.968 -1.6674 -1.3781  1.0259
   27CHL1  H26B 1993   5.272   0.912   8.861  1.3277 -2.5818  0.4627
   27CHL1  H26C 1994   5.144   0.849   8.961  1.0582 -0.2974  1.1120
   27CHL1   C27 1995   5.457   0.986   9.052 -0.5721 -1.0298 -0.6255
   27CHL1  H27A 1996   5.505   0.955   8.957  1.4114  4.8504 -1.7043
   27CHL1  H27B 1997   5.440   1.094   9.036 -5.0580 -1.2301  1.9279
   27CHL1  H27C 1998   5.528   0.955   9.132 -0.4502  0.9278  0.0294
   28CHL1    C3 1999   4.080   5.673   9.956  0.0597  0.3251 -0.3737
   28CHL1    H3 2000   4.118   5.568   9.957  2.1859  1.0629  0.6468
   28CHL1    O3 2001   4.065   5.703  10.089  0.5038  0.5776  0.0686
   28CHL1   H3' 2002   4.044   5.619  10.132 -1.2593  0.8127 -0.2946
   28CHL1    C4 2003   4.179   5.771   9.894  0.0384 -0.5703  0.1002
   28CHL1   H4A 2004   4.142   5.876   9.908  1.1344 -0.3663  1.5796
   28CHL1   H4B 2005   4.271   5.761   9.956  0.9701  1.1028 -0.9826
   28CHL1    C5 2006   4.195   5.734   9.748  0.0658 -0.5237  0.0909
   28CHL1    C6 2007   4.316   5.696   9.705  0.3750  0.7113  0.0548
   28CHL1    H6 2008   4.399   5.695   9.777 -0.0631  0.6628  0.5667
   28CHL1    C7 2009   4.339   5.643   9.564 -0.4395 -0.6516 -0.0940
   28CHL1   H7A 2010   4.441   5.668   9.529 -0.2320 -0.2867  0.7705
   28CHL1   H7B 2011   4.339   5.532   9.555  3.7877 -0.7014 -0.2074
   28CHL1    C8 2012   4.234   5.707   9.462  0.1667  0.4862 -0.1430
   28CHL1    H8 2013   4.243   5.817   9.453  0.8671  0.2418 -2.5530
   28CHL1   C14 2014   4.254   5.655   9.319 -0.0522 -0.0183 -0.5166
   28CHL1   H14 2015   4.233   5.547   9.332  1.2506 -0.2865 -0.6136
   28CHL1   C15 2016   4.390   5.671   9.259 -0.5044  0.2512 -0.5823
   28CHL1  H15A 2017   4.444   5.762   9.292 -1.6219  0.2658  1.2797
   28CHL1  H15B 2018   4.455   5.587   9.293 -3.2434 -2.6393 -2.2359
   28CHL1   C16 2019   4.371   5.658   9.111 -0.1586 -0.0823  0.0219
   28CHL1  H16A 2020   4.383   5.756   9.060 -2.0854 -0.3742 -1.0372
   28CHL1  H16B 2021   4.440   5.583   9.066  1.9062  0.6155  1.8924
   28CHL1   C17 2022   4.217   5.627   9.091  0.2198 -0.5256 -0.2970
   28CHL1   H17 2023   4.194   5.519   9.102  2.2002 -0.9620 -0.3036
   28CHL1   C13 2024   4.153   5.695   9.211 -0.3418 -0.6373  0.3622
   28CHL1   C18 2025   4.148   5.849   9.194 -0.7667  0.1892  0.7499
   28CHL1  H18A 2026   4.143   5.893   9.296 -0.1806  1.3246  0.2998
   28CHL1  H18B 2027   4.239   5.889   9.145 -1.4360  1.9319  0.9126
   28CHL1  H18C 2028   4.054   5.866   9.137 -0.2926 -0.5910 -0.2790
   28CHL1   C12 2029   4.016   5.644   9.266  0.2835  0.3003 -0.1807
   28CHL1  H12A 2030   3.931   5.691   9.213  1.0643  1.2699 -0.5871
   28CHL1  H12B 2031   4.016   5.532   9.263  1.6443  0.1688  2.4296
   28CHL1   C11 2032   3.979   5.704   9.409 -0.5719 -0.0821 -0.5670
   28CHL1  H11A 2033   3.960   5.813   9.401  0.6794  0.1538 -0.4243
   28CHL1  H11B 2034   3.885   5.658   9.445  0.6036 -1.0119  1.3791
   28CHL1    C9 2035   4.093   5.672   9.520 -0.1449  0.1934  0.7516
   28CHL1    H9 2036   4.088   5.562   9.534 -0.9443 -0.0174 -1.1071
   28CHL1   C10 2037   4.065   5.732   9.664  0.6577  0.1814 -0.6076
   28CHL1   C19 2038   4.021   5.878   9.650  0.9798 -0.2725  0.0915
   28CHL1  H19A 2039   3.929   5.885   9.588  1.3848  0.1894 -0.4673
   28CHL1  H19B 2040   3.987   5.921   9.747  0.0914 -0.1035 -0.2935
   28CHL1  H19C 2041   4.099   5.939   9.599  0.2012 -1.7648 -3.0242
   28CHL1    C1 2042   3.960   5.638   9.740 -0.9496 -1.0443  0.4130
   28CHL1   H1A 2043   3.866   5.631   9.682  0.1842 -2.6881 -1.2902
   28CHL1   H1B 2044   4.000   5.535   9.736 -0.5466 -0.8749 -0.0392
   28CHL1    C2 2045   3.942   5.673   9.888 -0.2279 -0.3791  0.6110
   28CHL1   H2A 2046   3.868   5.601   9.929 -0.2101 -1.3230 -0.9652
   28CHL1   H2B 2047   3.887   5.769   9.896 -1.6771 -1.0281 -1.2106
   28CHL1   C20 2048   4.168   5.647   8.949 -0.2846 -0.5760 -0.1642
   28CHL1   H20 2049   4.171   5.757   8.931  0.7335 -0.4147  0.8830
   28CHL1   C21 2050   4.018   5.615   8.941 -0.0685 -0.0129  0.1823
   28CHL1  H21A 2051   3.959   5.682   9.007 -0.5439 -2.5022  2.3868
   28CHL1  H21B 2052   3.999   5.511   8.976  2.4301  0.1087  2.0070
   28CHL1  H21C 2053   3.985   5.613   8.835  0.4143  1.7834 -0.0051
   28CHL1   C22 2054   4.251   5.567   8.845 -0.5401  0.2988 -0.0052
   28CHL1  H22A 2055   4.357   5.599   8.843  0.0580 -1.6352 -0.2042
   28CHL1  H22B 2056   4.248   5.460   8.878 -0.6018  0.3340  0.1031
   28CHL1   C23 2057   4.205   5.572   8.707 -0.4436 -0.4033 -0.1204
   28CHL1  H23A 2058   4.112   5.513   8.690  0.6506 -1.9405 -0.8348
   28CHL1  H23B 2059   4.187   5.681   8.691 -0.9762 -0.4833 -0.0661
   28CHL1   C24 2060   4.309   5.522   8.608 -0.0537  0.5362  0.1147
   28CHL1  H24A 2061   4.400   5.585   8.608 -0.6264  1.3714  0.7601
   28CHL1  H24B 2062   4.339   5.418   8.634 -1.1477  0.6851  2.0891
   28CHL1   C25 2063   4.262   5.517   8.454  0.0675  0.2903  0.4060
   28CHL1   H25 2064   4.173   5.449   8.454 -0.1077  0.5221 -0.5291
   28CHL1   C26 2065   4.221   5.652   8.393  0.4710 -0.1635 -0.0623
   28CHL1  H26A 2066   4.295   5.724   8.435  0.3026 -2.2036  4.0194
   28CHL1  H26B 2067   4.217   5.643   8.283 -0.1588  0.1928 -0.0706
   28CHL1  H26C 2068   4.125   5.689   8.435  0.4815  1.1053 -1.1287
   28CHL1   C27 2069   4.375   5.457   8.372 -0.6848 -0.6618  0.0589
   28CHL1  H27A 2070   4.345   5.448   8.266  0.2934  0.3901 -0.3107
   28CHL1  H27B 2071   4.463   5.524   8.367 -1.2084 -0.0095 -0.3426
   28CHL1  H27C 2072   4.407   5.357   8.410 -1.0294 -0.8515 -0.1489
   29CHL1    C3 2073   0.167   4.169   6.488  0.4657 -0.1421 -0.1924
   29CHL1    H3 2074   0.271   4.194   6.515 -0.0889  1.2303  0.7209
   29CHL1    O3 2075   0.177   4.117   6.355  0.0638 -0.4001  0.1999
   29CHL1   H3' 2076   0.087   4.129   6.323  1.4459  1.1417 -3.4586
   29CHL1    C4 2077   0.134   4.045   6.573  0.4683  0.8147  0.2735
   29CHL1   H4A 2078   0.040   3.996   6.538 -0.7414  0.3495  3.9201
   29CHL1   H4B 2079   0.219   3.974   6.565 -1.1521 -1.2094  0.5722
   29CHL1    C5 2080   0.109   4.079   6.716  0.2377 -0.1757 -0.6964
   29CHL1    C6 2081   0.175   4.003   6.807 -0.1892  0.0673  0.2459
   29CHL1    H6 2082   0.229   3.911   6.783 -0.3329 -0.1052  0.5869
   29CHL1    C7 2083   0.158   4.023   6.956 -0.2406  0.5589 -0.5830
   29CHL1   H7A 2084   0.141   3.925   7.005 -0.5037  0.7755 -0.2390
   29CHL1   H7B 2085   0.243   4.071   7.009 -0.6038  0.6342 -0.0692
   29CHL1    C8 2086   0.032   4.103   6.982 -1.1019 -1.0576  0.3326
   29CHL1    H8 2087  -0.057   4.043   6.954 -3.6123  3.8750 -2.7970
   29CHL1   C14 2088   0.028   4.147   7.129  0.2710  0.2862  0.0253
   29CHL1   H14 2089   0.112   4.217   7.146 -0.5518  1.0324  1.0694
   29CHL1   C15 2090   0.051   4.037   7.242 -0.3103 -0.4205  0.3433
   29CHL1  H15A 2091  -0.014   3.949   7.222 -0.4836 -0.1480 -0.3130
   29CHL1  H15B 2092   0.155   3.999   7.243 -0.2949 -0.3631  1.0895
   29CHL1   C16 2093  -0.001   4.098   7.375  0.4369 -0.1054 -1.0094
   29CHL1  H16A 2094  -0.072   4.041   7.439  1.2838 -1.2798 -1.1017
   29CHL1  H16B 2095   0.082   4.101   7.449 -0.1334 -1.3508 -0.3039
   29CHL1   C17 2096  -0.068   4.240   7.333 -0.4667  0.0291 -0.3987
   29CHL1   H17 2097   0.019   4.306   7.355  1.3507 -1.9345 -1.3870
   29CHL1   C13 2098  -0.090   4.235   7.182 -0.0108  0.5638 -0.1753
   29CHL1   C18 2099  -0.219   4.153   7.145  0.3485  0.0771  0.1569
   29CHL1  H18A 2100  -0.222   4.053   7.194  0.0138 -0.4600 -0.9565
   29CHL1  H18B 2101  -0.315   4.204   7.167  0.7202  1.4466 -1.3764
   29CHL1  H18C 2102  -0.229   4.131   7.037  0.3346 -1.7568  0.5047
   29CHL1   C12 2103  -0.086   4.365   7.098 -0.0370 -0.9676 -0.8922
   29CHL1  H12A 2104  -0.171   4.434   7.116  0.9813 -0.1151  0.6585
   29CHL1  H12B 2105   0.003   4.414   7.142 -0.0278 -1.2793 -0.5610
   29CHL1   C11 2106  -0.073   4.334   6.945 -0.0134  0.0430  0.7094
   29CHL1  H11A 2107  -0.170   4.292   6.910  1.0663  1.5638 -4.5072
   29CHL1  H11B 2108  -0.074   4.434   6.896 -1.9565 -0.3838 -0.1996
   29CHL1    C9 2109   0.037   4.233   6.902  0.0288  0.0516 -0.0825
   29CHL1    H9 2110   0.134   4.281   6.926 -0.8035  1.8952 -0.2358
   29CHL1   C10 2111   0.025   4.204   6.747  0.0213  0.3964 -0.6600
   29CHL1   C19 2112  -0.122   4.178   6.720 -0.1503 -0.5708  1.2875
   29CHL1  H19A 2113  -0.176   4.107   6.786  1.3477 -0.4928  2.6205
   29CHL1  H19B 2114  -0.178   4.274   6.713  1.2203  0.2571  1.4885
   29CHL1  H19C 2115  -0.131   4.144   6.615  2.7462  3.2818 -0.3310
   29CHL1    C1 2116   0.067   4.326   6.655  0.3378 -0.2193  0.3370
   29CHL1   H1A 2117   0.000   4.415   6.656 -1.4364 -1.5178  0.4188
   29CHL1   H1B 2118   0.166   4.366   6.684  0.1413  1.2592 -0.9925
   29CHL1    C2 2119   0.070   4.290   6.503 -0.2147 -0.0550  0.3754
   29CHL1   H2A 2120   0.112   4.378   6.450  0.8685 -0.5038  0.4648
   29CHL1   H2B 2121  -0.025   4.266   6.452 -0.1828  0.8852 -0.1384
   29CHL1   C20 2122  -0.190   4.273   7.423 -1.0121 -0.9852 -0.0832
   29CHL1   H20 2123  -0.258   4.186   7.410 -0.1648 -1.2444 -3.3258
   29CHL1   C21 2124  -0.264   4.395   7.372 -0.3743  0.0981  0.5349
   29CHL1  H21A 2125  -0.348   4.417   7.440  1.2663  1.4659  2.1913
   29CHL1  H21B 2126  -0.319   4.381   7.277 -2.1246 -2.6701  1.9059
   29CHL1  H21C 2127  -0.205   4.489   7.382 -1.8074  0.8159  2.3968
   29CHL1   C22 2128  -0.152   4.281   7.570  0.1375 -0.5055  0.3318
   29CHL1  H22A 2129  -0.122   4.180   7.605  0.1527  0.0554  1.9920
   29CHL1  H22B 2130  -0.065   4.350   7.575  1.1773 -1.8210  0.4447
   29CHL1   C23 2131  -0.264   4.317   7.669 -0.4832 -0.0662  0.8240
   29CHL1  H23A 2132  -0.292   4.425   7.663  0.4205  0.1325  0.0439
   29CHL1  H23B 2133  -0.359   4.259   7.665 -1.1841  1.1802 -2.2870
   29CHL1   C24 2134  -0.211   4.310   7.813 -0.2773  0.3835  0.0171
   29CHL1  H24A 2135  -0.180   4.205   7.834 -0.6503  0.4316  0.8210
   29CHL1  H24B 2136  -0.135   4.390   7.825 -1.4867  1.7376 -1.1401
   29CHL1   C25 2137  -0.314   4.354   7.918 -0.9817  0.1247  0.1698
   29CHL1   H25 2138  -0.341   4.457   7.886 -1.5124 -0.1828 -0.3619
   29CHL1   C26 2139  -0.432   4.265   7.935  0.4346  0.1072 -0.3198
   29CHL1  H26A 2140  -0.391   4.178   7.990 -0.0301  0.8018  1.1732
   29CHL1  H26B 2141  -0.504   4.316   8.002 -1.3299 -1.1873 -1.1819
   29CHL1  H26C 2142  -0.474   4.229   7.838  2.4873 -0.4924 -0.9973
   29CHL1   C27 2143  -0.251   4.384   8.058 -0.4030  0.4857 -0.4988
   29CHL1  H27A 2144  -0.199   4.294   8.099 -1.6418 -1.5081 -3.1425
   29CHL1  H27B 2145  -0.178   4.466   8.045  0.7466 -0.4920 -0.2881
   29CHL1  H27C 2146  -0.334   4.410   8.128  0.7262  1.1258  0.6210
   30CHL1    C3 2147   5.218   2.949   7.398  0.9941  0.1237 -0.3032
   30CHL1    H3 2148   5.165   3.037   7.438  2.6204 -0.4149  3.1934
   30CHL1    O3 2149   5.192   2.946   7.255  0.2974 -0.3482 -0.4634
   30CHL1   H3' 2150   5.234   3.021   7.210 -2.7251  1.1695 -0.8507
   30CHL1    C4 2151   5.368   2.982   7.407  0.5919  0.1099  0.2456
   30CHL1   H4A 2152   5.436   2.913   7.352 -1.2411 -0.3242 -1.5306
   30CHL1   H4B 2153   5.382   3.078   7.355 -2.2788 -0.2631 -1.3149
   30CHL1    C5 2154   5.394   2.987   7.558 -0.4279 -0.2428 -0.6658
   30CHL1    C6 2155   5.444   3.104   7.615  0.4328 -0.2807  0.6389
   30CHL1    H6 2156   5.474   3.185   7.546  0.3516 -0.1690  0.7331
   30CHL1    C7 2157   5.471   3.133   7.766  0.7312  0.4428  0.5442
   30CHL1   H7A 2158   5.569   3.185   7.779  0.4622  0.4784  2.5341
   30CHL1   H7B 2159   5.380   3.186   7.802  0.7625  0.2005  0.9840
   30CHL1    C8 2160   5.482   2.992   7.831 -0.5386 -0.5374 -0.4070
   30CHL1    H8 2161   5.580   2.949   7.802 -0.5786 -2.2178  1.8860
   30CHL1   C14 2162   5.477   3.018   7.980 -0.4050  0.1431 -0.4698
   30CHL1   H14 2163   5.379   3.065   8.003 -1.0876 -0.9801 -1.0318
   30CHL1   C15 2164   5.582   3.112   8.049 -0.6774  0.5911  0.1036
   30CHL1  H15A 2165   5.680   3.075   8.012 -0.6930  0.6582 -0.0074
   30CHL1  H15B 2166   5.567   3.217   8.015  2.4633  1.2660  0.6168
   30CHL1   C16 2167   5.568   3.094   8.196  0.7208  0.3602 -0.2239
   30CHL1  H16A 2168   5.662   3.072   8.251 -0.3000 -0.1823  1.3381
   30CHL1  H16B 2169   5.515   3.182   8.238  1.9894  0.8038  0.4894
   30CHL1   C17 2170   5.480   2.963   8.212 -0.4736  0.0576 -0.0012
   30CHL1   H17 2171   5.375   2.996   8.219  0.2555  2.6525 -0.6623
   30CHL1   C13 2172   5.477   2.894   8.071 -0.6804 -0.0308  0.4337
   30CHL1   C18 2173   5.612   2.817   8.053 -0.4612 -0.6328  0.0276
   30CHL1  H18A 2174   5.635   2.803   7.945  1.8330  3.1602 -0.0905
   30CHL1  H18B 2175   5.698   2.877   8.090  1.0388 -1.4362 -2.0617
   30CHL1  H18C 2176   5.611   2.726   8.117  0.6347 -1.4137 -1.0524
   30CHL1   C12 2177   5.372   2.790   8.031 -0.0421  0.5126 -0.0046
   30CHL1  H12A 2178   5.386   2.687   8.071 -0.3605  1.0447  1.4881
   30CHL1  H12B 2179   5.271   2.810   8.073  0.3593 -1.2839  1.8968
   30CHL1   C11 2180   5.369   2.760   7.882 -0.0786  0.2851  0.0316
   30CHL1  H11A 2181   5.457   2.693   7.866  0.7592  1.3561  0.1085
   30CHL1  H11B 2182   5.282   2.692   7.869  0.4170 -0.4158  0.3307
   30CHL1    C9 2183   5.367   2.897   7.798 -0.3429  0.5038 -0.5635
   30CHL1    H9 2184   5.271   2.938   7.835 -0.8166 -0.5280 -0.6342
   30CHL1   C10 2185   5.357   2.865   7.647 -0.0874 -0.7617 -0.4327
   30CHL1   C19 2186   5.446   2.746   7.619  0.6998 -0.3107 -0.4646
   30CHL1  H19A 2187   5.554   2.750   7.646  0.2079  0.2712  1.4786
   30CHL1  H19B 2188   5.414   2.650   7.665 -1.7644  0.4983 -0.4363
   30CHL1  H19C 2189   5.444   2.731   7.509  0.7043  2.5916 -0.9014
   30CHL1    C1 2190   5.211   2.836   7.611 -0.7439 -0.4968  0.4131
   30CHL1   H1A 2191   5.181   2.746   7.668  1.0299 -1.6327 -0.4149
   30CHL1   H1B 2192   5.149   2.922   7.644  1.1464  0.9972  0.1863
   30CHL1    C2 2193   5.171   2.820   7.469 -0.0078  0.2363  0.4686
   30CHL1   H2A 2194   5.062   2.808   7.451  0.0271  2.4430 -1.4707
   30CHL1   H2B 2195   5.221   2.732   7.424 -0.7735 -0.2953  0.6476
   30CHL1   C20 2196   5.505   2.873   8.339  0.1096 -0.1012 -1.3352
   30CHL1   H20 2197   5.607   2.831   8.336  0.4793  0.6905 -0.2643
   30CHL1   C21 2198   5.399   2.759   8.362 -0.4182  0.4080  0.1419
   30CHL1  H21A 2199   5.430   2.701   8.452 -0.6267  1.2514  0.7758
   30CHL1  H21B 2200   5.403   2.691   8.275 -0.1287  0.7765 -0.1331
   30CHL1  H21C 2201   5.303   2.805   8.393  0.5503  0.4071  3.4049
   30CHL1   C22 2202   5.503   2.948   8.473  0.7692  0.3205 -0.1727
   30CHL1  H22A 2203   5.498   2.877   8.558  0.5966  1.3678  0.7023
   30CHL1  H22B 2204   5.600   3.000   8.487  0.6540  0.9256 -1.5402
   30CHL1   C23 2205   5.393   3.055   8.485  0.2783 -0.1477  0.4674
   30CHL1  H23A 2206   5.416   3.151   8.434 -1.7597  0.4029  0.5529
   30CHL1  H23B 2207   5.298   3.012   8.448 -0.4609  1.0151  1.0070
   30CHL1   C24 2208   5.355   3.076   8.629 -0.5366 -0.5975  0.0793
   30CHL1  H24A 2209   5.327   2.981   8.679 -0.8531 -0.2567  0.5534
   30CHL1  H24B 2210   5.444   3.117   8.681 -2.9159  0.4504  3.5039
   30CHL1   C25 2211   5.245   3.179   8.653  0.7964 -0.2608 -0.1844
   30CHL1   H25 2212   5.217   3.174   8.760  0.3497  1.2737 -0.2106
   30CHL1   C26 2213   5.285   3.336   8.628 -0.6214 -0.2011  0.2235
   30CHL1  H26A 2214   5.304   3.366   8.523 -1.2280 -2.1053 -0.4477
   30CHL1  H26B 2215   5.202   3.396   8.673 -2.5592 -2.0906 -0.7644
   30CHL1  H26C 2216   5.376   3.363   8.686  0.2151  0.3927 -1.3376
   30CHL1   C27 2217   5.117   3.146   8.573  0.5558  0.8902  0.0939
   30CHL1  H27A 2218   5.038   3.208   8.619  2.1457  1.0568  2.6615
   30CHL1  H27B 2219   5.114   3.162   8.463 -0.2939 -3.7910 -0.6733
   30CHL1  H27C 2220   5.091   3.038   8.584  0.1229  1.0286  0.4112
   31CHL1    C3 2221   4.555   4.433   6.629  0.2002  0.3196  0.5129
   31CHL1    H3 2222   4.636   4.358   6.646 -0.5140 -0.4182  0.6604
   31CHL1    O3 2223   4.553   4.464   6.490 -0.2479 -0.0413  0.4534
   31CHL1   H3' 2224   4.514   4.387   6.448 -1.9476  1.3360 -0.5632
   31CHL1    C4 2225   4.421   4.383   6.683 -0.2650  0.5396  0.0864
   31CHL1   H4A 2226   4.342   4.453   6.648 -1.5833 -0.7394  0.4876
   31CHL1   H4B 2227   4.399   4.290   6.626 -0.7075 -0.7959  2.3678
   31CHL1    C5 2228   4.413   4.385   6.837 -0.1584 -0.0417 -0.0527
   31CHL1    C6 2229   4.370   4.278   6.912  0.4321 -0.3788 -0.7096
   31CHL1    H6 2230   4.330   4.185   6.870 -2.1821 -0.0686  0.9648
   31CHL1    C7 2231   4.343   4.298   7.063 -0.1398  0.0665 -0.0008
   31CHL1   H7A 2232   4.241   4.270   7.096 -0.5792  0.8652 -0.6592
   31CHL1   H7B 2233   4.415   4.236   7.121 -1.4040 -0.3410  1.1419
   31CHL1    C8 2234   4.348   4.447   7.125  0.3171  0.5507  0.0544
   31CHL1    H8 2235   4.248   4.494   7.108 -0.2663 -0.7062 -0.0283
   31CHL1   C14 2236   4.372   4.437   7.274 -0.8380  0.1613  0.1600
   31CHL1   H14 2237   4.471   4.388   7.284 -0.7745  0.5228  1.4837
   31CHL1   C15 2238   4.268   4.363   7.361  0.3167  0.9899 -0.1153
   31CHL1  H15A 2239   4.164   4.391   7.334  0.0416  2.1977  2.1549
   31CHL1  H15B 2240   4.280   4.253   7.344  1.4605  0.9517  0.8923
   31CHL1   C16 2241   4.307   4.392   7.502 -0.2253  0.1319  0.0012
   31CHL1  H16A 2242   4.219   4.416   7.565 -0.1856 -1.2501  0.5959
   31CHL1  H16B 2243   4.358   4.310   7.557 -2.0404 -0.7432  0.4140
   31CHL1   C17 2244   4.396   4.514   7.496 -0.0882  0.0611 -0.8286
   31CHL1   H17 2245   4.501   4.478   7.507 -0.2384  0.3102  1.6359
   31CHL1   C13 2246   4.389   4.569   7.348  0.3495 -0.2082  0.1312
   31CHL1   C18 2247   4.262   4.652   7.327 -0.3139 -0.4728 -0.1571
   31CHL1  H18A 2248   4.179   4.629   7.398 -0.8883  3.6594  0.6665
   31CHL1  H18B 2249   4.291   4.755   7.355 -1.2055  0.0958 -1.3025
   31CHL1  H18C 2250   4.228   4.654   7.222 -1.3469  0.7870  0.1896
   31CHL1   C12 2251   4.505   4.641   7.296 -0.1496  0.8422  0.6307
   31CHL1  H12A 2252   4.504   4.743   7.339 -0.5461  0.5155  1.4067
   31CHL1  H12B 2253   4.603   4.594   7.321 -0.6113  0.6772  2.1596
   31CHL1   C11 2254   4.498   4.652   7.140 -0.2732  0.1174 -0.1495
   31CHL1  H11A 2255   4.406   4.713   7.126  0.7587  2.1389  1.5663
   31CHL1  H11B 2256   4.587   4.706   7.103  0.2581  0.6131  1.7595
   31CHL1    C9 2257   4.471   4.520   7.066 -0.6994 -0.1863 -0.4402
   31CHL1    H9 2258   4.559   4.458   7.094  0.8216  2.4874  0.8822
   31CHL1   C10 2259   4.462   4.519   6.911 -0.0594 -0.3749  0.2705
   31CHL1   C19 2260   4.352   4.632   6.885 -0.9790 -0.3827 -0.0176
   31CHL1  H19A 2261   4.387   4.730   6.922  2.0120 -0.5222 -2.3346
   31CHL1  H19B 2262   4.340   4.659   6.777  2.1167 -2.0020 -0.8339
   31CHL1  H19C 2263   4.258   4.599   6.933 -1.0426 -0.1825 -0.0012
   31CHL1    C1 2264   4.597   4.565   6.858  0.6549 -0.2532 -0.7004
   31CHL1   H1A 2265   4.629   4.668   6.884 -0.7691  0.3040 -1.1013
   31CHL1   H1B 2266   4.672   4.497   6.903 -0.0826  0.3305  1.4438
   31CHL1    C2 2267   4.604   4.561   6.697 -0.0506  0.3614 -0.4422
   31CHL1   H2A 2268   4.711   4.581   6.674  0.1765 -0.2683  0.0438
   31CHL1   H2B 2269   4.541   4.648   6.669 -2.5300 -1.0769  0.5130
   31CHL1   C20 2270   4.381   4.613   7.619 -0.1541 -0.6569 -0.0924
   31CHL1   H20 2271   4.274   4.639   7.606  0.4197  0.3973 -3.2271
   31CHL1   C21 2272   4.475   4.730   7.614  0.2479 -0.5939  0.0557
   31CHL1  H21A 2273   4.578   4.697   7.589 -0.4566 -3.9330  1.3139
   31CHL1  H21B 2274   4.468   4.776   7.715  1.3889  0.5295 -0.3697
   31CHL1  H21C 2275   4.448   4.806   7.538  1.2400 -2.0676 -1.8068
   31CHL1   C22 2276   4.383   4.533   7.755  0.2591 -0.0383 -0.0580
   31CHL1  H22A 2277   4.342   4.431   7.740 -0.7429  0.1302  1.3499
   31CHL1  H22B 2278   4.486   4.522   7.796 -0.1591 -1.0008  0.7568
   31CHL1   C23 2279   4.300   4.592   7.869  0.3970  0.3120 -0.1184
   31CHL1  H23A 2280   4.315   4.700   7.893 -0.1206  0.4630 -0.4665
   31CHL1  H23B 2281   4.199   4.588   7.822  0.0379  3.0373  0.3491
   31CHL1   C24 2282   4.301   4.501   7.993  0.2312 -0.8771  0.1784
   31CHL1  H24A 2283   4.196   4.481   8.024  0.0688 -0.8089 -0.3353
   31CHL1  H24B 2284   4.347   4.405   7.964 -0.4406 -0.9134 -0.7942
   31CHL1   C25 2285   4.376   4.556   8.115  0.2245 -0.1616 -0.6517
   31CHL1   H25 2286   4.478   4.592   8.088 -1.1308  2.8800 -1.9633
   31CHL1   C26 2287   4.310   4.688   8.168 -0.4761 -0.0216  0.0359
   31CHL1  H26A 2288   4.322   4.768   8.092 -1.8171  1.4411  1.3074
   31CHL1  H26B 2289   4.201   4.676   8.189 -0.6772 -1.1535 -1.6398
   31CHL1  H26C 2290   4.364   4.724   8.258 -1.6766  0.8383  0.4235
   31CHL1   C27 2291   4.387   4.449   8.224  0.7383 -0.2335  0.0255
   31CHL1  H27A 2292   4.471   4.378   8.210  0.7992  0.1133 -1.4143
   31CHL1  H27B 2293   4.290   4.395   8.229  1.0812 -0.7716  0.9718
   31CHL1  H27C 2294   4.398   4.494   8.325  1.2382 -0.4938  0.0883
   32CHL1    C3 2295   5.997   2.992   6.756 -0.5463 -0.5574 -0.1479
   32CHL1    H3 2296   5.970   2.885   6.768 -2.6977 -0.4393 -3.4551
   32CHL1    O3 2297   5.993   3.031   6.613 -0.3793 -0.2652 -0.0344
   32CHL1   H3' 2298   5.914   3.085   6.607 -0.2175  0.6014  4.1818
   32CHL1    C4 2299   5.887   3.070   6.829  0.3611 -1.2334  0.5224
   32CHL1   H4A 2300   5.900   3.179   6.808  2.1885 -1.5139  0.1172
   32CHL1   H4B 2301   5.787   3.038   6.792 -0.3202  1.9474 -0.6069
   32CHL1    C5 2302   5.891   3.063   6.977  0.1143  0.4174 -0.4835
   32CHL1    C6 2303   5.786   3.022   7.044  0.0796 -0.6076  0.0519
   32CHL1    H6 2304   5.700   2.990   6.984 -0.6344  1.0087  0.1873
   32CHL1    C7 2305   5.773   3.002   7.193 -0.1709  0.6148 -0.7365
   32CHL1   H7A 2306   5.689   3.060   7.237  0.3350 -0.2768  1.4874
   32CHL1   H7B 2307   5.766   2.895   7.221  0.0102  0.6908 -0.3954
   32CHL1    C8 2308   5.900   3.056   7.270  0.1574 -0.3156 -0.1204
   32CHL1    H8 2309   5.892   3.166   7.271  2.7412 -0.0787 -0.8696
   32CHL1   C14 2310   5.913   2.999   7.415 -0.2989  0.4536 -0.3248
   32CHL1   H14 2311   5.929   2.890   7.398 -2.3736 -0.0081  0.5184
   32CHL1   C15 2312   5.791   3.014   7.502  0.1820 -0.2708 -1.1256
   32CHL1  H15A 2313   5.746   3.115   7.488 -2.6006 -1.0740  1.4930
   32CHL1  H15B 2314   5.710   2.950   7.462 -0.2390 -1.5212  1.5593
   32CHL1   C16 2315   5.834   2.989   7.641  0.0380  0.3444  0.5243
   32CHL1  H16A 2316   5.796   3.057   7.720 -2.0591 -0.9240  0.6541
   32CHL1  H16B 2317   5.808   2.885   7.670 -0.9316  0.8420  1.4706
   32CHL1   C17 2318   5.997   2.994   7.639 -0.2758  0.2602  0.5759
   32CHL1   H17 2319   6.036   2.891   7.633  0.8564  0.6905  0.4940
   32CHL1   C13 2320   6.033   3.057   7.498  0.6978  0.5249 -0.3897
   32CHL1   C18 2321   6.018   3.213   7.512 -0.7508  0.0878  0.4122
   32CHL1  H18A 2322   6.018   3.265   7.414 -0.4438 -0.3867  0.1608
   32CHL1  H18B 2323   5.924   3.240   7.565 -0.7509  0.3982  0.2587
   32CHL1  H18C 2324   6.099   3.252   7.577  0.2721 -1.7571  0.2676
   32CHL1   C12 2325   6.162   3.020   7.427  0.4125 -0.3052 -0.0185
   32CHL1  H12A 2326   6.243   3.066   7.488 -0.3940 -0.1872  0.9644
   32CHL1  H12B 2327   6.169   2.910   7.412 -2.2174 -0.2121 -2.3269
   32CHL1   C11 2328   6.159   3.077   7.279  0.5363  0.2991 -0.2905
   32CHL1  H11A 2329   6.157   3.188   7.286  2.4508  0.3908 -0.7313
   32CHL1  H11B 2330   6.255   3.043   7.234  1.8663  4.5657 -0.8833
   32CHL1    C9 2331   6.029   3.032   7.198 -0.3775  0.3967 -0.0149
   32CHL1    H9 2332   6.040   2.922   7.192 -2.0170  0.2370 -0.2156
   32CHL1   C10 2333   6.028   3.078   7.051  0.6113 -0.4567  0.9374
   32CHL1   C19 2334   6.059   3.235   7.053 -0.3843  0.0572 -0.2319
   32CHL1  H19A 2335   6.168   3.255   7.064 -0.3237 -0.3140 -0.1788
   32CHL1  H19B 2336   6.022   3.292   6.965  1.7660  1.5141 -0.2326
   32CHL1  H19C 2337   6.009   3.280   7.142  2.0727 -0.4958  1.4671
   32CHL1    C1 2338   6.135   3.002   6.974 -0.7936  0.8367 -1.5121
   32CHL1   H1A 2339   6.238   3.025   7.010 -0.6787 -1.2058 -0.4313
   32CHL1   H1B 2340   6.125   2.892   6.982 -0.0602  0.7818 -1.3155
   32CHL1    C2 2341   6.133   3.021   6.820  1.4258 -1.0921 -0.2462
   32CHL1   H2A 2342   6.212   2.960   6.771  1.2972  0.6253 -2.6607
   32CHL1   H2B 2343   6.141   3.131   6.815 -0.8250 -0.8865  0.2059
   32CHL1   C20 2344   6.066   3.049   7.770 -0.2814 -0.3993 -0.5903
   32CHL1   H20 2345   6.032   3.155   7.779 -1.7388 -1.0013  1.4145
   32CHL1   C21 2346   6.217   3.030   7.749 -0.5310  0.7956 -0.4586
   32CHL1  H21A 2347   6.260   3.116   7.695  0.7349  1.3367  1.3677
   32CHL1  H21B 2348   6.240   2.930   7.705  1.6310  0.4095  1.4413
   32CHL1  H21C 2349   6.268   3.046   7.846 -0.4572  1.9463 -0.6800
   32CHL1   C22 2350   6.009   2.998   7.898  0.2503 -0.2982  0.0442
   32CHL1  H22A 2351   5.898   2.993   7.895  0.1995 -0.6533  1.7611
   32CHL1  H22B 2352   6.047   2.894   7.910  0.7415  0.0059  1.2134
   32CHL1   C23 2353   6.051   3.064   8.024  0.1004  0.1522 -0.1255
   32CHL1  H23A 2354   6.161   3.067   8.031  0.1190 -0.7054 -0.0962
   32CHL1  H23B 2355   6.013   3.169   8.020 -1.3061 -0.3109  0.4766
   32CHL1   C24 2356   5.987   3.004   8.147  0.0577  0.0027  0.2248
   32CHL1  H24A 2357   5.876   3.017   8.150  0.0074 -0.0972 -0.8338
   32CHL1  H24B 2358   5.997   2.895   8.162  0.4842 -0.3198 -2.1664
   32CHL1   C25 2359   6.039   3.070   8.285 -0.0590 -0.5513  0.5851
   32CHL1   H25 2360   6.041   3.178   8.256  0.4295 -0.8802 -0.6613
   32CHL1   C26 2361   5.932   3.052   8.390 -0.5614 -0.8405  0.2089
   32CHL1  H26A 2362   5.846   3.109   8.350  2.1062  1.1155 -2.9528
   32CHL1  H26B 2363   5.906   2.944   8.392 -0.3666 -0.9118 -0.9618
   32CHL1  H26C 2364   5.977   3.105   8.477 -1.6080  1.3855 -0.5841
   32CHL1   C27 2365   6.177   3.014   8.330  0.8252  0.5439 -0.1058
   32CHL1  H27A 2366   6.146   2.927   8.392 -3.8041  0.4094 -2.3298
   32CHL1  H27B 2367   6.245   2.970   8.254 -0.1008 -0.2645 -0.4848
   32CHL1  H27C 2368   6.242   3.087   8.382  0.0925  0.7849  0.4826
   33CHL1    C3 2369   6.725   2.567   6.611 -0.1644 -0.1648 -0.8238
   33CHL1    H3 2370   6.824   2.616   6.617  1.1872 -2.5873 -2.3734
   33CHL1    O3 2371   6.710   2.526   6.481  0.1876 -0.0173  1.3046
   33CHL1   H3' 2372   6.620   2.496   6.463  1.3998 -2.3589 -1.0740
   33CHL1    C4 2373   6.725   2.451   6.697  0.0663  0.2386 -0.0367
   33CHL1   H4A 2374   6.636   2.385   6.682 -1.3729  1.8366  1.2764
   33CHL1   H4B 2375   6.812   2.391   6.662 -1.2227 -1.1992 -0.8791
   33CHL1    C5 2376   6.717   2.473   6.842  0.3372  0.2278 -0.3350
   33CHL1    C6 2377   6.804   2.408   6.923  0.2520 -0.1774  0.3242
   33CHL1    H6 2378   6.868   2.333   6.874 -0.3746  0.2301 -1.1329
   33CHL1    C7 2379   6.798   2.414   7.074  0.5214 -1.1417  0.2640
   33CHL1   H7A 2380   6.809   2.319   7.130 -1.6847 -0.3544  2.1386
   33CHL1   H7B 2381   6.876   2.485   7.108  0.4263  0.3106 -2.4270
   33CHL1    C8 2382   6.663   2.482   7.133  0.2966 -0.5637  0.4983
   33CHL1    H8 2383   6.586   2.403   7.122  0.5913 -0.5239 -2.1283
   33CHL1   C14 2384   6.677   2.537   7.274 -0.5484 -0.0709 -0.0853
   33CHL1   H14 2385   6.751   2.620   7.268 -1.6413  0.9191 -0.2244
   33CHL1   C15 2386   6.739   2.437   7.366 -0.7528 -0.5235 -0.2809
   33CHL1  H15A 2387   6.688   2.340   7.353 -0.7220 -0.7284  1.0461
   33CHL1  H15B 2388   6.850   2.429   7.369 -0.7206 -0.0859 -0.2268
   33CHL1   C16 2389   6.691   2.505   7.505  0.4265 -0.3973 -0.2348
   33CHL1  H16A 2390   6.643   2.428   7.568 -1.3173  1.0138  0.2061
   33CHL1  H16B 2391   6.774   2.558   7.557 -0.0924  0.4220 -0.2211
   33CHL1   C17 2392   6.585   2.613   7.476  0.6383  0.9476 -0.2160
   33CHL1   H17 2393   6.647   2.703   7.495  0.3569  0.2765  4.3816
   33CHL1   C13 2394   6.544   2.594   7.325  0.5476 -0.5701 -0.1264
   33CHL1   C18 2395   6.433   2.486   7.315 -0.0615 -0.3542 -0.7544
   33CHL1  H18A 2396   6.468   2.393   7.365  1.9637  2.4320  3.3402
   33CHL1  H18B 2397   6.348   2.526   7.375  1.1725 -0.6325  1.2517
   33CHL1  H18C 2398   6.400   2.464   7.211 -0.8338  1.6248 -0.9557
   33CHL1   C12 2399   6.522   2.720   7.242  0.6663  0.0930 -1.0479
   33CHL1  H12A 2400   6.439   2.785   7.277  1.6399  0.3190  0.8862
   33CHL1  H12B 2401   6.610   2.786   7.253 -2.3991  3.9099  1.7087
   33CHL1   C11 2402   6.505   2.688   7.092  0.3175 -0.4676  0.1592
   33CHL1  H11A 2403   6.402   2.648   7.078  0.0638  0.8402 -1.8799
   33CHL1  H11B 2404   6.504   2.786   7.040  1.8613 -0.4103  0.2134
   33CHL1    C9 2405   6.621   2.601   7.041  0.2776 -0.1821  0.4794
   33CHL1    H9 2406   6.708   2.669   7.050 -0.9496  1.7242 -1.5711
   33CHL1   C10 2407   6.606   2.560   6.891 -0.1089  0.2223  0.9576
   33CHL1   C19 2408   6.467   2.495   6.871  0.3344 -0.2343  0.2674
   33CHL1  H19A 2409   6.459   2.416   6.949 -2.0054  0.4387  0.7406
   33CHL1  H19B 2410   6.387   2.571   6.881 -0.0758 -1.0121  3.1442
   33CHL1  H19C 2411   6.459   2.450   6.769  0.6889 -0.2985  0.2655
   33CHL1    C1 2412   6.613   2.692   6.804  0.7255 -0.0438 -0.0653
   33CHL1   H1A 2413   6.523   2.756   6.822 -0.8995 -1.9522 -1.2105
   33CHL1   H1B 2414   6.708   2.748   6.817  1.4945 -0.6394 -2.9013
   33CHL1    C2 2415   6.606   2.661   6.654 -0.4339  0.5424  0.3852
   33CHL1   H2A 2416   6.613   2.753   6.593 -0.1583  0.1421 -0.1874
   33CHL1   H2B 2417   6.506   2.620   6.631 -1.1311  2.6500 -0.4076
   33CHL1   C20 2418   6.479   2.616   7.583  0.0731 -0.4040 -0.1485
   33CHL1   H20 2419   6.429   2.517   7.573 -1.0032 -0.1243  2.1231
   33CHL1   C21 2420   6.378   2.734   7.551  0.0384 -0.4325 -0.6713
   33CHL1  H21A 2421   6.341   2.743   7.446 -2.8597  1.6028  0.4469
   33CHL1  H21B 2422   6.435   2.824   7.583  0.0267 -0.4736 -0.5383
   33CHL1  H21C 2423   6.287   2.730   7.613  0.3451  1.4675 -0.0432
   33CHL1   C22 2424   6.532   2.635   7.728 -0.2026  0.2583  0.2558
   33CHL1  H22A 2425   6.625   2.583   7.758  0.1809  1.3739  1.0217
   33CHL1  H22B 2426   6.555   2.743   7.737 -1.6942  0.6105 -0.0407
   33CHL1   C23 2427   6.431   2.585   7.833 -0.0061  0.0717 -0.3652
   33CHL1  H23A 2428   6.328   2.618   7.805 -0.6803 -0.8876  0.9331
   33CHL1  H23B 2429   6.434   2.474   7.831 -0.5035  0.0581 -0.4631
   33CHL1   C24 2430   6.466   2.630   7.971  0.0600  0.6583 -0.9476
   33CHL1  H24A 2431   6.569   2.607   8.006 -1.4119 -2.2462  1.6238
   33CHL1  H24B 2432   6.462   2.740   7.985  1.4052  0.3890  1.8666
   33CHL1   C25 2433   6.374   2.588   8.088  0.1646 -0.2840 -0.2830
   33CHL1   H25 2434   6.411   2.602   8.192  0.2723 -0.5684 -0.2830
   33CHL1   C26 2435   6.238   2.668   8.077 -0.7819 -0.2515  0.5581
   33CHL1  H26A 2436   6.175   2.637   7.991  0.1240  2.1361 -1.0138
   33CHL1  H26B 2437   6.185   2.650   8.173  0.4919 -0.2734  1.2732
   33CHL1  H26C 2438   6.250   2.778   8.074  0.5992 -0.3163  2.5220
   33CHL1   C27 2439   6.337   2.432   8.080 -0.7692  0.0239  0.4061
   33CHL1  H27A 2440   6.434   2.378   8.084  0.0748  1.5710  1.4006
   33CHL1  H27B 2441   6.277   2.408   8.171 -1.4863  1.1372  0.2344
   33CHL1  H27C 2442   6.285   2.410   7.985  1.8481  3.3226 -1.8726
   34CHL1    C3 2443   1.116   1.441   7.192  0.3449 -0.4698  0.3008
   34CHL1    H3 2444   1.016   1.457   7.237 -0.2184 -0.6252 -0.8637
   34CHL1    O3 2445   1.090   1.472   7.058 -0.2901 -0.2255 -0.7125
   34CHL1   H3' 2446   1.151   1.422   7.004 -0.7055 -0.4522 -0.9673
   34CHL1    C4 2447   1.212   1.540   7.256  0.0186  0.3920  0.2164
   34CHL1   H4A 2448   1.303   1.538   7.192 -0.3405 -2.6448 -0.2808
   34CHL1   H4B 2449   1.174   1.643   7.239 -1.7276 -0.5649 -1.8733
   34CHL1    C5 2450   1.233   1.507   7.405 -0.1776 -0.6892  0.5307
   34CHL1    C6 2451   1.202   1.602   7.495  0.3063 -0.6892  0.3487
   34CHL1    H6 2452   1.161   1.695   7.453 -0.2816 -1.2017 -0.2338
   34CHL1    C7 2453   1.222   1.589   7.647  0.1753 -0.4732  0.3780
   34CHL1   H7A 2454   1.254   1.680   7.701 -0.1201  0.3199 -0.7665
   34CHL1   H7B 2455   1.118   1.584   7.684  0.2030 -3.9132  0.1333
   34CHL1    C8 2456   1.290   1.449   7.682 -0.7033  0.3268  1.0262
   34CHL1    H8 2457   1.399   1.468   7.670 -0.9810  0.0076 -2.6721
   34CHL1   C14 2458   1.261   1.409   7.820 -0.1750  0.1319  0.0231
   34CHL1   H14 2459   1.153   1.382   7.825 -0.4477  1.1810 -0.1582
   34CHL1   C15 2460   1.286   1.511   7.930 -0.2339  0.4445 -0.2499
   34CHL1  H15A 2461   1.362   1.586   7.900 -0.5219  1.0734  0.5851
   34CHL1  H15B 2462   1.197   1.575   7.950 -1.0868  0.1444 -2.8820
   34CHL1   C16 2463   1.327   1.437   8.057 -0.1723 -0.2127  0.3928
   34CHL1  H16A 2464   1.434   1.460   8.075 -0.0982  0.8424 -1.2767
   34CHL1  H16B 2465   1.261   1.451   8.145 -1.0636 -4.2874  0.4693
   34CHL1   C17 2466   1.316   1.280   8.017 -0.1452  0.3829  0.4550
   34CHL1   H17 2467   1.209   1.253   8.032 -0.4875  1.6754  0.3577
   34CHL1   C13 2468   1.332   1.280   7.862 -0.2307 -0.1411 -0.2496
   34CHL1   C18 2469   1.490   1.283   7.839 -0.0800 -0.0466  0.0190
   34CHL1  H18A 2470   1.531   1.379   7.875  0.1757 -0.1668  0.0506
   34CHL1  H18B 2471   1.545   1.196   7.882  0.2104  1.5887  3.0518
   34CHL1  H18C 2472   1.510   1.294   7.730 -1.2067  4.2327  0.1569
   34CHL1   C12 2473   1.261   1.167   7.790 -0.7306  0.2056 -0.0379
   34CHL1  H12A 2474   1.308   1.069   7.812  0.6102  1.1510  1.4467
   34CHL1  H12B 2475   1.157   1.155   7.826 -1.2266  0.6980 -1.2809
   34CHL1   C11 2476   1.286   1.191   7.642 -0.1719  0.5517  0.9576
   34CHL1  H11A 2477   1.392   1.167   7.621  0.2553  3.2113 -0.1537
   34CHL1  H11B 2478   1.237   1.111   7.583  0.4211 -1.1713  2.7266
   34CHL1    C9 2479   1.238   1.331   7.595 -0.2996 -0.6659 -0.1089
   34CHL1    H9 2480   1.128   1.335   7.606 -0.3323  0.4970 -0.7617
   34CHL1   C10 2481   1.264   1.362   7.445  0.0715  0.4959  0.0560
   34CHL1   C19 2482   1.422   1.337   7.419 -0.2419 -0.1445 -0.6529
   34CHL1  H19A 2483   1.485   1.406   7.479  0.0680  0.3825 -1.5801
   34CHL1  H19B 2484   1.449   1.230   7.433  0.4585  0.1438  0.2448
   34CHL1  H19C 2485   1.445   1.352   7.312 -0.6302 -1.9804 -1.0092
   34CHL1    C1 2486   1.172   1.266   7.360  0.4482  0.8126  0.2383
   34CHL1   H1A 2487   1.201   1.160   7.374 -1.2744  0.2041 -0.6180
   34CHL1   H1B 2488   1.068   1.284   7.397  0.3383  0.4759  0.0993
   34CHL1    C2 2489   1.159   1.298   7.206 -0.8704 -0.2793 -0.3410
   34CHL1   H2A 2490   1.082   1.230   7.163  1.0123 -3.0994  0.6487
   34CHL1   H2B 2491   1.255   1.298   7.149 -0.6662 -0.6104  0.0041
   34CHL1   C20 2492   1.402   1.185   8.107  0.2365 -0.4765 -0.0520
   34CHL1   H20 2493   1.508   1.218   8.098 -0.3629  1.3849 -0.3802
   34CHL1   C21 2494   1.399   1.033   8.070 -0.1626  0.6889  0.3311
   34CHL1  H21A 2495   1.297   0.994   8.090  0.0180 -0.4808 -0.9263
   34CHL1  H21B 2496   1.480   0.983   8.127 -0.2045 -2.1037 -1.9657
   34CHL1  H21C 2497   1.426   1.014   7.964  0.2816 -0.2614  0.6130
   34CHL1   C22 2498   1.375   1.206   8.257  0.0434  0.7530 -0.4076
   34CHL1  H22A 2499   1.444   1.137   8.309 -0.8451  0.7005  0.7337
   34CHL1  H22B 2500   1.403   1.310   8.285 -0.4041  0.2004  2.2479
   34CHL1   C23 2501   1.230   1.185   8.309 -0.5225 -0.8431 -0.3527
   34CHL1  H23A 2502   1.154   1.232   8.243  0.1841  0.6762 -0.1102
   34CHL1  H23B 2503   1.220   1.075   8.294  3.3944 -1.1258 -1.4555
   34CHL1   C24 2504   1.213   1.226   8.458  0.0845  0.8430 -0.0204
   34CHL1  H24A 2505   1.206   1.337   8.461  0.3260  0.8139  2.1973
   34CHL1  H24B 2506   1.120   1.185   8.502  0.2586  0.2572 -0.1897
   34CHL1   C25 2507   1.323   1.168   8.557 -0.5820 -0.0691 -0.2560
   34CHL1   H25 2508   1.430   1.171   8.526 -0.9311  0.6604 -1.4041
   34CHL1   C26 2509   1.316   1.247   8.683  0.2370 -0.5444  0.2527
   34CHL1  H26A 2510   1.402   1.225   8.749  0.3452 -0.2112  0.2270
   34CHL1  H26B 2511   1.316   1.357   8.664 -0.5639 -0.4887  0.5269
   34CHL1  H26C 2512   1.225   1.218   8.740 -0.5066 -1.4079 -1.3671
   34CHL1   C27 2513   1.303   1.021   8.575 -1.1795  0.2455 -0.1577
   34CHL1  H27A 2514   1.215   1.006   8.641 -0.4164  1.1940  1.1107
   34CHL1  H27B 2515   1.289   0.976   8.475 -0.1451  0.4133 -0.3900
   34CHL1  H27C 2516   1.390   0.968   8.619  0.5964 -0.4179 -4.2089
   35CHL1    C3 2517   3.928   2.786   7.280  0.3747  0.2144 -0.6075
   35CHL1    H3 2518   3.883   2.882   7.313  2.0517  0.3853  1.2320
   35CHL1    O3 2519   3.887   2.751   7.150  0.9565 -0.1525  0.4899
   35CHL1   H3' 2520   3.953   2.789   7.093  1.7745 -0.9080  0.9194
   35CHL1    C4 2521   4.083   2.799   7.279 -0.2143  0.5324 -0.6693
   35CHL1   H4A 2522   4.118   2.698   7.248 -2.4327 -0.5410  0.2285
   35CHL1   H4B 2523   4.115   2.875   7.205  1.6970  1.0310  0.6441
   35CHL1    C5 2524   4.138   2.825   7.416  0.1953 -0.4473  0.7077
   35CHL1    C6 2525   4.220   2.932   7.433 -0.0977  0.3407  0.2380
   35CHL1    H6 2526   4.247   3.008   7.358  1.6212  1.5319  2.0059
   35CHL1    C7 2527   4.281   2.967   7.564 -0.4234  0.6324  0.2604
   35CHL1   H7A 2528   4.386   3.003   7.558  0.2683 -1.3001  0.2533
   35CHL1   H7B 2529   4.213   3.041   7.612 -1.2898 -0.4292  0.6882
   35CHL1    C8 2530   4.280   2.842   7.661  0.4552  0.4813  0.1896
   35CHL1    H8 2531   4.360   2.770   7.633 -0.6251 -0.9068  0.5849
   35CHL1   C14 2532   4.314   2.904   7.798  0.0502  0.0899  0.2393
   35CHL1   H14 2533   4.239   2.982   7.822 -1.0536 -0.8414 -0.0922
   35CHL1   C15 2534   4.452   2.964   7.816  0.4503  0.4107 -0.6871
   35CHL1  H15A 2535   4.522   2.902   7.756 -0.6921 -0.1813 -1.4252
   35CHL1  H15B 2536   4.447   3.065   7.769 -2.0929  0.5854 -0.1298
   35CHL1   C16 2537   4.465   2.963   7.968 -0.4059 -0.0153 -0.5745
   35CHL1  H16A 2538   4.565   2.924   7.999 -1.4650 -0.8987  1.8408
   35CHL1  H16B 2539   4.458   3.061   8.020 -0.8510  0.5541 -1.6946
   35CHL1   C17 2540   4.347   2.878   8.032  0.0759 -0.3993  0.3356
   35CHL1   H17 2541   4.265   2.952   8.045 -0.5249 -0.7841 -1.2032
   35CHL1   C13 2542   4.296   2.799   7.912 -0.0029  0.3313 -0.4032
   35CHL1   C18 2543   4.395   2.679   7.891 -0.1249  0.1925  0.8224
   35CHL1  H18A 2544   4.385   2.597   7.966 -1.7131 -0.5307 -0.1562
   35CHL1  H18B 2545   4.403   2.633   7.790  0.5833  2.1370 -0.0125
   35CHL1  H18C 2546   4.499   2.717   7.900 -0.5351  1.0425  2.1931
   35CHL1   C12 2547   4.155   2.751   7.914 -0.0608  0.3799 -0.1536
   35CHL1  H12A 2548   4.122   2.678   7.991  1.5157  1.4470  1.5647
   35CHL1  H12B 2549   4.089   2.839   7.926  2.2294  2.1736 -0.5554
   35CHL1   C11 2550   4.115   2.686   7.781  0.3890 -0.0928  0.0930
   35CHL1  H11A 2551   4.168   2.590   7.766  1.6500  0.6142 -0.1026
   35CHL1  H11B 2552   4.005   2.672   7.781  0.1906  1.3373 -0.9452
   35CHL1    C9 2553   4.140   2.783   7.666 -0.6421  0.2511  0.2454
   35CHL1    H9 2554   4.083   2.875   7.688  0.9914  1.4016 -0.2557
   35CHL1   C10 2555   4.091   2.731   7.520 -0.3205  0.1899  0.1442
   35CHL1   C19 2556   4.157   2.590   7.494  0.3161  0.0848  0.3322
   35CHL1  H19A 2557   4.116   2.518   7.567  2.1441 -0.8232  0.5121
   35CHL1  H19B 2558   4.151   2.555   7.388  1.0306 -2.4064  1.0944
   35CHL1  H19C 2559   4.260   2.606   7.533  0.7459 -3.9517  1.0681
   35CHL1    C1 2560   3.937   2.720   7.519  0.5378 -0.1923  0.0861
   35CHL1   H1A 2561   3.907   2.647   7.596 -1.1809 -0.7739 -1.1176
   35CHL1   H1B 2562   3.897   2.822   7.538 -0.0617 -0.4656  0.2929
   35CHL1    C2 2563   3.884   2.678   7.377 -0.0795  0.3007 -0.1850
   35CHL1   H2A 2564   3.774   2.667   7.381 -0.2978  2.2762 -0.1282
   35CHL1   H2B 2565   3.930   2.580   7.354  0.0705 -0.0508  1.5510
   35CHL1   C20 2566   4.374   2.813   8.170  0.4804 -0.2220 -0.3583
   35CHL1   H20 2567   4.434   2.721   8.154 -1.1106 -1.3176 -0.1698
   35CHL1   C21 2568   4.242   2.774   8.240 -0.3824  0.1358 -0.4284
   35CHL1  H21A 2569   4.261   2.710   8.328 -3.1219  0.1513  0.2272
   35CHL1  H21B 2570   4.188   2.701   8.175 -2.0697  0.2279  0.8276
   35CHL1  H21C 2571   4.187   2.866   8.271 -1.4456 -0.9849  1.0346
   35CHL1   C22 2572   4.452   2.912   8.268  0.2236  0.2185 -0.1979
   35CHL1  H22A 2573   4.545   2.931   8.210 -0.5331  1.4466 -1.0055
   35CHL1  H22B 2574   4.392   3.005   8.274  0.5878  0.4452  0.0330
   35CHL1   C23 2575   4.498   2.858   8.401  0.3729 -0.0498 -0.5778
   35CHL1  H23A 2576   4.404   2.864   8.460  0.9584  0.5614  0.3025
   35CHL1  H23B 2577   4.527   2.751   8.393  0.0298 -0.0805 -1.4327
   35CHL1   C24 2578   4.610   2.925   8.461  0.2419  0.2405 -0.7043
   35CHL1  H24A 2579   4.690   2.939   8.385  0.1262  2.0594 -0.5320
   35CHL1  H24B 2580   4.589   3.032   8.485  1.5251  1.1204 -3.2808
   35CHL1   C25 2581   4.675   2.856   8.578  0.0390  0.9466  0.1345
   35CHL1   H25 2582   4.712   2.755   8.552 -0.9131  0.6711 -0.1386
   35CHL1   C26 2583   4.794   2.950   8.628  0.0894  0.1169  0.5162
   35CHL1  H26A 2584   4.844   2.901   8.714  0.9729 -0.5740 -0.3760
   35CHL1  H26B 2585   4.875   2.961   8.553 -1.2407 -2.5487 -1.4070
   35CHL1  H26C 2586   4.759   3.048   8.664  2.0431  0.5541  1.2772
   35CHL1   C27 2587   4.569   2.840   8.692 -0.6149  0.4417 -0.7341
   35CHL1  H27A 2588   4.467   2.798   8.680 -0.6179 -0.8164  2.8249
   35CHL1  H27B 2589   4.561   2.942   8.735  3.0783  0.4869 -0.0034
   35CHL1  H27C 2590   4.629   2.792   8.773  0.9174  1.7590 -1.0666
   36CHL1    C3 2591   4.547   2.021   6.982  0.0564  0.3443  0.0677
   36CHL1    H3 2592   4.441   2.053   6.981  0.3295  1.2867  0.0142
   36CHL1    O3 2593   4.589   1.990   6.849 -0.1633 -0.1107 -1.0705
   36CHL1   H3' 2594   4.580   2.073   6.802 -0.3481  0.1081 -0.6503
   36CHL1    C4 2595   4.635   2.129   7.037  0.1606 -0.0869 -0.2606
   36CHL1   H4A 2596   4.740   2.099   7.016 -0.6738 -4.2211  1.1412
   36CHL1   H4B 2597   4.624   2.225   6.981  3.7149  1.7327  2.0015
   36CHL1    C5 2598   4.626   2.166   7.179 -0.2151  1.1570 -0.1427
   36CHL1    C6 2599   4.594   2.285   7.223  0.0924  0.1677  0.5303
   36CHL1    H6 2600   4.561   2.362   7.151  0.0233  0.2151  0.6130
   36CHL1    C7 2601   4.573   2.320   7.366 -0.1867  0.2102 -0.0798
   36CHL1   H7A 2602   4.619   2.419   7.385  1.1078 -0.2423 -0.7972
   36CHL1   H7B 2603   4.466   2.334   7.394 -0.3228 -1.6704  0.4094
   36CHL1    C8 2604   4.641   2.215   7.463  0.1932 -0.2911  0.5615
   36CHL1    H8 2605   4.751   2.223   7.448  0.2357  2.1052  1.8068
   36CHL1   C14 2606   4.585   2.230   7.605  0.8678  0.5242 -0.5924
   36CHL1   H14 2607   4.476   2.214   7.596  1.0301 -0.4624 -0.8717
   36CHL1   C15 2608   4.599   2.370   7.659 -0.4695  1.3845 -0.3420
   36CHL1  H15A 2609   4.701   2.406   7.636  1.0171 -0.7739  2.4763
   36CHL1  H15B 2610   4.525   2.443   7.620 -0.7872  0.8740 -0.6987
   36CHL1   C16 2611   4.579   2.347   7.807  0.7428  0.4981 -0.0732
   36CHL1  H16A 2612   4.663   2.388   7.868  0.6367  0.0113  0.4097
   36CHL1  H16B 2613   4.488   2.401   7.840  1.4929  1.3091  0.7108
   36CHL1   C17 2614   4.571   2.193   7.840  0.4140 -0.2714 -0.0355
   36CHL1   H17 2615   4.464   2.163   7.837 -0.0171  1.2114 -0.2710
   36CHL1   C13 2616   4.626   2.132   7.714 -0.0010 -0.6389  0.8445
   36CHL1   C18 2617   4.781   2.147   7.726 -0.7884  0.2438 -0.1610
   36CHL1  H18A 2618   4.812   2.073   7.803  1.3057 -0.7494 -1.9401
   36CHL1  H18B 2619   4.840   2.126   7.635  0.7967 -0.3045  0.9677
   36CHL1  H18C 2620   4.814   2.244   7.770 -1.0283  0.7714 -1.1433
   36CHL1   C12 2621   4.581   1.995   7.664  0.8057 -0.0648  0.0489
   36CHL1  H12A 2622   4.613   1.911   7.730 -0.3419 -1.7896 -1.5545
   36CHL1  H12B 2623   4.470   1.989   7.657  0.7647 -2.7383  1.9288
   36CHL1   C11 2624   4.633   1.966   7.525 -0.0685 -0.0481  0.3653
   36CHL1  H11A 2625   4.744   1.962   7.532  0.0625 -1.1966 -2.0568
   36CHL1  H11B 2626   4.607   1.867   7.481  1.3962 -1.1840  1.9314
   36CHL1    C9 2627   4.601   2.073   7.419  0.5807 -0.5792  0.1612
   36CHL1    H9 2628   4.490   2.075   7.419  0.5247 -2.4083 -1.2208
   36CHL1   C10 2629   4.646   2.041   7.274  0.0167  0.0230  1.4358
   36CHL1   C19 2630   4.790   1.979   7.266 -0.6627 -0.0900 -0.1059
   36CHL1  H19A 2631   4.799   1.894   7.337 -0.7539 -0.5771 -0.6730
   36CHL1  H19B 2632   4.801   1.939   7.163  1.8002  2.3660 -0.8476
   36CHL1  H19C 2633   4.859   2.063   7.288 -1.2651  0.4202 -0.1561
   36CHL1    C1 2634   4.538   1.935   7.220  0.1463  0.0479  0.3859
   36CHL1   H1A 2635   4.555   1.841   7.276  2.8886  0.9297  1.1141
   36CHL1   H1B 2636   4.432   1.960   7.241 -0.2408 -1.1460 -0.1553
   36CHL1    C2 2637   4.560   1.895   7.071  0.2038  0.1824  0.3008
   36CHL1   H2A 2638   4.478   1.838   7.022  2.1273 -0.7816 -1.9425
   36CHL1   H2B 2639   4.654   1.841   7.049  1.1549  1.4344  1.2304
   36CHL1   C20 2640   4.626   2.170   7.986 -0.0659  0.4855  0.2171
   36CHL1   H20 2641   4.735   2.191   7.993  0.2023 -1.4387  2.0730
   36CHL1   C21 2642   4.594   2.024   8.020  0.4873  0.2957  0.0549
   36CHL1  H21A 2643   4.670   1.966   7.964 -0.9910 -1.9295  0.2840
   36CHL1  H21B 2644   4.493   2.002   7.980 -0.9238  2.6223  2.1533
   36CHL1  H21C 2645   4.608   2.012   8.130  0.4375  0.5617  0.0916
   36CHL1   C22 2646   4.558   2.269   8.089  0.3966  0.3030  0.0365
   36CHL1  H22A 2647   4.524   2.368   8.053 -0.4194 -0.0694 -0.2247
   36CHL1  H22B 2648   4.462   2.221   8.119 -0.1129  1.1093 -0.2990
   36CHL1   C23 2649   4.656   2.290   8.203  0.7170  0.1250  0.3921
   36CHL1  H23A 2650   4.685   2.189   8.238  0.1958 -0.2286 -0.1940
   36CHL1  H23B 2651   4.751   2.335   8.169  0.4532  2.5805  2.6724
   36CHL1   C24 2652   4.594   2.369   8.321  0.1307  0.1572  0.3217
   36CHL1  H24A 2653   4.573   2.476   8.301 -0.1380 -0.3814 -2.4328
   36CHL1  H24B 2654   4.494   2.328   8.348  0.4581 -0.7674  0.1430
   36CHL1   C25 2655   4.690   2.367   8.445  0.5301 -0.6030  0.8878
   36CHL1   H25 2656   4.791   2.376   8.401 -0.6806 -1.0906 -2.1739
   36CHL1   C26 2657   4.663   2.496   8.535 -0.4447  0.2035  0.5055
   36CHL1  H26A 2658   4.673   2.584   8.468  1.3443 -0.7021 -0.4582
   36CHL1  H26B 2659   4.563   2.493   8.585 -0.1710  0.0472  1.0440
   36CHL1  H26C 2660   4.745   2.490   8.610  1.1746 -0.9981 -1.3127
   36CHL1   C27 2661   4.679   2.235   8.522 -0.0639 -0.7678  0.3130
   36CHL1  H27A 2662   4.719   2.152   8.460  2.0416  0.6500 -0.3055
   36CHL1  H27B 2663   4.741   2.239   8.614  0.9353  1.4207 -0.4314
   36CHL1  H27C 2664   4.574   2.208   8.546 -0.1347 -0.4747  0.3305
   37CHL1    C3 2665   1.183   4.291   6.838 -0.0535 -0.0101  0.1567
   37CHL1    H3 2666   1.233   4.389   6.854  1.0094 -0.2392 -1.6526
   37CHL1    O3 2667   1.217   4.232   6.711  0.0366 -0.1070 -0.1760
   37CHL1   H3' 2668   1.145   4.172   6.690  0.4601 -0.1408 -1.6443
   37CHL1    C4 2669   1.237   4.197   6.954  0.1492  0.3000  0.6231
   37CHL1   H4A 2670   1.197   4.094   6.938  0.0495  0.3641  0.4600
   37CHL1   H4B 2671   1.348   4.192   6.943  0.0494  1.0032 -0.7894
   37CHL1    C5 2672   1.196   4.251   7.089 -0.4316 -0.2656 -0.2033
   37CHL1    C6 2673   1.278   4.286   7.193 -0.6359  0.2261  0.4570
   37CHL1    H6 2674   1.387   4.279   7.182 -0.5187  2.0070  0.1926
   37CHL1    C7 2675   1.235   4.310   7.333 -0.6168  0.5806 -0.6203
   37CHL1   H7A 2676   1.293   4.258   7.412 -0.4842  2.5937  0.6197
   37CHL1   H7B 2677   1.258   4.416   7.353  0.3778  0.1067  0.7913
   37CHL1    C8 2678   1.082   4.279   7.358  0.5064 -0.5470 -0.2663
   37CHL1    H8 2679   1.071   4.169   7.359  0.9862 -0.5890  1.5303
   37CHL1   C14 2680   1.039   4.344   7.487 -0.6567  0.3581  0.6905
   37CHL1   H14 2681   1.044   4.455   7.477  0.3179  0.2336 -0.3315
   37CHL1   C15 2682   1.128   4.307   7.609  0.6302  0.1398  0.2416
   37CHL1  H15A 2683   1.158   4.201   7.613  1.5104  0.4470  2.9058
   37CHL1  H15B 2684   1.225   4.362   7.610  0.1657  1.1583 -3.3401
   37CHL1   C16 2685   1.031   4.340   7.725 -0.1299 -0.5200  0.0830
   37CHL1  H16A 2686   1.014   4.243   7.777 -0.8100  0.6404  2.0555
   37CHL1  H16B 2687   1.054   4.420   7.799  1.8216 -1.0684  0.1021
   37CHL1   C17 2688   0.890   4.378   7.663  0.1229 -0.3611  0.0100
   37CHL1   H17 2689   0.903   4.486   7.640 -2.0268  0.4642  2.4224
   37CHL1   C13 2690   0.892   4.318   7.525  0.6318  0.5587 -0.1371
   37CHL1   C18 2691   0.856   4.167   7.527 -0.0691 -0.7779  0.1528
   37CHL1  H18A 2692   0.754   4.149   7.567 -0.0283 -0.0713  0.5941
   37CHL1  H18B 2693   0.865   4.130   7.422 -0.7181 -0.2107 -0.1143
   37CHL1  H18C 2694   0.922   4.111   7.595  1.1188  1.1836  0.6627
   37CHL1   C12 2695   0.808   4.390   7.416  0.2374 -0.1488  0.1800
   37CHL1  H12A 2696   0.701   4.358   7.421 -0.0299  0.7440  0.1630
   37CHL1  H12B 2697   0.825   4.499   7.426  0.3810 -0.1788  0.2655
   37CHL1   C11 2698   0.853   4.334   7.272  0.5044  0.2960 -0.7014
   37CHL1  H11A 2699   0.820   4.228   7.269  1.3081  0.0093  0.3639
   37CHL1  H11B 2700   0.791   4.382   7.193 -2.1689 -1.1353  0.4680
   37CHL1    C9 2701   1.000   4.338   7.243 -0.2399 -0.7904  0.1092
   37CHL1    H9 2702   1.035   4.442   7.230  0.1497 -1.2496 -2.6620
   37CHL1   C10 2703   1.043   4.267   7.106 -0.5576  0.7310  0.5733
   37CHL1   C19 2704   0.997   4.122   7.107 -0.0029 -0.2894 -0.1143
   37CHL1  H19A 2705   0.974   4.090   7.003 -0.9040 -2.7934  0.8100
   37CHL1  H19B 2706   1.070   4.049   7.148 -1.1883 -1.8074 -0.6541
   37CHL1  H19C 2707   0.903   4.099   7.162 -0.2022  1.7359  0.4178
   37CHL1    C1 2708   0.982   4.351   6.990  0.3857  0.3484 -0.3597
   37CHL1   H1A 2709   0.872   4.342   6.996  0.6128 -1.1539  2.0812
   37CHL1   H1B 2710   1.012   4.456   7.011 -0.2140  0.6842 -1.1672
   37CHL1    C2 2711   1.030   4.308   6.846 -0.8150 -0.9131 -0.1586
   37CHL1   H2A 2712   0.997   4.386   6.774  0.4587 -0.6238 -0.4418
   37CHL1   H2B 2713   0.983   4.212   6.816 -1.4126  0.2771 -3.2009
   37CHL1   C20 2714   0.763   4.366   7.757 -0.7278  0.4827 -0.8199
   37CHL1   H20 2715   0.732   4.259   7.754 -0.5432  0.4258 -0.6457
   37CHL1   C21 2716   0.659   4.470   7.708  0.2983  0.1481 -0.0247
   37CHL1  H21A 2717   0.707   4.570   7.707 -0.8581  0.7160  0.5301
   37CHL1  H21B 2718   0.571   4.474   7.775 -0.4158  2.3735 -1.0299
   37CHL1  H21C 2719   0.614   4.442   7.610 -1.6833  0.7570  0.7071
   37CHL1   C22 2720   0.793   4.399   7.903 -0.4106 -0.3498 -0.7656
   37CHL1  H22A 2721   0.867   4.326   7.942  0.6322  1.3699  0.5500
   37CHL1  H22B 2722   0.832   4.503   7.913 -4.0378  0.9098  1.2230
   37CHL1   C23 2723   0.676   4.371   8.004 -0.1793  0.4323  0.7637
   37CHL1  H23A 2724   0.595   4.443   7.980  1.1267  1.9519  0.8308
   37CHL1  H23B 2725   0.637   4.270   7.980  1.7763  0.0197 -0.7758
   37CHL1   C24 2726   0.725   4.396   8.148  0.2222  0.1150 -0.4849
   37CHL1  H24A 2727   0.813   4.339   8.185  1.4587  1.6502 -1.0003
   37CHL1  H24B 2728   0.757   4.503   8.153  1.1121 -0.1868  0.4296
   37CHL1   C25 2729   0.601   4.380   8.249 -0.7256 -0.5313 -0.0089
   37CHL1   H25 2730   0.515   4.446   8.222  0.1438  0.0523 -1.4358
   37CHL1   C26 2731   0.553   4.234   8.253 -0.3557 -0.3670 -0.1460
   37CHL1  H26A 2732   0.501   4.205   8.347  1.2605  0.4398  1.0244
   37CHL1  H26B 2733   0.480   4.208   8.174 -1.5988  0.9421  0.5548
   37CHL1  H26C 2734   0.646   4.177   8.232  0.8777  0.7436  2.0904
   37CHL1   C27 2735   0.648   4.418   8.391  0.0588  0.0634  0.6364
   37CHL1  H27A 2736   0.700   4.336   8.446 -1.8816 -0.3301  1.9163
   37CHL1  H27B 2737   0.730   4.493   8.391 -0.3282  0.4892 -0.2444
   37CHL1  H27C 2738   0.567   4.453   8.457 -0.5202  0.6102 -0.3522
   38CHL1    C3 2739   4.484   5.162   6.594 -0.1136  0.0030  0.2340
   38CHL1    H3 2740   4.386   5.179   6.643 -0.4241 -2.4530  0.5622
   38CHL1    O3 2741   4.467   5.161   6.452  0.1729 -0.2729  0.2092
   38CHL1   H3' 2742   4.414   5.239   6.436 -0.0395 -0.6353 -0.8638
   38CHL1    C4 2743   4.569   5.277   6.629  0.6113 -0.0928 -0.3301
   38CHL1   H4A 2744   4.672   5.266   6.588  1.0726 -0.7962  1.0179
   38CHL1   H4B 2745   4.527   5.371   6.587 -3.4049 -2.1195 -1.1371
   38CHL1    C5 2746   4.609   5.295   6.778  0.6316 -0.2627 -0.3856
   38CHL1    C6 2747   4.581   5.407   6.844 -0.1114  0.5777  0.4259
   38CHL1    H6 2748   4.566   5.501   6.788  1.0492 -0.5215 -1.7750
   38CHL1    C7 2749   4.598   5.422   6.991  0.0071 -0.5194 -0.5862
   38CHL1   H7A 2750   4.659   5.513   7.012 -0.0014 -0.9073  1.1822
   38CHL1   H7B 2751   4.499   5.433   7.040  0.0671  3.5402 -1.1786
   38CHL1    C8 2752   4.686   5.304   7.055 -0.0092  0.3391 -0.1026
   38CHL1    H8 2753   4.794   5.311   7.031  0.5379 -3.1311  1.1127
   38CHL1   C14 2754   4.658   5.317   7.202 -0.0131  0.2379 -0.1306
   38CHL1   H14 2755   4.548   5.302   7.211 -0.1014  0.8364 -0.1693
   38CHL1   C15 2756   4.702   5.450   7.258  0.1135  0.3056 -0.3112
   38CHL1  H15A 2757   4.807   5.479   7.233  0.5830  0.5011  1.7676
   38CHL1  H15B 2758   4.633   5.535   7.244  0.5057  0.2578 -2.8021
   38CHL1   C16 2759   4.715   5.433   7.416 -0.5602  0.0609  0.1705
   38CHL1  H16A 2760   4.824   5.451   7.432 -0.5156  0.1748 -0.2462
   38CHL1  H16B 2761   4.651   5.506   7.470 -0.6619 -1.2687  1.8585
   38CHL1   C17 2762   4.671   5.282   7.436  0.1307 -0.2120  0.8640
   38CHL1   H17 2763   4.560   5.288   7.438 -0.0576 -2.5924 -0.4587
   38CHL1   C13 2764   4.709   5.214   7.304  0.2865  0.0698 -0.5267
   38CHL1   C18 2765   4.865   5.201   7.293  0.3449  0.2708 -1.3904
   38CHL1  H18A 2766   4.899   5.113   7.351  0.2196  0.1460 -1.5069
   38CHL1  H18B 2767   4.896   5.176   7.189  2.0680 -1.6943 -0.4341
   38CHL1  H18C 2768   4.922   5.284   7.339  1.5906 -1.3106 -0.0402
   38CHL1   C12 2769   4.643   5.082   7.252 -0.8232  0.2500 -0.6357
   38CHL1  H12A 2770   4.681   4.997   7.314 -1.1815  0.9818  0.5901
   38CHL1  H12B 2771   4.532   5.085   7.255 -0.7413  2.3801  0.8902
   38CHL1   C11 2772   4.680   5.053   7.100 -0.0315 -0.8065 -0.2888
   38CHL1  H11A 2773   4.788   5.039   7.076  0.2169 -0.3039  0.5083
   38CHL1  H11B 2774   4.613   4.972   7.064 -0.6826  0.2789 -1.5164
   38CHL1    C9 2775   4.636   5.175   7.009  0.5317  0.2871 -0.3174
   38CHL1    H9 2776   4.525   5.172   7.022  0.2981  1.4022 -1.8846
   38CHL1   C10 2777   4.644   5.156   6.857  1.0153 -0.3459 -0.0694
   38CHL1   C19 2778   4.793   5.143   6.819  1.0940 -0.5570  0.1530
   38CHL1  H19A 2779   4.841   5.063   6.879  0.0555 -0.3014  1.3297
   38CHL1  H19B 2780   4.817   5.119   6.713  0.6599  1.2517 -0.3829
   38CHL1  H19C 2781   4.847   5.239   6.829 -0.7838  0.6438 -0.7734
   38CHL1    C1 2782   4.558   5.034   6.806 -0.0897  0.0355  0.1264
   38CHL1   H1A 2783   4.608   4.942   6.841 -2.0684 -0.7511  0.9774
   38CHL1   H1B 2784   4.463   5.038   6.864 -1.3598  2.8139 -2.0017
   38CHL1    C2 2785   4.532   5.023   6.658 -0.9113 -0.4164 -0.0203
   38CHL1   H2A 2786   4.456   4.944   6.642 -1.4136 -0.3365  1.8752
   38CHL1   H2B 2787   4.629   5.005   6.608  0.1637  0.4876  1.6823
   38CHL1   C20 2788   4.722   5.224   7.566  0.0556  0.0971  0.2371
   38CHL1   H20 2789   4.831   5.205   7.557  0.2287  0.1458  1.9852
   38CHL1   C21 2790   4.646   5.091   7.594  0.2113  1.2244 -0.4115
   38CHL1  H21A 2791   4.690   5.046   7.686  3.1243  0.1198 -2.2662
   38CHL1  H21B 2792   4.660   5.016   7.513  0.8944  1.4924 -0.5505
   38CHL1  H21C 2793   4.537   5.104   7.611  0.0304 -0.5410 -0.1584
   38CHL1   C22 2794   4.708   5.317   7.690 -0.4020  0.7513 -0.0325
   38CHL1  H22A 2795   4.785   5.396   7.678  0.0283  0.0796 -1.9982
   38CHL1  H22B 2796   4.611   5.370   7.678 -0.9862 -0.6029 -1.4986
   38CHL1   C23 2797   4.707   5.258   7.834 -0.3029 -0.3900  0.4829
   38CHL1  H23A 2798   4.612   5.202   7.847 -0.7249 -0.1947 -1.4996
   38CHL1  H23B 2799   4.797   5.194   7.846  0.5668  1.0604  1.8489
   38CHL1   C24 2800   4.708   5.371   7.940 -0.3390 -0.0343  0.1429
   38CHL1  H24A 2801   4.795   5.440   7.928 -0.3177 -0.4341 -2.1651
   38CHL1  H24B 2802   4.614   5.430   7.929  0.9978  1.8236 -1.8530
   38CHL1   C25 2803   4.705   5.324   8.088  0.2330 -1.0152  0.6935
   38CHL1   H25 2804   4.797   5.263   8.100  0.1957 -1.2031  0.0357
   38CHL1   C26 2805   4.716   5.455   8.163  0.6552  0.0031  0.4746
   38CHL1  H26A 2806   4.721   5.435   8.272 -2.8907  0.2415  0.7276
   38CHL1  H26B 2807   4.808   5.510   8.133  1.6465 -1.1929  1.2984
   38CHL1  H26C 2808   4.627   5.521   8.155 -0.0642 -0.8325  1.5128
   38CHL1   C27 2809   4.579   5.246   8.130  0.1000 -0.2042 -0.7519
   38CHL1  H27A 2810   4.580   5.155   8.066  1.6971 -0.3012 -0.5941
   38CHL1  H27B 2811   4.600   5.228   8.237  2.1543  1.8084 -0.7995
   38CHL1  H27C 2812   4.484   5.302   8.115  0.1228  0.2778  0.8703
   39CHL1    C3 2813   4.039   3.832   6.886 -0.3083  0.6393  0.2554
   39CHL1    H3 2814   4.130   3.781   6.924  0.2789  0.6581 -1.0857
   39CHL1    O3 2815   4.033   3.813   6.751  0.5303  0.1941  0.5044
   39CHL1   H3' 2816   4.059   3.893   6.705  0.8995  0.0509  0.4623
   39CHL1    C4 2817   3.918   3.774   6.962 -0.4036  0.2989 -1.2276
   39CHL1   H4A 2818   3.824   3.812   6.916 -0.8613  0.2138 -0.3600
   39CHL1   H4B 2819   3.905   3.668   6.928 -1.7903  0.1060 -0.1596
   39CHL1    C5 2820   3.929   3.804   7.109  0.0588 -0.8493 -0.3149
   39CHL1    C6 2821   3.915   3.710   7.198  0.2294 -0.0233 -0.7549
   39CHL1    H6 2822   3.927   3.606   7.163  0.1593 -0.3591  0.1996
   39CHL1    C7 2823   3.911   3.735   7.351 -0.8747 -0.1300  0.1036
   39CHL1   H7A 2824   3.837   3.666   7.398 -1.4585  0.4067 -0.0220
   39CHL1   H7B 2825   4.012   3.719   7.393 -0.4089 -0.4575 -1.1243
   39CHL1    C8 2826   3.893   3.880   7.397 -0.1446  0.3734 -0.3290
   39CHL1    H8 2827   3.787   3.909   7.381 -0.5692 -1.8639 -1.7514
   39CHL1   C14 2828   3.943   3.911   7.538 -0.1931 -0.2690  0.2914
   39CHL1   H14 2829   4.052   3.889   7.537 -0.0866  0.2844 -0.7685
   39CHL1   C15 2830   3.876   3.825   7.653  0.2649  0.0415 -0.0837
   39CHL1  H15A 2831   3.765   3.834   7.653  0.3393  1.0081  0.1929
   39CHL1  H15B 2832   3.919   3.723   7.656 -0.1282 -0.1480 -0.8729
   39CHL1   C16 2833   3.934   3.902   7.779 -0.0324  0.4239  0.8174
   39CHL1  H16A 2834   3.867   3.891   7.867 -0.0316  0.0318  0.7714
   39CHL1  H16B 2835   4.028   3.845   7.799  0.5595  0.6012 -1.3478
   39CHL1   C17 2836   3.979   4.036   7.730 -0.0428  0.1246 -0.1608
   39CHL1   H17 2837   4.089   4.030   7.723  0.0182  1.0974 -0.0528
   39CHL1   C13 2838   3.929   4.054   7.584 -0.2350 -0.1041 -0.0392
   39CHL1   C18 2839   3.782   4.103   7.566  0.1733 -0.0746 -0.0436
   39CHL1  H18A 2840   3.715   4.031   7.618  3.6993 -2.9023  0.7883
   39CHL1  H18B 2841   3.777   4.205   7.610 -0.2504  0.1634 -0.6483
   39CHL1  H18C 2842   3.761   4.107   7.457 -1.7929 -1.5567  0.2367
   39CHL1   C12 2843   4.024   4.136   7.491  0.2631 -0.6180 -0.4336
   39CHL1  H12A 2844   4.007   4.245   7.509 -0.6488 -0.1428 -3.8886
   39CHL1  H12B 2845   4.132   4.116   7.507  0.3183 -0.4276 -0.5659
   39CHL1   C11 2846   3.990   4.118   7.340 -0.5264 -0.1770  0.1580
   39CHL1  H11A 2847   3.891   4.168   7.326 -0.3574 -0.4527 -2.0648
   39CHL1  H11B 2848   4.061   4.167   7.270 -0.5895  0.2846  0.4086
   39CHL1    C9 2849   3.986   3.970   7.301  0.7166  0.1859  0.3825
   39CHL1    H9 2850   4.091   3.934   7.305  1.5670  2.4295 -0.8041
   39CHL1   C10 2851   3.948   3.953   7.148 -0.8037 -0.9862 -0.0272
   39CHL1   C19 2852   3.816   4.035   7.122 -0.0970  0.2413 -0.0646
   39CHL1  H19A 2853   3.827   4.146   7.121  0.1055  0.2217 -2.2119
   39CHL1  H19B 2854   3.774   4.012   7.022  1.2179  0.1523 -0.6085
   39CHL1  H19C 2855   3.732   4.030   7.195 -0.2077  0.0878 -0.2018
   39CHL1    C1 2856   4.066   3.999   7.066  0.1129  0.6739  0.5744
   39CHL1   H1A 2857   4.086   4.108   7.071 -1.4468  1.0933 -1.5278
   39CHL1   H1B 2858   4.159   3.948   7.100  1.0839  1.8372 -0.2988
   39CHL1    C2 2859   4.054   3.983   6.914  0.0353 -0.5514  0.3642
   39CHL1   H2A 2860   4.150   4.021   6.872 -0.8470  1.1177 -0.2037
   39CHL1   H2B 2861   3.978   4.053   6.872 -0.1667  0.6231  2.6108
   39CHL1   C20 2862   3.940   4.145   7.835  0.0511 -0.0792  0.3368
   39CHL1   H20 2863   3.830   4.157   7.842 -0.4881 -3.2006 -1.7660
   39CHL1   C21 2864   3.996   4.281   7.787  0.4163 -0.1756  0.1737
   39CHL1  H21A 2865   4.104   4.266   7.766  1.0510  0.3154  2.8615
   39CHL1  H21B 2866   3.990   4.363   7.863 -2.7217  1.3122 -1.6067
   39CHL1  H21C 2867   3.938   4.311   7.697 -2.5341  1.9332  2.6583
   39CHL1   C22 2868   3.988   4.129   7.980  0.5650 -0.3607  0.5860
   39CHL1  H22A 2869   3.964   4.025   8.009  0.4153  0.3321  3.0005
   39CHL1  H22B 2870   4.098   4.140   7.991  0.4185  0.4087  1.3203
   39CHL1   C23 2871   3.919   4.224   8.075  0.3391 -0.1712 -0.3891
   39CHL1  H23A 2872   3.943   4.330   8.051  0.4360 -0.3716 -1.1693
   39CHL1  H23B 2873   3.811   4.200   8.069  0.2147 -0.1439  1.3222
   39CHL1   C24 2874   3.968   4.202   8.219  0.0682  0.1703 -0.6472
   39CHL1  H24A 2875   3.942   4.104   8.264  1.9779 -0.5227 -1.0129
   39CHL1  H24B 2876   4.078   4.209   8.230  0.0369  0.3079 -0.4197
   39CHL1   C25 2877   3.918   4.314   8.322  0.6177 -0.4082 -0.0126
   39CHL1   H25 2878   3.811   4.336   8.306  0.0943 -2.3221  0.6548
   39CHL1   C26 2879   3.932   4.265   8.463  0.4918 -0.3501 -0.3704
   39CHL1  H26A 2880   3.863   4.181   8.486 -0.3410  0.0647 -1.3606
   39CHL1  H26B 2881   4.038   4.235   8.484  0.1440 -0.1694  1.8193
   39CHL1  H26C 2882   3.905   4.347   8.532  1.1935 -0.5348  0.1375
   39CHL1   C27 2883   3.988   4.453   8.308 -0.5063  0.2033 -0.0830
   39CHL1  H27A 2884   4.096   4.454   8.336 -0.1133  1.2414 -1.5491
   39CHL1  H27B 2885   3.978   4.509   8.212 -1.0571 -0.6283 -0.5133
   39CHL1  H27C 2886   3.942   4.524   8.380 -0.5247 -0.8512  0.9490
   40CHL1    C3 2887   0.068   3.131   6.785  0.5375  0.7746  0.2929
   40CHL1    H3 2888  -0.009   3.053   6.772  2.0808 -0.6171 -0.6509
   40CHL1    O3 2889   0.103   3.172   6.654 -0.2782 -0.1118 -0.2318
   40CHL1   H3' 2890   0.163   3.245   6.666 -1.9473  1.5069 -1.3404
   40CHL1    C4 2891  -0.002   3.245   6.861 -0.5539 -0.1657 -0.3456
   40CHL1   H4A 2892   0.064   3.333   6.873 -1.2186  0.2441  0.3494
   40CHL1   H4B 2893  -0.085   3.287   6.800 -1.1179 -0.5579  0.1378
   40CHL1    C5 2894  -0.039   3.200   6.997 -0.5542  0.2019  0.3232
   40CHL1    C6 2895  -0.165   3.212   7.041 -0.4936 -0.5807  0.0153
   40CHL1    H6 2896  -0.232   3.266   6.973  2.1954  1.8019 -0.8171
   40CHL1    C7 2897  -0.215   3.172   7.178  0.8826  0.4438  0.1173
   40CHL1   H7A 2898  -0.282   3.254   7.212 -0.9242 -0.5549 -0.9503
   40CHL1   H7B 2899  -0.277   3.081   7.164  0.0219  1.3433 -2.3183
   40CHL1    C8 2900  -0.101   3.152   7.275  0.0443 -0.0126  0.4625
   40CHL1    H8 2901  -0.054   3.250   7.299  1.0393 -0.4963  0.5144
   40CHL1   C14 2902  -0.140   3.085   7.404  0.8227 -0.5906  0.5075
   40CHL1   H14 2903  -0.182   2.985   7.382  0.5136 -0.4503  0.4473
   40CHL1   C15 2904  -0.255   3.150   7.486 -0.1278  0.0634 -0.2917
   40CHL1  H15A 2905  -0.234   3.259   7.481 -1.9616  0.5230  1.5490
   40CHL1  H15B 2906  -0.348   3.130   7.429  0.3705 -0.1581 -1.0384
   40CHL1   C16 2907  -0.242   3.097   7.621 -1.1522 -0.3881 -0.2720
   40CHL1  H16A 2908  -0.227   3.179   7.695  0.4322 -0.0604 -0.9563
   40CHL1  H16B 2909  -0.320   3.027   7.659 -1.0807  0.2223  1.0322
   40CHL1   C17 2910  -0.102   3.019   7.632  0.3900  0.4610  0.3336
   40CHL1   H17 2911  -0.120   2.914   7.598  0.9458  0.9755 -1.6210
   40CHL1   C13 2912  -0.026   3.066   7.505 -0.1891 -0.0935  0.1139
   40CHL1   C18 2913   0.042   3.200   7.536  0.2463  0.2312 -0.5884
   40CHL1  H18A 2914   0.062   3.251   7.439 -4.0303  0.2001 -1.5946
   40CHL1  H18B 2915  -0.021   3.259   7.606  0.0608  0.1983 -0.7267
   40CHL1  H18C 2916   0.140   3.189   7.587  0.6770 -0.6591 -1.5704
   40CHL1   C12 2917   0.075   2.976   7.446 -0.1572 -0.3792 -0.3322
   40CHL1  H12A 2918   0.160   2.958   7.515 -0.8413 -0.4151  0.5114
   40CHL1  H12B 2919   0.020   2.882   7.421 -0.0769 -0.0744 -1.6568
   40CHL1   C11 2920   0.130   3.039   7.312  0.1124 -0.2985  0.0674
   40CHL1  H11A 2921   0.187   3.132   7.337  1.3141 -0.5821 -1.5597
   40CHL1  H11B 2922   0.208   2.969   7.276 -0.6586 -0.2389 -1.7810
   40CHL1    C9 2923   0.018   3.071   7.212  0.6797  0.0960 -0.1831
   40CHL1    H9 2924  -0.020   2.969   7.193 -0.7508  0.2432  1.7244
   40CHL1   C10 2925   0.075   3.146   7.088 -0.2042 -0.4504 -0.3585
   40CHL1   C19 2926   0.164   3.266   7.117 -0.3712 -0.3234 -0.3136
   40CHL1  H19A 2927   0.202   3.320   7.027  1.7802 -2.7830 -0.9265
   40CHL1  H19B 2928   0.117   3.346   7.177 -2.7278 -2.8134  1.2646
   40CHL1  H19C 2929   0.254   3.240   7.177  0.1537  0.5470 -0.7098
   40CHL1    C1 2930   0.155   3.037   7.007 -0.3679  0.0153  0.0963
   40CHL1   H1A 2931   0.251   3.023   7.061  0.1953 -2.4121 -1.4270
   40CHL1   H1B 2932   0.095   2.943   7.010 -0.3113 -0.0293 -0.1061
   40CHL1    C2 2933   0.188   3.084   6.860  0.0208  1.2165 -0.2964
   40CHL1   H2A 2934   0.237   2.991   6.824  1.9559  1.5968  1.2179
   40CHL1   H2B 2935   0.264   3.165   6.859 -0.3824  1.6301  0.8807
   40CHL1   C20 2936  -0.042   3.025   7.772 -0.2876  0.5840  0.3700
   40CHL1   H20 2937  -0.006   3.128   7.793 -0.8054  0.6814  0.8018
   40CHL1   C21 2938   0.078   2.934   7.781 -0.7391 -0.2350 -0.7708
   40CHL1  H21A 2939   0.165   2.973   7.725 -1.5559  0.4891 -1.5366
   40CHL1  H21B 2940   0.058   2.831   7.745 -0.1000 -0.4119 -0.6320
   40CHL1  H21C 2941   0.124   2.921   7.882 -0.1159 -1.4641 -1.2008
   40CHL1   C22 2942  -0.144   2.992   7.893 -1.2340  0.0577  0.3777
   40CHL1  H22A 2943  -0.238   3.050   7.893 -0.9501  0.5530 -2.0530
   40CHL1  H22B 2944  -0.170   2.885   7.880 -0.4251 -0.5230  3.1309
   40CHL1   C23 2945  -0.092   3.011   8.040 -0.2887  0.3645 -0.4733
   40CHL1  H23A 2946  -0.010   2.936   8.049  0.5020  1.1562 -0.9866
   40CHL1  H23B 2947  -0.050   3.113   8.050 -0.7517  0.4990  0.1047
   40CHL1   C24 2948  -0.197   2.993   8.152 -0.4908 -0.2041 -0.4774
   40CHL1  H24A 2949  -0.263   3.081   8.131  1.8268  1.2572 -1.9055
   40CHL1  H24B 2950  -0.263   2.906   8.135 -0.3937 -0.5372  0.8196
   40CHL1   C25 2951  -0.136   2.978   8.290  0.6063  1.7670  0.4906
   40CHL1   H25 2952  -0.084   2.880   8.296 -1.7042  0.5284  0.9523
   40CHL1   C26 2953  -0.038   3.097   8.318  0.0692  0.5231 -1.5126
   40CHL1  H26A 2954  -0.022   3.113   8.426 -1.0494 -0.8394 -1.1393
   40CHL1  H26B 2955   0.063   3.079   8.274  0.6720  1.9644 -0.7462
   40CHL1  H26C 2956  -0.086   3.188   8.275 -2.8214 -0.8745 -1.3539
   40CHL1   C27 2957  -0.247   2.969   8.394  0.6398 -0.5320 -0.1774
   40CHL1  H27A 2958  -0.308   3.062   8.396 -3.0233 -2.8644  2.6073
   40CHL1  H27B 2959  -0.318   2.884   8.386  1.2548 -1.0326 -0.4031
   40CHL1  H27C 2960  -0.200   2.963   8.495  2.7236  1.3117 -0.9873
   41CHL1    C3 2961   0.650   3.064   6.978  0.6411 -0.2916  0.0882
   41CHL1    H3 2962   0.554   3.013   7.000 -2.4975  4.9136 -0.5730
   41CHL1    O3 2963   0.683   3.107   6.846 -0.0040  0.1933  0.0741
   41CHL1   H3' 2964   0.758   3.164   6.864  0.4698 -0.4317  0.0641
   41CHL1    C4 2965   0.657   3.194   7.062 -0.6097 -0.2056  0.0963
   41CHL1   H4A 2966   0.757   3.241   7.049 -0.6224 -0.5234 -1.2866
   41CHL1   H4B 2967   0.583   3.269   7.027  1.0953  0.3898 -2.3447
   41CHL1    C5 2968   0.635   3.159   7.206  0.5304 -0.2163  0.0191
   41CHL1    C6 2969   0.533   3.227   7.262 -0.3607  0.5094  0.5678
   41CHL1    H6 2970   0.473   3.300   7.205 -0.5768  0.6417  0.9613
   41CHL1    C7 2971   0.496   3.193   7.407  0.0205 -0.1681 -0.6653
   41CHL1   H7A 2972   0.476   3.287   7.464  0.0488 -0.5020 -0.1069
   41CHL1   H7B 2973   0.407   3.128   7.420 -0.1076  0.3290  1.1747
   41CHL1    C8 2974   0.611   3.118   7.485 -0.0370 -0.3535 -0.9865
   41CHL1    H8 2975   0.696   3.188   7.501 -0.8406  0.0353  1.8044
   41CHL1   C14 2976   0.552   3.061   7.614 -0.5596  0.3227  0.3902
   41CHL1   H14 2977   0.480   2.986   7.576 -0.4749  0.4837 -0.0959
   41CHL1   C15 2978   0.481   3.159   7.707  0.4783  0.4007  0.0257
   41CHL1  H15A 2979   0.551   3.244   7.707  0.7396  0.1874  0.6094
   41CHL1  H15B 2980   0.379   3.171   7.663 -0.3706 -3.0879  0.8393
   41CHL1   C16 2981   0.474   3.078   7.838  0.1010 -0.0329  0.4582
   41CHL1  H16A 2982   0.517   3.140   7.919 -0.3766  1.9172 -0.7518
   41CHL1  H16B 2983   0.367   3.057   7.857 -0.2280  1.4645  0.3523
   41CHL1   C17 2984   0.553   2.949   7.816 -0.1871 -0.0962 -0.1543
   41CHL1   H17 2985   0.484   2.871   7.779  0.8817 -0.2535 -1.8996
   41CHL1   C13 2986   0.656   2.983   7.697  0.2484  0.4761 -0.3556
   41CHL1   C18 2987   0.776   3.073   7.741  0.0630 -0.5546  0.4921
   41CHL1  H18A 2988   0.824   3.103   7.646  1.2820 -1.6740  0.7469
   41CHL1  H18B 2989   0.734   3.163   7.791  2.2737  1.9587 -2.0532
   41CHL1  H18C 2990   0.844   3.029   7.818  1.7047 -0.4165 -0.8712
   41CHL1   C12 2991   0.714   2.861   7.614  0.6835  0.4904 -0.9429
   41CHL1  H12A 2992   0.789   2.804   7.672 -0.8281 -1.9090 -1.2525
   41CHL1  H12B 2993   0.619   2.806   7.597  0.6878  0.1477  0.1208
   41CHL1   C11 2994   0.768   2.909   7.477  0.0525  0.6000 -0.1710
   41CHL1  H11A 2995   0.863   2.962   7.498  1.0932 -1.6794  1.1289
   41CHL1  H11B 2996   0.780   2.823   7.407 -0.9776 -0.4898  0.9554
   41CHL1    C9 2997   0.670   3.006   7.399 -0.3394 -0.1886 -0.7865
   41CHL1    H9 2998   0.578   2.947   7.380 -1.9001  1.4687  1.3269
   41CHL1   C10 2999   0.726   3.052   7.268 -0.4050 -0.3487 -0.1913
   41CHL1   C19 3000   0.859   3.124   7.286 -1.1406  0.1419 -0.0156
   41CHL1  H19A 3001   0.941   3.049   7.298 -1.2842 -0.2742 -1.5963
   41CHL1  H19B 3002   0.891   3.176   7.194 -1.8036 -1.8386 -1.3981
   41CHL1  H19C 3003   0.861   3.194   7.372  1.3014 -2.1988  1.9256
   41CHL1    C1 3004   0.737   2.930   7.170  0.0492 -0.5481  0.1764
   41CHL1   H1A 3005   0.821   2.861   7.194  0.0046 -0.1939  1.3450
   41CHL1   H1B 3006   0.642   2.872   7.179 -0.1763 -0.0936  0.7182
   41CHL1    C2 3007   0.765   2.968   7.016  0.6635  0.6110 -0.9104
   41CHL1   H2A 3008   0.765   2.871   6.962 -0.5693 -0.4366  0.9098
   41CHL1   H2B 3009   0.866   3.012   7.002  1.3500 -1.5310 -2.9476
   41CHL1   C20 3010   0.612   2.889   7.941 -0.3217  0.1093 -0.0632
   41CHL1   H20 3011   0.693   2.958   7.972 -0.4493  0.9874 -1.6311
   41CHL1   C21 3012   0.670   2.750   7.913  0.0270 -0.1591  0.0254
   41CHL1  H21A 3013   0.699   2.702   8.008  3.4278 -1.0806 -1.3937
   41CHL1  H21B 3014   0.770   2.754   7.863  0.5993  0.1207  1.1840
   41CHL1  H21C 3015   0.596   2.689   7.857  1.4369 -2.6698  0.8241
   41CHL1   C22 3016   0.500   2.873   8.055 -0.3620  0.4527  0.0146
   41CHL1  H22A 3017   0.556   2.837   8.144 -1.5490  1.2694  1.1119
   41CHL1  H22B 3018   0.471   2.977   8.080 -2.0161  0.3224 -1.2840
   41CHL1   C23 3019   0.378   2.782   8.028 -0.2366  0.4160 -0.5800
   41CHL1  H23A 3020   0.325   2.817   7.937 -0.8521 -0.0996 -0.4221
   41CHL1  H23B 3021   0.415   2.678   8.011  0.1255  0.7917 -2.1941
   41CHL1   C24 3022   0.273   2.782   8.144  0.8782  0.1553  0.8128
   41CHL1  H24A 3023   0.330   2.795   8.238 -2.5153  1.3743  2.7787
   41CHL1  H24B 3024   0.200   2.864   8.130 -0.3856 -1.2100 -0.8279
   41CHL1   C25 3025   0.184   2.650   8.148 -0.4330  0.8106 -0.8605
   41CHL1   H25 3026   0.252   2.566   8.124 -1.4598 -0.6634  1.2049
   41CHL1   C26 3027   0.117   2.650   8.283 -0.4875  0.2383  0.7975
   41CHL1  H26A 3028   0.198   2.619   8.352 -1.4063 -1.6162  1.0631
   41CHL1  H26B 3029   0.075   2.751   8.301 -2.2099 -0.4224  0.5689
   41CHL1  H26C 3030   0.039   2.571   8.282  0.2768 -0.5096 -0.0490
   41CHL1   C27 3031   0.085   2.649   8.028  0.0488 -0.4656 -0.4266
   41CHL1  H27A 3032   0.012   2.733   8.030  0.1783 -0.2702 -2.5781
   41CHL1  H27B 3033   0.149   2.653   7.938  1.5630  1.0269  0.6887
   41CHL1  H27C 3034   0.029   2.553   8.024 -1.6821  0.5503 -1.0310
   42CHL1    C3 3035   2.135   6.766   6.996  0.7248  0.0804  0.2207
   42CHL1    H3 3036   2.026   6.776   7.018  1.1566  0.1610  2.4482
   42CHL1    O3 3037   2.148   6.733   6.861  0.1923 -0.0388 -0.0388
   42CHL1   H3' 3038   2.237   6.747   6.830  0.1726 -2.6423 -1.4009
   42CHL1    C4 3039   2.204   6.898   7.026 -0.4193 -1.1023 -0.6675
   42CHL1   H4A 3040   2.307   6.905   6.986  0.0610 -2.9620  0.2207
   42CHL1   H4B 3041   2.157   6.973   6.958 -1.2442 -0.5819  0.4643
   42CHL1    C5 3042   2.205   6.928   7.173 -0.3411 -0.0845 -0.0141
   42CHL1    C6 3043   2.173   7.046   7.222  0.1617 -0.2050 -0.2472
   42CHL1    H6 3044   2.135   7.123   7.153  0.4916  1.9931  1.9402
   42CHL1    C7 3045   2.193   7.075   7.367  0.6646  0.3961  0.8333
   42CHL1   H7A 3046   2.230   7.175   7.396  2.0541  0.2672 -0.4551
   42CHL1   H7B 3047   2.092   7.073   7.413  0.3590  1.8391  0.2486
   42CHL1    C8 3048   2.286   6.977   7.443 -0.2931  1.0765  0.2983
   42CHL1    H8 3049   2.390   6.991   7.405 -0.2011 -0.9108 -0.2145
   42CHL1   C14 3050   2.283   6.998   7.588  0.5778 -0.1150  0.0875
   42CHL1   H14 3051   2.177   6.969   7.607  0.6036 -1.0047 -1.0491
   42CHL1   C15 3052   2.291   7.144   7.639 -0.8717 -0.3640 -0.8784
   42CHL1  H15A 3053   2.369   7.206   7.591 -0.4395  1.7974  2.4935
   42CHL1  H15B 3054   2.195   7.195   7.615 -0.6150 -0.3014 -1.8267
   42CHL1   C16 3055   2.315   7.122   7.791  0.4825 -0.1294 -0.1545
   42CHL1  H16A 3056   2.419   7.157   7.812  0.5272 -0.9930  1.1084
   42CHL1  H16B 3057   2.242   7.170   7.859  1.1998 -0.4862  0.8740
   42CHL1   C17 3058   2.335   6.974   7.821  0.1951 -0.4278 -0.8120
   42CHL1   H17 3059   2.231   6.940   7.843  0.6120 -0.1642  1.7056
   42CHL1   C13 3060   2.375   6.909   7.688 -0.1031  0.5947 -0.6860
   42CHL1   C18 3061   2.526   6.930   7.654  0.2340  0.1146 -0.1573
   42CHL1  H18A 3062   2.531   7.041   7.650 -0.5202  0.1682  0.2472
   42CHL1  H18B 3063   2.587   6.876   7.729 -0.8957 -0.9524  0.0180
   42CHL1  H18C 3064   2.546   6.889   7.553  0.6142 -2.6071  0.9862
   42CHL1   C12 3065   2.327   6.764   7.659 -0.6023  0.5639 -0.4291
   42CHL1  H12A 3066   2.385   6.692   7.721 -2.7275  0.0022  0.9745
   42CHL1  H12B 3067   2.222   6.751   7.694  0.4052 -0.7671  2.2913
   42CHL1   C11 3068   2.329   6.724   7.509  0.0319 -0.6103 -0.2884
   42CHL1  H11A 3069   2.437   6.712   7.488 -0.2599 -0.4640 -1.9640
   42CHL1  H11B 3070   2.276   6.628   7.492  0.6070 -0.7784 -1.2005
   42CHL1    C9 3071   2.250   6.832   7.414 -0.4651  0.6998 -0.4099
   42CHL1    H9 3072   2.146   6.811   7.447 -0.1357 -0.4420 -0.0779
   42CHL1   C10 3073   2.256   6.810   7.259 -0.0435 -0.0670 -0.5566
   42CHL1   C19 3074   2.410   6.793   7.214 -1.1134  0.1763 -0.0761
   42CHL1  H19A 3075   2.452   6.698   7.253  0.9534 -0.0238 -2.6380
   42CHL1  H19B 3076   2.413   6.794   7.103  0.3224  3.1279 -0.0516
   42CHL1  H19C 3077   2.472   6.876   7.253 -0.8635  0.9508 -2.0792
   42CHL1    C1 3078   2.182   6.678   7.218 -0.2821  1.5519  0.1932
   42CHL1   H1A 3079   2.231   6.589   7.263 -1.5623  0.4805 -0.4801
   42CHL1   H1B 3080   2.079   6.673   7.259 -0.2894  0.7629  0.0819
   42CHL1    C2 3081   2.190   6.648   7.067  0.0809  0.4443 -0.0971
   42CHL1   H2A 3082   2.133   6.557   7.038 -0.8262  1.0059 -0.0951
   42CHL1   H2B 3083   2.296   6.636   7.035 -0.1260  1.0830 -1.0540
   42CHL1   C20 3084   2.408   6.940   7.948  0.6017 -0.1095  0.2442
   42CHL1   H20 3085   2.512   6.978   7.940  0.3499  0.5221 -0.0698
   42CHL1   C21 3086   2.420   6.791   7.957 -0.0765  0.4097 -0.6596
   42CHL1  H21A 3087   2.450   6.759   8.059 -1.0859 -0.8608 -0.7437
   42CHL1  H21B 3088   2.502   6.755   7.892  0.8378 -3.2635  2.4142
   42CHL1  H21C 3089   2.324   6.736   7.945 -0.7028  1.2424  0.3696
   42CHL1   C22 3090   2.337   7.007   8.072  0.3615 -0.3407 -0.3577
   42CHL1  H22A 3091   2.322   7.116   8.061 -1.5113 -0.4741  0.6440
   42CHL1  H22B 3092   2.231   6.972   8.073  0.1747  0.0856  3.4852
   42CHL1   C23 3093   2.399   6.996   8.218 -0.1700 -0.2856  0.4516
   42CHL1  H23A 3094   2.405   6.890   8.251  0.3734 -0.3033  0.3036
   42CHL1  H23B 3095   2.504   7.028   8.203 -0.2171  0.7901  2.3450
   42CHL1   C24 3096   2.328   7.081   8.326  0.9411  0.0216 -0.7102
   42CHL1  H24A 3097   2.333   7.188   8.296 -2.6838  1.2610  2.5949
   42CHL1  H24B 3098   2.220   7.054   8.327  0.8248  0.4578  1.1148
   42CHL1   C25 3099   2.391   7.079   8.462  0.0941 -0.2722 -0.0595
   42CHL1   H25 3100   2.499   7.100   8.449 -0.3540  0.6217 -2.4700
   42CHL1   C26 3101   2.333   7.202   8.545 -0.5227  0.5345  0.5172
   42CHL1  H26A 3102   2.222   7.205   8.553 -0.5625 -1.7905  1.1099
   42CHL1  H26B 3103   2.383   7.188   8.643  1.3794 -0.3811 -0.5496
   42CHL1  H26C 3104   2.382   7.291   8.499 -2.5135  1.4247  0.0798
   42CHL1   C27 3105   2.384   6.943   8.526 -0.4774  0.4836 -0.1149
   42CHL1  H27A 3106   2.455   6.876   8.472  0.5451  1.4542  0.0085
   42CHL1  H27B 3107   2.288   6.888   8.519  0.5055 -1.2887 -0.0729
   42CHL1  H27C 3108   2.405   6.944   8.635  0.2948 -1.4159 -0.2126
   43CHL1    C3 3109   1.781   4.324   6.840 -0.4967  0.2414 -0.7494
   43CHL1    H3 3110   1.741   4.423   6.871  1.8217  0.7265  0.7625
   43CHL1    O3 3111   1.809   4.341   6.704 -0.6891  0.0015  0.2861
   43CHL1   H3' 3112   1.814   4.253   6.665  1.2105  0.6169 -0.9065
   43CHL1    C4 3113   1.915   4.277   6.905  0.5853  0.5424 -0.1002
   43CHL1   H4A 3114   1.939   4.181   6.854 -1.0391  0.4609 -0.7501
   43CHL1   H4B 3115   1.987   4.353   6.870  1.4707  0.3767  1.3305
   43CHL1    C5 3116   1.882   4.265   7.050 -0.6873 -0.1836  1.1516
   43CHL1    C6 3117   1.955   4.337   7.136 -0.2956  0.3666 -0.3925
   43CHL1    H6 3118   2.028   4.412   7.100  2.3663 -1.3023  1.3511
   43CHL1    C7 3119   1.950   4.324   7.283  0.1568  0.0057 -0.2620
   43CHL1   H7A 3120   2.052   4.322   7.328  0.3130  1.3243 -0.5399
   43CHL1   H7B 3121   1.910   4.420   7.321  4.8134  2.9407 -2.3912
   43CHL1    C8 3122   1.868   4.196   7.329  0.2988  0.7896  1.1909
   43CHL1    H8 3123   1.931   4.107   7.307 -0.6182 -0.3225  2.9232
   43CHL1   C14 3124   1.846   4.198   7.476  0.3898 -0.6713  0.0058
   43CHL1   H14 3125   1.791   4.294   7.484  0.5453 -0.6407  0.7693
   43CHL1   C15 3126   1.959   4.210   7.579 -0.3421  0.2958  0.3026
   43CHL1  H15A 3127   2.034   4.139   7.540 -0.2771 -0.2102  1.3307
   43CHL1  H15B 3128   2.002   4.312   7.584 -0.8614  0.5825 -0.9080
   43CHL1   C16 3129   1.900   4.161   7.711  0.5127  0.7189 -0.3818
   43CHL1  H16A 3130   1.949   4.066   7.741 -0.3515  0.7475  1.2035
   43CHL1  H16B 3131   1.921   4.246   7.780  1.9498  0.4106 -0.4188
   43CHL1   C17 3132   1.749   4.141   7.687 -0.2029  0.5728 -0.1462
   43CHL1   H17 3133   1.717   4.246   7.701  1.0899  1.2080 -1.7932
   43CHL1   C13 3134   1.749   4.101   7.535  0.9420 -0.4462  0.1446
   43CHL1   C18 3135   1.797   3.955   7.527  0.1219  0.3626  0.3670
   43CHL1  H18A 3136   1.815   3.923   7.422  0.0701 -0.6842  0.6688
   43CHL1  H18B 3137   1.884   3.919   7.585  1.3799  0.8265 -1.1798
   43CHL1  H18C 3138   1.711   3.890   7.555  0.8506 -0.3882  0.8507
   43CHL1   C12 3139   1.611   4.119   7.459 -0.5808  0.1095 -0.2550
   43CHL1  H12A 3140   1.554   4.032   7.500 -0.8177  1.0934  1.5429
   43CHL1  H12B 3141   1.562   4.216   7.481 -2.0494 -0.3501 -1.4800
   43CHL1   C11 3142   1.630   4.096   7.308 -0.2817 -0.0904 -0.0129
   43CHL1  H11A 3143   1.662   3.991   7.292 -0.9440 -0.2878 -0.0361
   43CHL1  H11B 3144   1.534   4.101   7.252 -0.6922 -1.9302  0.4933
   43CHL1    C9 3145   1.739   4.185   7.241 -0.6614  0.2626  0.3674
   43CHL1    H9 3146   1.690   4.283   7.258  0.4220  1.0009 -0.7470
   43CHL1   C10 3147   1.772   4.170   7.092 -0.5711 -0.9491 -0.4598
   43CHL1   C19 3148   1.795   4.023   7.071  0.1730  0.0642 -0.9970
   43CHL1  H19A 3149   1.830   4.001   6.968 -0.1031  0.4601 -1.1799
   43CHL1  H19B 3150   1.877   3.987   7.136 -1.2690 -0.0252  0.8219
   43CHL1  H19C 3151   1.702   3.967   7.092  1.8610 -1.1681  3.8858
   43CHL1    C1 3152   1.638   4.211   7.011  0.2380 -0.1231  0.1953
   43CHL1   H1A 3153   1.556   4.140   7.037  1.1008 -0.6350  1.5764
   43CHL1   H1B 3154   1.609   4.312   7.047  2.4592  0.7468 -0.4038
   43CHL1    C2 3155   1.659   4.227   6.864  0.4258  0.3404  0.3208
   43CHL1   H2A 3156   1.579   4.266   6.797  0.2244  1.6475  1.3060
   43CHL1   H2B 3157   1.694   4.130   6.823  1.1549  0.2279  1.2057
   43CHL1   C20 3158   1.684   4.052   7.790  0.0826 -0.7184  0.1950
   43CHL1   H20 3159   1.705   3.946   7.763 -0.3203 -0.4134 -1.3913
   43CHL1   C21 3160   1.529   4.070   7.785 -0.1941  0.3489  0.0901
   43CHL1  H21A 3161   1.483   4.016   7.700  0.7154 -2.1057  1.1246
   43CHL1  H21B 3162   1.514   4.179   7.767 -1.8341 -0.1890 -2.1183
   43CHL1  H21C 3163   1.479   4.037   7.879  0.0279  0.5067  0.2646
   43CHL1   C22 3164   1.735   4.076   7.942 -0.6612  0.4447  0.9335
   43CHL1  H22A 3165   1.690   3.995   8.003 -1.0025 -1.3803 -1.6855
   43CHL1  H22B 3166   1.844   4.056   7.942 -0.7124  0.1716  0.6731
   43CHL1   C23 3167   1.702   4.220   7.998  0.5199  0.9615 -0.1438
   43CHL1  H23A 3168   1.712   4.286   7.910  0.4664  0.1031 -0.8020
   43CHL1  H23B 3169   1.604   4.238   8.048  0.0621 -1.1377 -0.2413
   43CHL1   C24 3170   1.800   4.258   8.113  0.6306 -0.0778 -0.1260
   43CHL1  H24A 3171   1.768   4.201   8.203 -1.7315 -0.3131 -1.0680
   43CHL1  H24B 3172   1.905   4.236   8.085  0.3364 -3.6071  1.2959
   43CHL1   C25 3173   1.786   4.407   8.157  0.6467 -0.3387  0.2878
   43CHL1   H25 3174   1.675   4.419   8.154  0.9072  2.0024 -1.0862
   43CHL1   C26 3175   1.833   4.434   8.303  0.2735  0.1468  0.0137
   43CHL1  H26A 3176   1.822   4.539   8.339  1.0563 -0.2811  1.5095
   43CHL1  H26B 3177   1.772   4.374   8.373  2.6463  1.9139  3.7772
   43CHL1  H26C 3178   1.938   4.404   8.322  0.5523  0.1398 -1.4493
   43CHL1   C27 3179   1.856   4.512   8.074 -0.0284 -0.2491  0.1752
   43CHL1  H27A 3180   1.825   4.614   8.104  1.0626  0.0373  0.3732
   43CHL1  H27B 3181   1.966   4.526   8.088 -0.0751  1.7536 -1.3358
   43CHL1  H27C 3182   1.837   4.521   7.965 -1.6141  0.5044  0.5048
   44CHL1    C3 3183   1.597   2.701   6.669 -0.0297  0.4422  0.3047
   44CHL1    H3 3184   1.490   2.722   6.690 -0.1980  0.2982 -0.4021
   44CHL1    O3 3185   1.619   2.658   6.540 -0.1332  0.5257 -0.5044
   44CHL1   H3' 3186   1.715   2.656   6.536 -0.1000 -0.6320  0.7250
   44CHL1    C4 3187   1.673   2.831   6.697 -0.6025  0.8092  0.4565
   44CHL1   H4A 3188   1.774   2.788   6.683 -0.6340  0.8060  0.2285
   44CHL1   H4B 3189   1.645   2.900   6.614 -2.4773 -0.6141 -0.1332
   44CHL1    C5 3190   1.672   2.889   6.841 -0.2995  0.5800  0.2442
   44CHL1    C6 3191   1.634   3.014   6.873 -0.2853 -0.1385  0.3410
   44CHL1    H6 3192   1.594   3.080   6.794 -0.4456 -0.3958  0.2063
   44CHL1    C7 3193   1.636   3.073   7.009  0.2410 -0.2191  0.3221
   44CHL1   H7A 3194   1.690   3.170   7.014 -1.8597  0.9546  0.7980
   44CHL1   H7B 3195   1.534   3.106   7.036  1.0779  3.2369 -0.5238
   44CHL1    C8 3196   1.701   2.983   7.109  0.0711 -0.2156  0.2213
   44CHL1    H8 3197   1.811   2.988   7.091  0.1739  0.1892  0.9673
   44CHL1   C14 3198   1.662   3.035   7.247 -0.2989  0.3822 -0.2068
   44CHL1   H14 3199   1.551   3.033   7.256 -0.2919  2.7345  0.8692
   44CHL1   C15 3200   1.687   3.183   7.282 -0.5507  0.8360  0.5264
   44CHL1  H15A 3201   1.790   3.214   7.258  0.0778 -1.1102  0.6068
   44CHL1  H15B 3202   1.613   3.252   7.234  0.2193  1.3356  0.0507
   44CHL1   C16 3203   1.665   3.186   7.437  0.2260 -0.1869  0.2935
   44CHL1  H16A 3204   1.753   3.238   7.479 -0.6700  1.5501  0.0465
   44CHL1  H16B 3205   1.581   3.254   7.462 -0.2495  0.1075 -1.9992
   44CHL1   C17 3206   1.656   3.038   7.479  0.1504  0.3747  0.0806
   44CHL1   H17 3207   1.546   3.025   7.481  0.1092  0.7409  0.3811
   44CHL1   C13 3208   1.713   2.951   7.357 -0.2865 -0.0493 -0.8195
   44CHL1   C18 3209   1.874   2.943   7.359  0.1636 -0.8091  0.4358
   44CHL1  H18A 3210   1.911   2.875   7.438  0.4284 -0.8982  0.2331
   44CHL1  H18B 3211   1.917   2.916   7.260 -0.4087  0.2586 -0.1138
   44CHL1  H18C 3212   1.911   3.044   7.385 -3.2325  0.5589  0.2630
   44CHL1   C12 3213   1.651   2.812   7.339 -0.1507  0.2650  0.0116
   44CHL1  H12A 3214   1.687   2.753   7.426 -2.5772 -0.2749  0.6629
   44CHL1  H12B 3215   1.541   2.807   7.347 -0.1859 -1.9992 -1.3071
   44CHL1   C11 3216   1.695   2.744   7.209 -0.3055 -0.5520 -1.1581
   44CHL1  H11A 3217   1.801   2.717   7.228  0.1122  1.7281 -0.1293
   44CHL1  H11B 3218   1.631   2.652   7.205 -0.2204 -0.7620  1.4074
   44CHL1    C9 3219   1.662   2.834   7.088  0.1587 -0.0788  0.0049
   44CHL1    H9 3220   1.551   2.839   7.093  0.0717 -0.9755 -0.8647
   44CHL1   C10 3221   1.695   2.777   6.949  0.4313 -0.6091  0.5398
   44CHL1   C19 3222   1.846   2.736   6.959 -0.4478  0.1762  0.1147
   44CHL1  H19A 3223   1.876   2.702   6.857 -3.1633  1.1282 -1.0424
   44CHL1  H19B 3224   1.900   2.832   6.977 -0.5359 -0.0415  1.5834
   44CHL1  H19C 3225   1.860   2.657   7.036  2.8474 -0.4806 -1.0422
   44CHL1    C1 3226   1.615   2.653   6.918  0.9996  0.0591 -0.2239
   44CHL1   H1A 3227   1.641   2.572   6.990  0.7624  0.2029  0.0262
   44CHL1   H1B 3228   1.506   2.677   6.920  0.6582 -1.4475  0.2571
   44CHL1    C2 3229   1.632   2.593   6.778 -0.0462 -0.2267  0.5300
   44CHL1   H2A 3230   1.567   2.504   6.763 -0.1426  0.1323 -1.3885
   44CHL1   H2B 3231   1.724   2.535   6.754  0.1662  1.3583 -2.7156
   44CHL1   C20 3232   1.705   3.012   7.621  0.2252 -0.0686 -0.3536
   44CHL1   H20 3233   1.816   3.013   7.615  0.2916 -1.3878  0.4759
   44CHL1   C21 3234   1.647   2.874   7.674 -0.1763 -0.3140  0.2419
   44CHL1  H21A 3235   1.690   2.791   7.614 -0.5774  0.9336 -1.8348
   44CHL1  H21B 3236   1.536   2.861   7.667 -0.1039 -1.2936  0.8370
   44CHL1  H21C 3237   1.686   2.861   7.777  0.4533  0.2719  0.0839
   44CHL1   C22 3238   1.652   3.124   7.715 -0.4302  0.0469 -0.0292
   44CHL1  H22A 3239   1.696   3.223   7.692  2.7664 -0.5728  3.0582
   44CHL1  H22B 3240   1.543   3.134   7.696 -0.5552  0.6522  0.9579
   44CHL1   C23 3241   1.669   3.091   7.866  0.8379 -0.4308  0.4823
   44CHL1  H23A 3242   1.597   3.013   7.898 -0.7596  0.3491 -1.1980
   44CHL1  H23B 3243   1.774   3.055   7.881  0.7762 -0.1804  1.5735
   44CHL1   C24 3244   1.637   3.207   7.961 -0.5836 -1.1587  0.0478
   44CHL1  H24A 3245   1.696   3.296   7.932 -0.1816 -1.0405  1.2224
   44CHL1  H24B 3246   1.530   3.236   7.955 -0.4800 -0.8104 -0.1060
   44CHL1   C25 3247   1.672   3.192   8.107 -0.3024  0.2589  0.6427
   44CHL1   H25 3248   1.630   3.092   8.130  0.3335  0.1707  1.4640
   44CHL1   C26 3249   1.830   3.175   8.128  0.7832  0.6700  0.3964
   44CHL1  H26A 3250   1.865   3.076   8.090 -1.8968 -0.7685  1.5363
   44CHL1  H26B 3251   1.885   3.256   8.076  1.4686 -0.3150 -0.4473
   44CHL1  H26C 3252   1.858   3.184   8.235 -1.4440  2.2818  0.8850
   44CHL1   C27 3253   1.610   3.297   8.197  0.7037 -1.2999 -0.5844
   44CHL1  H27A 3254   1.628   3.397   8.151  0.0513  0.0322  1.9420
   44CHL1  H27B 3255   1.502   3.278   8.212  0.8300 -1.2968  0.3593
   44CHL1  H27C 3256   1.667   3.316   8.291 -0.0690 -1.2868 -0.1134
   45CHL1    C3 3257   2.789   1.029   6.771  0.1795  0.5012 -0.4653
   45CHL1    H3 3258   2.729   1.122   6.766 -2.9921 -1.3330  1.6116
   45CHL1    O3 3259   2.818   0.980   6.638  0.4364  0.2055  0.3882
   45CHL1   H3' 3260   2.862   0.894   6.640  0.1267 -0.0223 -1.3370
   45CHL1    C4 3261   2.922   1.066   6.842  0.0259  0.4634  0.5861
   45CHL1   H4A 3262   2.995   0.986   6.817 -0.0836  0.5680 -0.0900
   45CHL1   H4B 3263   2.956   1.160   6.795 -0.6027 -0.2237 -1.3025
   45CHL1    C5 3264   2.898   1.097   6.990 -0.1340 -0.0387  0.4441
   45CHL1    C6 3265   2.935   1.210   7.047  0.1677  0.5347  0.0243
   45CHL1    H6 3266   2.991   1.286   6.990 -0.9608  1.8179  0.6064
   45CHL1    C7 3267   2.927   1.245   7.191  0.0067 -0.3171  0.1120
   45CHL1   H7A 3268   3.020   1.297   7.222 -0.4586 -0.8801  2.5700
   45CHL1   H7B 3269   2.858   1.331   7.204 -0.6583 -0.5475 -1.8020
   45CHL1    C8 3270   2.896   1.122   7.280 -0.2957  0.7367 -0.2631
   45CHL1    H8 3271   2.988   1.062   7.293 -1.1412 -0.7982 -1.2298
   45CHL1   C14 3272   2.858   1.163   7.423 -0.6849 -0.2010  0.5377
   45CHL1   H14 3273   2.767   1.225   7.407 -0.4680 -0.8430 -3.6802
   45CHL1   C15 3274   2.953   1.252   7.497  0.1065  0.7416 -0.0055
   45CHL1  H15A 3275   3.061   1.225   7.492  0.4500  1.4266  2.8742
   45CHL1  H15B 3276   2.948   1.361   7.479  0.8775  1.3188  2.9998
   45CHL1   C16 3277   2.912   1.230   7.641  0.1347  0.1282 -0.8542
   45CHL1  H16A 3278   3.002   1.206   7.702  0.5878  2.4071 -0.5583
   45CHL1  H16B 3279   2.872   1.322   7.690 -2.3137 -1.5556  0.4156
   45CHL1   C17 3280   2.797   1.123   7.645 -0.7620 -0.4762 -0.4116
   45CHL1   H17 3281   2.702   1.178   7.631 -0.1738  1.3712  2.5243
   45CHL1   C13 3282   2.816   1.042   7.516  0.3185  0.0666 -0.3392
   45CHL1   C18 3283   2.936   0.952   7.539 -0.9138  1.1947  0.3199
   45CHL1  H18A 3284   2.950   0.878   7.457  1.5582  0.2807  1.5262
   45CHL1  H18B 3285   3.033   1.006   7.544  0.2128 -0.8064  0.5166
   45CHL1  H18C 3286   2.924   0.892   7.632  0.2554 -0.4650 -0.5634
   45CHL1   C12 3287   2.699   0.970   7.445 -0.0389  0.0128  0.9784
   45CHL1  H12A 3288   2.681   0.876   7.502  0.0136 -0.9839 -0.5998
   45CHL1  H12B 3289   2.606   1.027   7.425 -0.1150 -0.1220  0.9484
   45CHL1   C11 3290   2.744   0.924   7.310  0.3786 -0.2823  0.0580
   45CHL1  H11A 3291   2.817   0.843   7.332 -0.8236 -0.8203  2.2163
   45CHL1  H11B 3292   2.667   0.862   7.259 -0.3711 -0.9548  1.9282
   45CHL1    C9 3293   2.786   1.034   7.215  0.3094 -0.2766  0.4874
   45CHL1    H9 3294   2.703   1.104   7.192  0.7426 -0.1476 -0.6679
   45CHL1   C10 3295   2.821   0.990   7.071 -0.1298 -0.4000  0.5532
   45CHL1   C19 3296   2.929   0.867   7.067  0.4211 -0.1498  1.1211
   45CHL1  H19A 3297   2.867   0.784   7.107 -2.3849  0.5368 -1.5973
   45CHL1  H19B 3298   2.963   0.836   6.966 -2.2992 -0.0751  0.1629
   45CHL1  H19C 3299   3.018   0.891   7.130  2.0386 -1.3892 -0.6295
   45CHL1    C1 3300   2.692   0.948   6.996  0.2502 -0.1051 -0.1352
   45CHL1   H1A 3301   2.648   0.859   7.047 -0.6134  1.6205  2.1893
   45CHL1   H1B 3302   2.618   1.031   6.995 -1.0863 -1.2604  1.0663
   45CHL1    C2 3303   2.720   0.914   6.852  0.3299  0.2932 -0.0928
   45CHL1   H2A 3304   2.623   0.896   6.800 -1.0269  1.4124  1.9813
   45CHL1   H2B 3305   2.776   0.818   6.851 -1.8557 -1.0237 -2.5324
   45CHL1   C20 3306   2.793   1.051   7.781 -0.4375 -1.1166 -0.0822
   45CHL1   H20 3307   2.892   1.010   7.810 -0.0169 -0.0661  0.0022
   45CHL1   C21 3308   2.693   0.931   7.774 -0.1925 -0.2355  0.2077
   45CHL1  H21A 3309   2.595   0.972   7.742 -0.4164 -2.5426 -2.1553
   45CHL1  H21B 3310   2.679   0.883   7.873  0.4363  0.0238  0.4246
   45CHL1  H21C 3311   2.723   0.853   7.701 -0.4581  0.1870 -0.3582
   45CHL1   C22 3312   2.749   1.167   7.880  0.1700 -0.2788  0.0967
   45CHL1  H22A 3313   2.821   1.250   7.883  0.4589 -0.3818 -2.7820
   45CHL1  H22B 3314   2.660   1.210   7.829  0.7677  0.0071 -0.6909
   45CHL1   C23 3315   2.705   1.129   8.028  0.0528 -0.0877  1.0296
   45CHL1  H23A 3316   2.695   1.226   8.082  2.6139  0.8229 -0.0992
   45CHL1  H23B 3317   2.605   1.083   8.010  0.1625  0.5918 -1.4836
   45CHL1   C24 3318   2.795   1.038   8.103 -0.5839  0.4265  0.8024
   45CHL1  H24A 3319   2.769   1.033   8.211 -0.1834 -0.1304  0.8790
   45CHL1  H24B 3320   2.786   0.937   8.057 -1.4118  0.9240 -0.1521
   45CHL1   C25 3321   2.948   1.070   8.109  0.0255  0.0441  0.0280
   45CHL1   H25 3322   3.006   1.038   8.020  2.8911 -0.5197  2.0388
   45CHL1   C26 3323   2.994   1.217   8.130 -0.5693 -0.8534  0.4444
   45CHL1  H26A 3324   2.967   1.284   8.046 -0.0824 -1.1602  0.0416
   45CHL1  H26B 3325   2.951   1.258   8.224  3.3808  1.7315  1.2433
   45CHL1  H26C 3326   3.105   1.224   8.135 -0.2379 -3.5240 -2.3094
   45CHL1   C27 3327   3.009   1.002   8.229 -0.1590  0.8863 -0.0872
   45CHL1  H27A 3328   2.988   0.893   8.229 -2.5043  1.3133  0.3532
   45CHL1  H27B 3329   3.120   1.001   8.225 -0.1362  1.0230  0.4063
   45CHL1  H27C 3330   2.972   1.043   8.326 -0.8113  1.0650 -0.4107
   46CHL1    C3 3331   2.734   2.357   6.992  0.3800 -0.2013 -0.0671
   46CHL1    H3 3332   2.701   2.252   6.981  0.3053 -0.3464  1.3527
   46CHL1    O3 3333   2.746   2.400   6.857  0.3648  0.1118  0.2113
   46CHL1   H3' 3334   2.816   2.347   6.820 -2.4702 -2.6721 -1.4087
   46CHL1    C4 3335   2.619   2.437   7.058 -0.2896  0.6359 -0.1468
   46CHL1   H4A 3336   2.648   2.544   7.052  1.7624  0.3327  3.1433
   46CHL1   H4B 3337   2.526   2.422   7.000  0.7673  1.1343 -2.0128
   46CHL1    C5 3338   2.600   2.389   7.201  0.1240  0.9072  0.6210
   46CHL1    C6 3339   2.483   2.350   7.246 -0.4360 -0.7784  0.0033
   46CHL1    H6 3340   2.389   2.361   7.190 -1.0562 -0.5060  1.0702
   46CHL1    C7 3341   2.453   2.325   7.389  0.0315  0.4347  0.7636
   46CHL1   H7A 3342   2.366   2.378   7.435 -1.4363 -0.5367 -0.8298
   46CHL1   H7B 3343   2.429   2.217   7.389 -0.5999  0.5386 -1.4920
   46CHL1    C8 3344   2.571   2.339   7.494 -0.3542 -0.5151  0.3496
   46CHL1    H8 3345   2.566   2.448   7.517  1.1188 -0.2254 -0.6272
   46CHL1   C14 3346   2.543   2.255   7.617 -0.2156  0.9559 -0.3510
   46CHL1   H14 3347   2.555   2.151   7.579  3.4137  0.9146  0.7291
   46CHL1   C15 3348   2.412   2.273   7.693  0.1332  0.3528  0.5301
   46CHL1  H15A 3349   2.392   2.382   7.707  0.7731  0.6968 -1.1068
   46CHL1  H15B 3350   2.338   2.211   7.639  1.6513 -1.5464  0.5761
   46CHL1   C16 3351   2.437   2.215   7.833  0.6157 -0.3798  0.2797
   46CHL1  H16A 3352   2.417   2.286   7.915  0.6886 -1.8673  1.6123
   46CHL1  H16B 3353   2.379   2.121   7.846 -0.7518  0.6873  2.0572
   46CHL1   C17 3354   2.586   2.176   7.829 -0.1787 -0.2423 -0.7271
   46CHL1   H17 3355   2.585   2.074   7.785 -1.1188 -0.4719 -0.1810
   46CHL1   C13 3356   2.657   2.262   7.721  0.1603  0.0874  0.6763
   46CHL1   C18 3357   2.663   2.410   7.777  0.4288  0.7498 -0.2239
   46CHL1  H18A 3358   2.739   2.410   7.858 -0.5507  1.8058  0.7169
   46CHL1  H18B 3359   2.705   2.480   7.701  2.5182 -0.0214  0.1844
   46CHL1  H18C 3360   2.566   2.436   7.825 -0.6894 -0.1667 -1.9408
   46CHL1   C12 3361   2.786   2.215   7.653 -0.2071 -0.0301  0.1680
   46CHL1  H12A 3362   2.873   2.228   7.720 -0.7148 -0.5234  0.9357
   46CHL1  H12B 3363   2.775   2.105   7.638  1.4161 -0.2156  0.2269
   46CHL1   C11 3364   2.814   2.297   7.527  0.3292 -0.4611 -0.7617
   46CHL1  H11A 3365   2.825   2.403   7.559  0.7232 -1.4308  2.5743
   46CHL1  H11B 3366   2.905   2.262   7.474 -0.7570 -1.6049 -1.8857
   46CHL1    C9 3367   2.699   2.299   7.422  0.4207  0.2468  0.1556
   46CHL1    H9 3368   2.685   2.193   7.392 -0.2052  0.1815  0.6669
   46CHL1   C10 3369   2.731   2.374   7.290 -1.0228 -0.0494  0.6667
   46CHL1   C19 3370   2.776   2.520   7.327  0.4776 -0.1833  0.0655
   46CHL1  H19A 3371   2.873   2.526   7.381  1.3673 -0.5876 -1.4596
   46CHL1  H19B 3372   2.790   2.583   7.236 -0.3111  0.1718  0.1875
   46CHL1  H19C 3373   2.701   2.570   7.392  0.9833  0.4154  0.1855
   46CHL1    C1 3374   2.846   2.304   7.213 -0.2396  0.1759  0.1304
   46CHL1   H1A 3375   2.938   2.305   7.275 -1.5630 -0.5749  2.1320
   46CHL1   H1B 3376   2.825   2.196   7.199 -2.4598  0.2237  2.8752
   46CHL1    C2 3377   2.867   2.355   7.073 -0.9569  0.5684  0.1560
   46CHL1   H2A 3378   2.937   2.283   7.026 -0.7566  1.2428 -0.5877
   46CHL1   H2B 3379   2.910   2.457   7.077 -0.4922  0.3243  1.7472
   46CHL1   C20 3380   2.655   2.167   7.971  0.1020  1.3793 -0.2693
   46CHL1   H20 3381   2.646   2.267   8.018 -0.5848  1.8093 -1.2945
   46CHL1   C21 3382   2.802   2.125   7.947 -0.5890 -0.2810  0.1647
   46CHL1  H21A 3383   2.796   2.040   7.875  0.1157  1.1717 -1.6473
   46CHL1  H21B 3384   2.854   2.097   8.041  0.0283  1.8043  0.4624
   46CHL1  H21C 3385   2.861   2.213   7.914 -0.5938 -0.4609 -0.3357
   46CHL1   C22 3386   2.572   2.070   8.058 -0.3961  0.2507  0.3098
   46CHL1  H22A 3387   2.474   2.112   8.088 -0.5706  0.5563 -0.6604
   46CHL1  H22B 3388   2.546   1.977   8.003 -0.1380  0.2559  0.1752
   46CHL1   C23 3389   2.642   2.036   8.193  0.1623 -0.3883 -0.3442
   46CHL1  H23A 3390   2.717   1.955   8.178  0.6622 -0.3409  1.7547
   46CHL1  H23B 3391   2.694   2.129   8.225 -1.2546  0.5792 -0.8173
   46CHL1   C24 3392   2.534   1.991   8.286 -0.1132  0.4877  0.5024
   46CHL1  H24A 3393   2.457   2.066   8.310 -0.2939  0.4889 -0.0656
   46CHL1  H24B 3394   2.483   1.902   8.242 -0.7887  0.4588  1.3465
   46CHL1   C25 3395   2.587   1.938   8.427  0.4816 -0.0028 -0.0726
   46CHL1   H25 3396   2.635   2.024   8.479 -1.5966  1.0343  0.1672
   46CHL1   C26 3397   2.473   1.900   8.518 -0.0793 -0.3022 -0.0489
   46CHL1  H26A 3398   2.424   1.806   8.486  1.3794 -1.7592  1.8376
   46CHL1  H26B 3399   2.513   1.863   8.615  0.6723 -0.2112 -0.3205
   46CHL1  H26C 3400   2.401   1.983   8.537 -0.2581 -0.9791  2.4444
   46CHL1   C27 3401   2.690   1.827   8.410 -1.0495 -0.0555  0.1661
   46CHL1  H27A 3402   2.781   1.863   8.357  0.2920 -0.9337  1.8263
   46CHL1  H27B 3403   2.721   1.792   8.510 -2.8399  1.5838  1.3405
   46CHL1  H27C 3404   2.648   1.745   8.347 -1.2739  1.2648 -1.4528
   47CHL1    C3 3405   2.176   2.197   6.718  0.2517  0.5313 -0.0493
   47CHL1    H3 3406   2.237   2.114   6.761  1.7634  0.3912 -2.3794
   47CHL1    O3 3407   2.189   2.186   6.577 -0.2921  0.8935 -0.0774
   47CHL1   H3' 3408   2.099   2.197   6.544 -0.1263 -1.2568 -1.3725
   47CHL1    C4 3409   2.028   2.166   6.755 -0.6966 -0.1971 -0.1575
   47CHL1   H4A 3410   1.969   2.247   6.706 -3.1165 -0.9730  1.3941
   47CHL1   H4B 3411   1.996   2.072   6.705 -1.1384 -0.0414 -0.1734
   47CHL1    C5 3412   2.019   2.173   6.910  0.1998 -0.3516  0.7012
   47CHL1    C6 3413   1.978   2.065   6.980  0.6586  0.2896 -0.5016
   47CHL1    H6 3414   1.945   1.976   6.925 -1.9171  0.9837 -0.1442
   47CHL1    C7 3415   1.952   2.067   7.129  0.9829  0.6458  0.5171
   47CHL1   H7A 3416   1.862   2.005   7.147  0.7864  1.0591  0.9680
   47CHL1   H7B 3417   2.045   2.028   7.177  1.0009  2.5828  2.1061
   47CHL1    C8 3418   1.946   2.210   7.192 -0.1354 -0.3007  0.3327
   47CHL1    H8 3419   1.853   2.259   7.157 -1.5246 -2.9977  0.1072
   47CHL1   C14 3420   1.948   2.213   7.344 -0.6160  0.0740 -0.6676
   47CHL1   H14 3421   2.042   2.164   7.377 -0.5237  1.2812  0.9366
   47CHL1   C15 3422   1.843   2.131   7.425 -0.2084 -0.4421 -1.1651
   47CHL1  H15A 3423   1.740   2.135   7.385  0.1742  1.4797 -2.0131
   47CHL1  H15B 3424   1.879   2.027   7.411  1.9878 -0.1595  1.8548
   47CHL1   C16 3425   1.856   2.187   7.559  0.0532 -0.5193  0.8929
   47CHL1  H16A 3426   1.753   2.215   7.590 -0.0927  1.1524 -0.9747
   47CHL1  H16B 3427   1.895   2.118   7.637 -0.4564 -1.0477  0.6801
   47CHL1   C17 3428   1.959   2.309   7.562 -0.0172 -0.5953 -0.4138
   47CHL1   H17 3429   2.058   2.263   7.581 -0.5120 -0.5467  2.4178
   47CHL1   C13 3430   1.956   2.350   7.416 -0.1271 -0.2691  0.4314
   47CHL1   C18 3431   1.832   2.432   7.390  1.1243  0.0908 -0.0973
   47CHL1  H18A 3432   1.736   2.389   7.425  0.7230  0.1077 -1.1651
   47CHL1  H18B 3433   1.840   2.525   7.451 -2.4632  0.9181 -0.7789
   47CHL1  H18C 3434   1.824   2.455   7.281  2.4322 -2.3369 -0.7506
   47CHL1   C12 3435   2.081   2.420   7.358  0.5109 -0.3127 -1.2960
   47CHL1  H12A 3436   2.092   2.521   7.402 -3.1148 -0.2475 -0.4160
   47CHL1  H12B 3437   2.174   2.373   7.397  0.3775 -0.2585 -0.9144
   47CHL1   C11 3438   2.078   2.434   7.207  0.0332 -0.2544 -0.0057
   47CHL1  H11A 3439   1.997   2.508   7.186  0.8533  1.3195  2.1998
   47CHL1  H11B 3440   2.168   2.494   7.180 -1.5406  1.8865 -0.6764
   47CHL1    C9 3441   2.057   2.298   7.132 -0.5239 -0.4167  0.6787
   47CHL1    H9 3442   2.143   2.235   7.164  0.4878  0.9307  0.6707
   47CHL1   C10 3443   2.064   2.305   6.977 -0.3090  0.3503 -0.5068
   47CHL1   C19 3444   1.967   2.417   6.931  0.1695  0.4492 -0.6547
   47CHL1  H19A 3445   1.946   2.419   6.822  2.7045  2.7986 -1.1725
   47CHL1  H19B 3446   1.871   2.404   6.985 -0.4815  1.7696 -1.4685
   47CHL1  H19C 3447   2.006   2.518   6.957  0.7245 -0.2334  1.2930
   47CHL1    C1 3448   2.208   2.354   6.926  0.4711  0.1719 -0.6351
   47CHL1   H1A 3449   2.215   2.460   6.957 -0.9688  0.2287 -0.4510
   47CHL1   H1B 3450   2.289   2.306   6.984 -1.3527 -1.3447  0.7550
   47CHL1    C2 3451   2.222   2.333   6.770 -0.4806 -0.3490  0.2588
   47CHL1   H2A 3452   2.330   2.342   6.746 -0.6549 -0.4180 -0.5725
   47CHL1   H2B 3453   2.174   2.410   6.706  0.2702 -0.4684 -0.4597
   47CHL1   C20 3454   1.933   2.409   7.673 -0.3452  0.2530 -0.0464
   47CHL1   H20 3455   1.835   2.457   7.649 -0.6597  0.1864  1.0528
   47CHL1   C21 3456   2.041   2.520   7.671  0.1163  0.7740 -0.4079
   47CHL1  H21A 3457   2.043   2.602   7.595  1.7120  0.3702 -0.8343
   47CHL1  H21B 3458   2.142   2.474   7.661 -0.6270 -0.4112 -2.7553
   47CHL1  H21C 3459   2.045   2.562   7.774  0.2761  1.4969 -0.7036
   47CHL1   C22 3460   1.916   2.346   7.812 -0.0387  0.8505  0.0244
   47CHL1  H22A 3461   1.908   2.416   7.898  0.1105  0.6106  0.2359
   47CHL1  H22B 3462   1.822   2.287   7.818  0.8776 -0.5986  0.3890
   47CHL1   C23 3463   2.035   2.260   7.855 -0.2746  0.4840 -0.4418
   47CHL1  H23A 3464   2.045   2.169   7.793  0.9705 -0.0666  0.5545
   47CHL1  H23B 3465   2.132   2.313   7.846 -0.1769  0.3463 -0.2204
   47CHL1   C24 3466   2.022   2.218   8.002 -0.4786 -0.0303  0.3472
   47CHL1  H24A 3467   2.072   2.287   8.074  0.3167 -0.0746 -0.1497
   47CHL1  H24B 3468   1.915   2.215   8.030 -1.2721  3.0710 -2.0594
   47CHL1   C25 3469   2.082   2.083   8.039  0.0474  0.5811 -0.0048
   47CHL1   H25 3470   2.179   2.064   7.988  1.2183  0.8375  2.0828
   47CHL1   C26 3471   2.114   2.091   8.192  0.8346 -0.7678 -0.2088
   47CHL1  H26A 3472   2.149   1.990   8.223  1.5169 -0.5412 -0.2167
   47CHL1  H26B 3473   2.180   2.175   8.224  0.5168 -1.1642  1.5397
   47CHL1  H26C 3474   2.017   2.112   8.242  0.7271  0.5439 -0.9465
   47CHL1   C27 3475   1.968   1.980   8.006  0.0491 -0.3692  0.4247
   47CHL1  H27A 3476   1.932   1.991   7.902 -2.6837  0.7922  1.4558
   47CHL1  H27B 3477   1.993   1.873   8.021  1.1655 -0.1514  0.1519
   47CHL1  H27C 3478   1.879   2.010   8.066 -0.5158  2.4207 -1.7173
   48CHL1    C3 3479   5.662   4.962   6.309  0.0108 -0.2405 -0.3656
   48CHL1    H3 3480   5.756   4.928   6.358  0.2038 -0.6467 -1.0125
   48CHL1    O3 3481   5.677   4.940   6.168 -0.1087 -0.2090 -0.2704
   48CHL1   H3' 3482   5.632   4.857   6.149 -0.8880 -0.2771  1.7776
   48CHL1    C4 3483   5.550   4.866   6.364  0.0958 -0.1091 -0.2413
   48CHL1   H4A 3484   5.460   4.880   6.300 -0.9412  1.5796  1.5126
   48CHL1   H4B 3485   5.591   4.765   6.343  1.5158  0.4979 -0.4324
   48CHL1    C5 3486   5.517   4.892   6.513 -0.2893 -0.3703  0.2827
   48CHL1    C6 3487   5.533   4.798   6.606  0.9052  0.7888  0.1610
   48CHL1    H6 3488   5.553   4.697   6.568 -1.8486 -0.6953  2.4463
   48CHL1    C7 3489   5.493   4.824   6.753  0.1838  0.2430 -0.0703
   48CHL1   H7A 3490   5.430   4.738   6.783 -1.0471 -0.0640 -3.3339
   48CHL1   H7B 3491   5.574   4.817   6.828  0.0111 -1.9369 -0.0713
   48CHL1    C8 3492   5.417   4.952   6.782  0.0915  0.3805 -0.0718
   48CHL1    H8 3493   5.312   4.939   6.748 -0.5914 -0.2683  2.1418
   48CHL1   C14 3494   5.414   4.980   6.929 -0.1495 -0.3974 -0.5220
   48CHL1   H14 3495   5.521   4.998   6.956  0.6218 -0.9798 -3.0316
   48CHL1   C15 3496   5.369   4.869   7.026  0.1279 -0.0406  0.3182
   48CHL1  H15A 3497   5.279   4.814   6.992 -0.5814  1.2382  0.0670
   48CHL1  H15B 3498   5.459   4.808   7.050 -0.0798 -0.1794  0.7402
   48CHL1   C16 3499   5.338   4.933   7.160  0.4108  0.2535  0.6457
   48CHL1  H16A 3500   5.236   4.904   7.191  0.6316 -1.5068 -0.1969
   48CHL1  H16B 3501   5.392   4.892   7.248  0.8083 -1.3949 -0.3534
   48CHL1   C17 3502   5.362   5.079   7.138  0.3327 -0.0146 -0.4166
   48CHL1   H17 3503   5.468   5.091   7.171  0.7414 -2.0363 -0.9072
   48CHL1   C13 3504   5.345   5.103   6.980 -1.1401  0.7325  0.4781
   48CHL1   C18 3505   5.191   5.095   6.947 -0.6343 -0.0723 -0.3029
   48CHL1  H18A 3506   5.143   5.010   7.001 -1.6302 -0.1157 -1.2501
   48CHL1  H18B 3507   5.134   5.178   6.994 -1.1215 -1.5491  1.8049
   48CHL1  H18C 3508   5.170   5.100   6.838 -0.3745  3.1470 -0.2674
   48CHL1   C12 3509   5.405   5.221   6.910  0.7360  0.2226  0.2086
   48CHL1  H12A 3510   5.351   5.317   6.922  0.2928  0.0372 -0.2723
   48CHL1  H12B 3511   5.509   5.237   6.947  1.3582  1.4647 -1.9927
   48CHL1   C11 3512   5.415   5.197   6.755 -0.2163 -0.3207 -0.2984
   48CHL1  H11A 3513   5.308   5.197   6.725 -0.4380  0.0648  0.4812
   48CHL1  H11B 3514   5.466   5.286   6.710 -0.9290  1.9148  3.1538
   48CHL1    C9 3515   5.477   5.068   6.704 -0.1506  0.0056 -0.2697
   48CHL1    H9 3516   5.584   5.075   6.734 -0.1476  2.9555 -0.8152
   48CHL1   C10 3517   5.487   5.042   6.548  0.4951 -0.1216  0.5855
   48CHL1   C19 3518   5.358   5.086   6.478  0.4035  0.6258 -0.5765
   48CHL1  H19A 3519   5.343   5.032   6.381 -1.3260  1.4157 -0.7672
   48CHL1  H19B 3520   5.270   5.041   6.528  0.6979  0.3836 -0.2747
   48CHL1  H19C 3521   5.350   5.193   6.450 -1.8786  0.3708 -0.9249
   48CHL1    C1 3522   5.608   5.132   6.486  0.0791  0.1478 -0.6081
   48CHL1   H1A 3523   5.584   5.239   6.504  1.7912  0.4611 -0.0617
   48CHL1   H1B 3524   5.701   5.117   6.545 -0.2880  3.1296  0.8484
   48CHL1    C2 3525   5.640   5.113   6.337  0.4145 -0.5265 -0.1152
   48CHL1   H2A 3526   5.729   5.176   6.314  0.4359  0.4835  2.5301
   48CHL1   H2B 3527   5.553   5.147   6.277  1.0374  0.1949 -0.6271
   48CHL1   C20 3528   5.273   5.167   7.235  0.0424 -0.5062  0.1361
   48CHL1   H20 3529   5.166   5.144   7.219 -0.7981  1.3953  2.7568
   48CHL1   C21 3530   5.275   5.316   7.201  0.2134  0.1206 -0.2058
   48CHL1  H21A 3531   5.378   5.354   7.219 -0.4735  1.1728  1.6604
   48CHL1  H21B 3532   5.215   5.371   7.277 -1.0302 -0.5549 -0.6935
   48CHL1  H21C 3533   5.239   5.335   7.098 -1.0652  1.4134  0.4562
   48CHL1   C22 3534   5.300   5.143   7.390 -0.5916 -0.9216 -0.2522
   48CHL1  H22A 3535   5.317   5.035   7.412  0.2473 -0.7547 -0.0827
   48CHL1  H22B 3536   5.395   5.197   7.411 -0.2315 -1.7134  0.1880
   48CHL1   C23 3537   5.186   5.201   7.489  0.4134 -0.2019 -0.3139
   48CHL1  H23A 3538   5.167   5.305   7.456  0.3407 -0.2136 -0.3098
   48CHL1  H23B 3539   5.099   5.138   7.461 -0.5614  1.5391 -1.2422
   48CHL1   C24 3540   5.214   5.181   7.637  0.5385  0.1693 -0.4923
   48CHL1  H24A 3541   5.232   5.072   7.650  1.2478  0.2602 -0.6731
   48CHL1  H24B 3542   5.306   5.236   7.666  0.6339 -0.0104 -0.4477
   48CHL1   C25 3543   5.109   5.241   7.733  0.0044  0.5004 -0.5443
   48CHL1   H25 3544   5.011   5.210   7.692  0.4166 -1.8268  0.1821
   48CHL1   C26 3545   5.119   5.181   7.875 -0.2377 -0.5347  0.1998
   48CHL1  H26A 3546   5.211   5.211   7.930 -0.7199  1.9153 -0.2679
   48CHL1  H26B 3547   5.028   5.220   7.925 -0.9871 -1.6891 -0.2579
   48CHL1  H26C 3548   5.113   5.070   7.879  1.9691 -0.8013 -2.6968
   48CHL1   C27 3549   5.124   5.395   7.735  0.4890 -0.1751  0.1411
   48CHL1  H27A 3550   5.051   5.445   7.802  0.4256 -1.3464  0.9505
   48CHL1  H27B 3551   5.226   5.437   7.746  0.2078  0.1509  1.4900
   48CHL1  H27C 3552   5.099   5.430   7.632  0.3669 -1.6080 -0.3368
   49CHL1    C3 3553   4.450   6.218   6.451  0.8070  0.4453 -0.5268
   49CHL1    H3 3554   4.442   6.107   6.452 -1.2742  0.5218 -2.5916
   49CHL1    O3 3555   4.445   6.257   6.318  0.8884  0.0545 -0.3964
   49CHL1   H3' 3556   4.504   6.193   6.279  0.9338  0.0530 -0.3251
   49CHL1    C4 3557   4.337   6.298   6.522 -0.1132  0.5370 -0.2213
   49CHL1   H4A 3558   4.350   6.407   6.502  0.4682  0.4611 -0.2371
   49CHL1   H4B 3559   4.243   6.273   6.467  0.4867 -0.1263 -0.9481
   49CHL1    C5 3560   4.328   6.265   6.671 -0.4460  0.3852 -0.0520
   49CHL1    C6 3561   4.214   6.211   6.724  0.3356 -0.2049  0.1743
   49CHL1    H6 3562   4.123   6.207   6.662 -0.0404 -2.7980  0.8348
   49CHL1    C7 3563   4.195   6.175   6.870  0.4058 -0.7604 -0.1179
   49CHL1   H7A 3564   4.094   6.191   6.912  1.6705  1.3377  2.2671
   49CHL1   H7B 3565   4.222   6.068   6.883  0.3821 -0.7240  0.2430
   49CHL1    C8 3566   4.303   6.247   6.956 -0.2011 -0.4391 -0.5040
   49CHL1    H8 3567   4.272   6.353   6.959  0.4931 -0.2162 -1.0284
   49CHL1   C14 3568   4.305   6.193   7.096  0.1161  0.4143 -0.5581
   49CHL1   H14 3569   4.342   6.088   7.085  3.6899  1.5649 -0.1049
   49CHL1   C15 3570   4.171   6.171   7.163 -0.6647 -0.1231  0.0365
   49CHL1  H15A 3571   4.093   6.247   7.142  1.5128  1.9473 -0.7397
   49CHL1  H15B 3572   4.125   6.076   7.128 -0.0543  0.7043 -3.1856
   49CHL1   C16 3573   4.201   6.164   7.314  0.0437 -0.1623  0.1013
   49CHL1  H16A 3574   4.144   6.247   7.360 -1.7500 -1.1792 -0.2322
   49CHL1  H16B 3575   4.163   6.063   7.342 -1.2425  0.6706  1.4014
   49CHL1   C17 3576   4.358   6.179   7.325  0.7786  0.6715 -0.0909
   49CHL1   H17 3577   4.395   6.074   7.322 -2.2864 -0.4202 -0.8377
   49CHL1   C13 3578   4.400   6.256   7.193 -0.0724 -0.0939  0.5659
   49CHL1   C18 3579   4.365   6.407   7.210 -0.1058 -0.6030 -0.2588
   49CHL1  H18A 3580   4.276   6.424   7.275 -0.6570  0.1099 -1.1803
   49CHL1  H18B 3581   4.444   6.474   7.250  1.0592 -0.4845 -2.6943
   49CHL1  H18C 3582   4.352   6.456   7.111 -2.2524  1.6273  1.0649
   49CHL1   C12 3583   4.541   6.227   7.138 -0.5287  0.3910  0.2911
   49CHL1  H12A 3584   4.601   6.289   7.208 -1.9325  1.6982  0.3816
   49CHL1  H12B 3585   4.565   6.119   7.147 -3.1864 -0.2167  0.6500
   49CHL1   C11 3586   4.545   6.272   6.994  0.4584  0.3435  0.0627
   49CHL1  H11A 3587   4.551   6.383   7.002 -2.9098  0.4514  2.1937
   49CHL1  H11B 3588   4.645   6.245   6.955 -0.5526 -0.8594 -1.7180
   49CHL1    C9 3589   4.441   6.219   6.889  0.2531 -0.3288 -0.3954
   49CHL1    H9 3590   4.456   6.109   6.880 -0.6753 -0.3624 -1.6460
   49CHL1   C10 3591   4.453   6.283   6.747  0.0181 -0.7997 -0.5386
   49CHL1   C19 3592   4.485   6.442   6.754  0.2359 -0.5655 -0.2309
   49CHL1  H19A 3593   4.579   6.479   6.800 -2.0667  1.7760  2.9083
   49CHL1  H19B 3594   4.493   6.476   6.649 -1.4328 -0.2859 -0.2830
   49CHL1  H19C 3595   4.395   6.495   6.793 -0.8843 -2.3276 -0.3910
   49CHL1    C1 3596   4.579   6.220   6.678 -0.4437 -0.0357  0.0437
   49CHL1   H1A 3597   4.677   6.250   6.721 -0.0685 -2.1035  0.6812
   49CHL1   H1B 3598   4.561   6.112   6.695  0.7770 -0.1668  0.5182
   49CHL1    C2 3599   4.587   6.247   6.526  0.4539 -0.1577 -0.6729
   49CHL1   H2A 3600   4.657   6.172   6.484 -1.7682 -2.4569 -0.4145
   49CHL1   H2B 3601   4.626   6.346   6.492  1.6604 -0.2037  0.5693
   49CHL1   C20 3602   4.388   6.251   7.459  0.3070 -0.1797  0.0613
   49CHL1   H20 3603   4.326   6.343   7.465 -0.6516 -0.8165 -0.0660
   49CHL1   C21 3604   4.538   6.291   7.475  0.5347 -0.2181  0.9643
   49CHL1  H21A 3605   4.546   6.349   7.569 -1.1869 -1.4491  1.9010
   49CHL1  H21B 3606   4.571   6.360   7.394  2.0025  0.6070  2.2338
   49CHL1  H21C 3607   4.587   6.191   7.476 -0.3775 -0.6894 -0.0850
   49CHL1   C22 3608   4.345   6.153   7.579 -0.1655 -0.4295 -0.3457
   49CHL1  H22A 3609   4.246   6.106   7.566 -1.2792  0.7310  3.3687
   49CHL1  H22B 3610   4.420   6.071   7.583  3.1088  2.4750  0.5358
   49CHL1   C23 3611   4.359   6.198   7.723 -0.6695  0.0929 -0.4444
   49CHL1  H23A 3612   4.468   6.198   7.744 -0.9248 -0.7735  0.9665
   49CHL1  H23B 3613   4.312   6.296   7.744 -0.0836  0.5848 -1.4007
   49CHL1   C24 3614   4.292   6.099   7.819  0.4613 -0.0045  0.2570
   49CHL1  H24A 3615   4.184   6.103   7.795  0.4815  0.4074  0.2145
   49CHL1  H24B 3616   4.313   5.994   7.791 -1.7516 -0.3211 -0.2625
   49CHL1   C25 3617   4.296   6.127   7.971 -0.3241  0.4771 -0.6993
   49CHL1   H25 3618   4.220   6.058   8.013  1.0292  1.5402  3.7436
   49CHL1   C26 3619   4.432   6.106   8.035 -0.0523 -0.4788  0.5030
   49CHL1  H26A 3620   4.474   6.006   8.012  0.2347  0.1048 -1.6091
   49CHL1  H26B 3621   4.497   6.184   7.990 -0.7209  0.4235  1.0902
   49CHL1  H26C 3622   4.428   6.130   8.143 -1.1671  1.0780  0.1322
   49CHL1   C27 3623   4.243   6.265   8.014 -0.4699 -0.7251  0.2692
   49CHL1  H27A 3624   4.151   6.290   7.957  0.5639  1.8815 -0.3250
   49CHL1  H27B 3625   4.229   6.254   8.124 -3.1359 -0.4391 -0.0148
   49CHL1  H27C 3626   4.320   6.344   7.995 -0.2532 -1.2292 -1.0194
   50CHL1    C3 3627   5.205   0.817   6.911 -0.8366 -0.0951 -0.3987
   50CHL1    H3 3628   5.188   0.925   6.930  0.8366  0.1282 -0.1284
   50CHL1    O3 3629   5.212   0.804   6.768 -0.0534  0.5199 -0.0760
   50CHL1   H3' 3630   5.251   0.716   6.762 -0.1820  0.5471 -1.4480
   50CHL1    C4 3631   5.336   0.779   6.965 -0.3703  0.3122 -0.1917
   50CHL1   H4A 3632   5.361   0.673   6.943 -0.6121  0.6872 -2.3158
   50CHL1   H4B 3633   5.418   0.840   6.921 -0.4452 -1.3529 -2.7194
   50CHL1    C5 3634   5.332   0.799   7.118 -0.8206  0.6556 -0.4394
   50CHL1    C6 3635   5.417   0.886   7.185 -0.6001  0.1123  0.1218
   50CHL1    H6 3636   5.495   0.933   7.124 -1.2706 -1.7567 -2.2446
   50CHL1    C7 3637   5.428   0.904   7.329  0.4763  0.7271 -0.0640
   50CHL1   H7A 3638   5.534   0.905   7.361  0.7608 -4.1661 -0.5079
   50CHL1   H7B 3639   5.373   1.000   7.340 -0.6438 -0.0194  1.0350
   50CHL1    C8 3640   5.343   0.809   7.407  0.0047 -0.2832  0.7685
   50CHL1    H8 3641   5.401   0.715   7.410 -0.8504 -0.8281  0.3775
   50CHL1   C14 3642   5.317   0.861   7.550  0.1078 -0.8760 -0.4292
   50CHL1   H14 3643   5.244   0.944   7.536 -0.8917 -1.2945  2.1096
   50CHL1   C15 3644   5.435   0.907   7.641 -0.3680 -0.3926 -0.4473
   50CHL1  H15A 3645   5.523   0.842   7.618  1.1565  0.6780  2.1435
   50CHL1  H15B 3646   5.457   1.010   7.607  0.5047 -1.0562 -1.9852
   50CHL1   C16 3647   5.392   0.886   7.791  0.0946 -0.2926  0.7264
   50CHL1  H16A 3648   5.466   0.815   7.834  0.5044 -0.2078  0.1597
   50CHL1  H16B 3649   5.385   0.980   7.849 -0.4990 -1.1645  2.0926
   50CHL1   C17 3650   5.247   0.825   7.780 -0.2288 -0.4035 -0.0704
   50CHL1   H17 3651   5.175   0.909   7.770  2.0676  1.3460 -2.6899
   50CHL1   C13 3652   5.245   0.755   7.641  0.0256 -0.2083  0.4017
   50CHL1   C18 3653   5.333   0.623   7.649  0.2977  0.0969 -0.6352
   50CHL1  H18A 3654   5.369   0.585   7.551 -1.8274  2.2201 -2.2886
   50CHL1  H18B 3655   5.428   0.647   7.702 -0.1687  2.4204 -0.7982
   50CHL1  H18C 3656   5.290   0.534   7.701  0.0954  0.1165 -0.7707
   50CHL1   C12 3657   5.103   0.727   7.576  0.3729  0.1863  0.3710
   50CHL1  H12A 3658   5.049   0.654   7.640 -2.2238  0.4885 -1.3769
   50CHL1  H12B 3659   5.046   0.822   7.575 -0.6092 -0.4021 -0.4043
   50CHL1   C11 3660   5.110   0.685   7.428 -0.8198  0.5376 -0.6253
   50CHL1  H11A 3661   5.152   0.583   7.419 -4.2320 -1.0484  0.6023
   50CHL1  H11B 3662   5.011   0.682   7.377 -0.8770 -4.4520 -0.4253
   50CHL1    C9 3663   5.203   0.781   7.345  0.2317  0.4118  0.6368
   50CHL1    H9 3664   5.151   0.879   7.336  0.1141  0.0746 -2.9063
   50CHL1   C10 3665   5.219   0.736   7.199 -0.2404 -0.2898  0.5418
   50CHL1   C19 3666   5.254   0.580   7.192  0.4568 -0.4235 -0.2238
   50CHL1  H19A 3667   5.345   0.558   7.252  0.8294 -0.7278 -0.8796
   50CHL1  H19B 3668   5.170   0.516   7.224 -0.1720  0.8678  0.7252
   50CHL1  H19C 3669   5.263   0.550   7.085 -3.3176 -2.3781 -0.0787
   50CHL1    C1 3670   5.086   0.758   7.118 -0.5124 -0.3487 -0.2905
   50CHL1   H1A 3671   5.013   0.689   7.166 -0.4734  1.0205  1.7903
   50CHL1   H1B 3672   5.058   0.865   7.125  2.2208  0.3576  0.1485
   50CHL1    C2 3673   5.092   0.728   6.969 -0.2556 -0.0007  0.1947
   50CHL1   H2A 3674   4.999   0.757   6.915 -0.1441  3.3047  1.6847
   50CHL1   H2B 3675   5.113   0.620   6.948 -1.3434 -0.2976  0.5857
   50CHL1   C20 3676   5.215   0.755   7.915 -0.3669 -0.1134  0.0878
   50CHL1   H20 3677   5.296   0.684   7.945 -0.7482 -0.7557 -0.3772
   50CHL1   C21 3678   5.088   0.676   7.910 -0.0188 -0.2673  0.0167
   50CHL1  H21A 3679   5.090   0.604   7.995 -0.7645  2.0316  2.0543
   50CHL1  H21B 3680   5.085   0.607   7.823 -0.2080 -0.2677  0.0227
   50CHL1  H21C 3681   4.995   0.737   7.911 -0.4876 -0.9784 -0.0297
   50CHL1   C22 3682   5.207   0.866   8.025 -0.3068  1.1906 -0.1720
   50CHL1  H22A 3683   5.293   0.936   8.024  1.0302 -0.3567  1.8898
   50CHL1  H22B 3684   5.109   0.918   8.015  0.2705  2.0338 -1.7161
   50CHL1   C23 3685   5.213   0.810   8.159 -0.4890 -0.3663 -0.3728
   50CHL1  H23A 3686   5.126   0.746   8.185 -1.3701 -0.2974 -3.0706
   50CHL1  H23B 3687   5.307   0.758   8.186 -2.3561 -2.8558  1.6257
   50CHL1   C24 3688   5.204   0.923   8.270  0.0723  0.2688 -0.0936
   50CHL1  H24A 3689   5.284   0.999   8.258 -0.3038  0.4215 -1.8955
   50CHL1  H24B 3690   5.106   0.972   8.251 -0.1243 -0.2948 -0.5713
   50CHL1   C25 3691   5.196   0.881   8.428 -0.0748 -0.4271 -0.3693
   50CHL1   H25 3692   5.118   0.802   8.423  0.2747 -0.7557 -0.6366
   50CHL1   C26 3693   5.326   0.809   8.478  0.3346 -0.6408  0.8894
   50CHL1  H26A 3694   5.418   0.869   8.467  0.2417 -0.8208 -0.9907
   50CHL1  H26B 3695   5.316   0.779   8.585 -2.0877 -0.2130  0.8299
   50CHL1  H26C 3696   5.336   0.714   8.421  1.4776 -0.1789  0.3162
   50CHL1   C27 3697   5.142   0.998   8.508 -0.1476 -0.3194 -0.4028
   50CHL1  H27A 3698   5.138   0.963   8.613 -0.7656 -0.9013 -0.6150
   50CHL1  H27B 3699   5.192   1.097   8.506 -0.3353 -0.1048  2.6641
   50CHL1  H27C 3700   5.034   1.016   8.488  0.1739  1.0520 -0.9574
   51CHL1    C3 3701   5.703   6.355   6.872 -0.1510  0.1667 -0.1050
   51CHL1    H3 3702   5.798   6.311   6.909 -0.4052 -0.0109  0.3445
   51CHL1    O3 3703   5.703   6.361   6.730 -1.0682 -0.0532 -0.1277
   51CHL1   H3' 3704   5.617   6.339   6.693 -0.7663  0.7618 -1.3569
   51CHL1    C4 3705   5.583   6.276   6.909  0.3147 -0.1300  0.0710
   51CHL1   H4A 3706   5.483   6.298   6.867 -0.0044 -1.0896  0.3139
   51CHL1   H4B 3707   5.600   6.174   6.868  3.0346 -0.3030  1.5168
   51CHL1    C5 3708   5.564   6.283   7.064 -0.3700 -0.4025  0.2107
   51CHL1    C6 3709   5.554   6.167   7.135 -0.2770  0.1346 -0.3580
   51CHL1    H6 3710   5.569   6.069   7.087 -0.5591  0.5348 -1.2812
   51CHL1    C7 3711   5.529   6.150   7.278 -0.2859 -0.1756 -0.4808
   51CHL1   H7A 3712   5.441   6.083   7.290 -1.4020  1.3635  0.1246
   51CHL1   H7B 3713   5.613   6.096   7.326 -1.6369 -2.0880 -0.1893
   51CHL1    C8 3714   5.490   6.285   7.334 -0.6472  0.1212 -0.1322
   51CHL1    H8 3715   5.386   6.308   7.305  0.0371  1.0532 -1.9616
   51CHL1   C14 3716   5.495   6.278   7.491  0.3042  0.5545  0.5178
   51CHL1   H14 3717   5.604   6.259   7.496  0.4607  0.5604 -2.0194
   51CHL1   C15 3718   5.417   6.169   7.567 -0.1849 -0.2939  0.1841
   51CHL1  H15A 3719   5.315   6.169   7.522 -0.9858  2.1078  1.9607
   51CHL1  H15B 3720   5.466   6.070   7.552  0.1370 -0.1387  0.2177
   51CHL1   C16 3721   5.406   6.214   7.715 -0.0730 -0.1227 -0.2522
   51CHL1  H16A 3722   5.302   6.216   7.754 -0.8909 -3.1285 -2.1864
   51CHL1  H16B 3723   5.451   6.144   7.788 -0.6409  0.3344  0.5539
   51CHL1   C17 3724   5.477   6.355   7.714  0.1340 -0.7037 -0.3767
   51CHL1   H17 3725   5.583   6.346   7.744  0.1269  1.0727  0.1908
   51CHL1   C13 3726   5.465   6.410   7.566 -0.0914  0.4308 -0.4357
   51CHL1   C18 3727   5.320   6.452   7.534  0.3120  0.5110  0.3887
   51CHL1  H18A 3728   5.250   6.376   7.575  2.0422 -0.5186  1.4790
   51CHL1  H18B 3729   5.293   6.544   7.591 -0.4896  0.7224 -0.3264
   51CHL1  H18C 3730   5.288   6.472   7.429  1.4106 -0.1745 -0.0889
   51CHL1   C12 3731   5.567   6.510   7.520  0.3487 -0.1298 -0.2585
   51CHL1  H12A 3732   5.543   6.608   7.567  0.3119  0.7904 -2.1302
   51CHL1  H12B 3733   5.668   6.478   7.553 -0.0768 -0.5954  0.6068
   51CHL1   C11 3734   5.556   6.527   7.371  0.1061  0.5886  0.0842
   51CHL1  H11A 3735   5.454   6.561   7.344 -1.0284 -4.0943 -2.0377
   51CHL1  H11B 3736   5.626   6.605   7.334 -0.6441  1.1006 -0.2725
   51CHL1    C9 3737   5.581   6.398   7.284 -0.2584  0.3128  0.1845
   51CHL1    H9 3738   5.687   6.373   7.306  0.0726 -0.7392 -2.4895
   51CHL1   C10 3739   5.573   6.422   7.123 -0.3448  0.2617  0.3001
   51CHL1   C19 3740   5.442   6.503   7.098 -0.2759 -1.1509  0.3278
   51CHL1  H19A 3741   5.453   6.613   7.108 -0.1922 -1.3329  2.2590
   51CHL1  H19B 3742   5.420   6.486   6.990 -0.2194  2.0262 -0.2226
   51CHL1  H19C 3743   5.352   6.469   7.153 -0.3163  0.2029  1.1105
   51CHL1    C1 3744   5.687   6.509   7.069 -0.6886 -0.4411  0.6481
   51CHL1   H1A 3745   5.685   6.619   7.087  0.8167 -0.1471 -0.7992
   51CHL1   H1B 3746   5.782   6.476   7.117 -0.2089  0.1530  0.1130
   51CHL1    C2 3747   5.701   6.500   6.922  0.1188 -1.0693  0.8860
   51CHL1   H2A 3748   5.796   6.544   6.885 -0.7054 -0.8855 -1.0641
   51CHL1   H2B 3749   5.618   6.559   6.878 -0.5231 -2.1081  0.6709
   51CHL1   C20 3750   5.431   6.436   7.841  0.4475 -0.2526 -0.0263
   51CHL1   H20 3751   5.335   6.489   7.822  0.3169 -0.5029 -0.0670
   51CHL1   C21 3752   5.531   6.557   7.857  0.2550  0.5265  0.5196
   51CHL1  H21A 3753   5.501   6.598   7.956  1.8750 -0.8953  1.6192
   51CHL1  H21B 3754   5.516   6.635   7.780 -1.5182 -0.6166 -0.3154
   51CHL1  H21C 3755   5.639   6.530   7.864 -0.0847 -0.4893  2.1306
   51CHL1   C22 3756   5.422   6.347   7.972 -0.5722 -0.7934 -0.2492
   51CHL1  H22A 3757   5.337   6.276   7.965 -0.4262 -1.1086  1.1614
   51CHL1  H22B 3758   5.504   6.273   7.983 -2.0448 -1.9913  3.3826
   51CHL1   C23 3759   5.406   6.422   8.102 -0.1248 -0.0202  0.4506
   51CHL1  H23A 3760   5.504   6.468   8.127  0.4296 -1.3154  0.7326
   51CHL1  H23B 3761   5.328   6.500   8.092  0.0622  0.1426  0.2682
   51CHL1   C24 3762   5.364   6.327   8.222 -0.7188  0.1401  0.0028
   51CHL1  H24A 3763   5.269   6.280   8.189 -0.1990 -1.1883  0.3868
   51CHL1  H24B 3764   5.445   6.253   8.235 -0.1202  0.2567 -2.7733
   51CHL1   C25 3765   5.366   6.408   8.351  0.1087  0.1828 -0.3485
   51CHL1   H25 3766   5.319   6.508   8.342 -1.5471 -0.4236  1.4087
   51CHL1   C26 3767   5.286   6.335   8.469  0.3344  0.0632 -0.1617
   51CHL1  H26A 3768   5.296   6.400   8.558  2.0487  1.1198 -1.1047
   51CHL1  H26B 3769   5.177   6.325   8.446 -0.0995  2.1458  0.8787
   51CHL1  H26C 3770   5.314   6.230   8.493 -0.8615  0.1121  1.4932
   51CHL1   C27 3771   5.507   6.429   8.407  0.2870  0.2596 -0.2057
   51CHL1  H27A 3772   5.562   6.513   8.360  1.4548 -0.1225  0.4514
   51CHL1  H27B 3773   5.512   6.441   8.517 -0.9085 -0.1168 -0.1019
   51CHL1  H27C 3774   5.568   6.338   8.389 -0.5706 -0.4646  0.4923
   52CHL1    C3 3775   0.299   0.904   6.830 -0.8269 -0.6223 -0.2632
   52CHL1    H3 3776   0.188   0.895   6.834 -0.7113 -1.7859  0.8470
   52CHL1    O3 3777   0.332   0.963   6.712  0.6231  0.6897 -0.2166
   52CHL1   H3' 3778   0.337   0.886   6.654  1.2368 -0.1478  0.9139
   52CHL1    C4 3779   0.354   0.985   6.944  0.6175  0.0358  0.0296
   52CHL1   H4A 3780   0.465   0.992   6.936  1.0316  1.8109  5.0710
   52CHL1   H4B 3781   0.311   1.087   6.932 -2.5677 -1.3134 -0.5166
   52CHL1    C5 3782   0.308   0.930   7.079  0.4340  0.1062 -0.6578
   52CHL1    C6 3783   0.240   1.001   7.176  0.2506  0.0557  0.2039
   52CHL1    H6 3784   0.217   1.106   7.156  0.9126  0.2813  0.6122
   52CHL1    C7 3785   0.189   0.943   7.303  0.4262 -0.1755 -0.0466
   52CHL1   H7A 3786   0.196   1.023   7.380  0.0444 -0.7237  0.5619
   52CHL1   H7B 3787   0.080   0.929   7.290  0.4691 -1.8799  1.3763
   52CHL1    C8 3788   0.255   0.812   7.341 -0.1417  0.1499 -0.7708
   52CHL1    H8 3789   0.351   0.846   7.386 -0.9755  1.8700 -0.2503
   52CHL1   C14 3790   0.162   0.748   7.446  0.7076  0.4179  0.2574
   52CHL1   H14 3791   0.077   0.716   7.382  1.2622 -0.6745  0.0517
   52CHL1   C15 3792   0.101   0.822   7.563  0.0254  0.0227  0.0269
   52CHL1  H15A 3793   0.177   0.860   7.634  0.3582  0.9844 -0.8286
   52CHL1  H15B 3794   0.035   0.906   7.533  1.0535  1.3222  1.3299
   52CHL1   C16 3795   0.031   0.714   7.652  0.8914 -0.4735 -0.5899
   52CHL1  H16A 3796   0.020   0.752   7.756 -0.7889 -1.3026 -0.4466
   52CHL1  H16B 3797  -0.076   0.708   7.623  0.4061  0.1320  0.9890
   52CHL1   C17 3798   0.109   0.579   7.619  0.6812  0.2549  0.3276
   52CHL1   H17 3799   0.032   0.517   7.567  1.7431 -2.2556  1.6971
   52CHL1   C13 3800   0.213   0.618   7.505 -0.3416  0.7083  0.0696
   52CHL1   C18 3801   0.350   0.641   7.572 -1.1471 -0.5326 -0.2294
   52CHL1  H18A 3802   0.396   0.544   7.602 -1.3328 -0.6110 -0.1981
   52CHL1  H18B 3803   0.420   0.684   7.497 -0.5668 -0.5997  0.2676
   52CHL1  H18C 3804   0.325   0.695   7.666 -1.5699  0.2921 -0.8133
   52CHL1   C12 3805   0.229   0.520   7.384  0.4155 -0.0776  0.4292
   52CHL1  H12A 3806   0.268   0.420   7.413  2.0406 -0.1905 -1.9978
   52CHL1  H12B 3807   0.133   0.503   7.332 -0.5652 -1.1510  2.5211
   52CHL1   C11 3808   0.318   0.576   7.269  0.0092  0.2103 -0.6148
   52CHL1  H11A 3809   0.420   0.579   7.312 -1.1108  1.6364  2.0940
   52CHL1  H11B 3810   0.307   0.502   7.186  0.6946  2.0277 -2.3587
   52CHL1    C9 3811   0.271   0.718   7.221  0.3337 -0.2864 -0.0273
   52CHL1    H9 3812   0.173   0.700   7.173 -0.8701  0.2254  2.1773
   52CHL1   C10 3813   0.354   0.781   7.100 -0.2956 -0.5555 -0.4069
   52CHL1   C19 3814   0.506   0.774   7.139  0.4804 -0.0584 -0.1996
   52CHL1  H19A 3815   0.560   0.819   7.053 -1.3383  0.2856 -1.1672
   52CHL1  H19B 3816   0.534   0.842   7.223  1.0271 -0.2939 -0.1861
   52CHL1  H19C 3817   0.550   0.675   7.164  0.4842  0.2880  1.2125
   52CHL1    C1 3818   0.326   0.696   6.976 -0.3097  0.4109  0.3360
   52CHL1   H1A 3819   0.386   0.604   6.988  2.3485  1.9887 -0.4707
   52CHL1   H1B 3820   0.220   0.661   6.979 -0.1276 -0.1834 -0.0113
   52CHL1    C2 3821   0.348   0.758   6.833 -0.6288  0.3476  0.0699
   52CHL1   H2A 3822   0.299   0.700   6.752 -0.6776 -1.2734  1.2454
   52CHL1   H2B 3823   0.455   0.757   6.804 -0.7595  1.9285 -0.5626
   52CHL1   C20 3824   0.140   0.492   7.742 -0.1094  0.2218 -0.4165
   52CHL1   H20 3825   0.214   0.546   7.805 -0.4554 -0.6974  0.7831
   52CHL1   C21 3826   0.207   0.354   7.704 -0.8094  0.1783  0.6238
   52CHL1  H21A 3827   0.306   0.370   7.657  0.1172 -2.3355  1.6221
   52CHL1  H21B 3828   0.149   0.287   7.637  2.2970 -0.3118 -1.6781
   52CHL1  H21C 3829   0.238   0.300   7.796 -1.2069 -1.6701 -0.3049
   52CHL1   C22 3830   0.008   0.470   7.828 -0.1460 -0.1590 -0.5780
   52CHL1  H22A 3831  -0.039   0.569   7.849 -1.4453 -0.6600 -1.1058
   52CHL1  H22B 3832  -0.052   0.405   7.761  0.6813 -1.9961  0.4512
   52CHL1   C23 3833   0.038   0.407   7.962 -0.1619 -0.3538  0.8033
   52CHL1  H23A 3834   0.081   0.304   7.959  0.6177 -0.1082  2.6772
   52CHL1  H23B 3835   0.122   0.465   8.007  0.7235 -0.9575 -0.0479
   52CHL1   C24 3836  -0.081   0.398   8.063 -0.2643 -0.0318  0.7867
   52CHL1  H24A 3837  -0.116   0.498   8.096  0.6053 -0.3507  2.7508
   52CHL1  H24B 3838  -0.165   0.350   8.008  0.9394 -1.0528 -0.1823
   52CHL1   C25 3839  -0.056   0.315   8.186  0.4312  0.1450 -0.0881
   52CHL1   H25 3840  -0.024   0.214   8.154  1.1566  0.2533  0.3025
   52CHL1   C26 3841   0.060   0.373   8.274  0.1614  0.5797 -0.0418
   52CHL1  H26A 3842   0.165   0.352   8.244 -0.5429 -1.5216 -1.1270
   52CHL1  H26B 3843   0.052   0.481   8.298  1.0958  0.8299 -0.8586
   52CHL1  H26C 3844   0.054   0.319   8.371 -1.9743  2.9020  1.1712
   52CHL1   C27 3845  -0.182   0.302   8.265 -1.2122  0.3543 -0.0055
   52CHL1  H27A 3846  -0.262   0.259   8.201 -0.0982  1.0939 -1.9481
   52CHL1  H27B 3847  -0.168   0.243   8.358  1.6643  0.4675 -0.3263
   52CHL1  H27C 3848  -0.230   0.400   8.286 -0.0118  0.4117  2.6305
   53CHL1    C3 3849   2.856   3.924   6.977  0.3593  0.6300 -0.8435
   53CHL1    H3 3850   2.881   4.027   7.010 -0.1750  0.6880 -0.6010
   53CHL1    O3 3851   2.845   3.933   6.839 -0.9463 -0.2084 -0.3054
   53CHL1   H3' 3852   2.755   3.957   6.814 -0.8592 -0.4138 -0.8271
   53CHL1    C4 3853   2.953   3.816   7.021 -0.0037  0.1893  0.1014
   53CHL1   H4A 3854   2.922   3.717   6.982 -0.5267 -0.3304  1.7983
   53CHL1   H4B 3855   3.052   3.833   6.974  0.2696 -1.1194  0.1963
   53CHL1    C5 3856   2.956   3.823   7.171  0.1262  0.6409 -0.8550
   53CHL1    C6 3857   3.063   3.866   7.236 -0.5640  0.3941 -0.4148
   53CHL1    H6 3858   3.156   3.887   7.181 -0.1192  2.7410  1.1647
   53CHL1    C7 3859   3.068   3.849   7.386  0.2697 -0.4222 -0.0615
   53CHL1   H7A 3860   3.167   3.818   7.426  1.1892  1.7885 -0.5762
   53CHL1   H7B 3861   3.042   3.945   7.435 -0.4003 -0.0973 -1.0322
   53CHL1    C8 3862   2.961   3.757   7.458 -0.2332  0.5504  0.0978
   53CHL1    H8 3863   2.988   3.652   7.436  2.0533  0.9736  0.7446
   53CHL1   C14 3864   2.944   3.788   7.604  0.0837  0.1065  0.0950
   53CHL1   H14 3865   2.914   3.894   7.618  1.2095  0.6851 -1.7022
   53CHL1   C15 3866   3.070   3.776   7.684  0.3763  0.3324 -0.0484
   53CHL1  H15A 3867   3.131   3.688   7.653  0.6114 -0.6454  3.0342
   53CHL1  H15B 3868   3.131   3.868   7.676 -1.0696  1.3042  0.0584
   53CHL1   C16 3869   3.026   3.747   7.830 -0.4268 -0.4767  0.0369
   53CHL1  H16A 3870   3.056   3.644   7.861  2.3189  0.8539  2.0264
   53CHL1  H16B 3871   3.058   3.819   7.908 -2.8533 -0.2554  0.8533
   53CHL1   C17 3872   2.874   3.749   7.825  0.5126 -0.2692 -0.6898
   53CHL1   H17 3873   2.842   3.855   7.837 -1.2955 -0.8989  0.2596
   53CHL1   C13 3874   2.834   3.713   7.685 -0.1142  0.1704  0.3227
   53CHL1   C18 3875   2.852   3.561   7.682 -0.3920  0.2365  0.1084
   53CHL1  H18A 3876   2.956   3.524   7.694  0.2514  1.7995 -0.6464
   53CHL1  H18B 3877   2.779   3.507   7.746 -0.4984 -0.6905 -0.7792
   53CHL1  H18C 3878   2.835   3.524   7.578 -1.3262 -1.0233  0.6914
   53CHL1   C12 3879   2.706   3.767   7.617  0.3335 -0.1719  0.5304
   53CHL1  H12A 3880   2.615   3.724   7.664 -1.4195  0.4429 -2.2309
   53CHL1  H12B 3881   2.704   3.877   7.630  2.7029 -0.0435  0.0574
   53CHL1   C11 3882   2.700   3.738   7.464  0.4285  0.1824  0.4345
   53CHL1  H11A 3883   2.693   3.627   7.467 -0.5444  0.2695  1.5030
   53CHL1  H11B 3884   2.613   3.777   7.408  0.3297 -1.7301 -0.7828
   53CHL1    C9 3885   2.825   3.797   7.396  0.3621  0.2859  0.3775
   53CHL1    H9 3886   2.812   3.905   7.416  2.0151  0.9618 -1.9561
   53CHL1   C10 3887   2.823   3.776   7.236 -0.0136 -0.6846  0.2318
   53CHL1   C19 3888   2.786   3.626   7.206  0.5275  0.7808  0.0347
   53CHL1  H19A 3889   2.685   3.602   7.244 -0.0786  2.7437 -0.3192
   53CHL1  H19B 3890   2.788   3.596   7.099  1.0906  1.5067 -0.1660
   53CHL1  H19C 3891   2.842   3.548   7.263 -1.1842  1.8692  3.3747
   53CHL1    C1 3892   2.718   3.873   7.183 -0.6472  0.7800 -0.0032
   53CHL1   H1A 3893   2.619   3.827   7.202 -0.4103 -0.2546 -1.2366
   53CHL1   H1B 3894   2.730   3.975   7.227  0.1647  0.3321  0.8269
   53CHL1    C2 3895   2.713   3.893   7.034 -0.3994 -0.2086  0.2379
   53CHL1   H2A 3896   2.643   3.971   6.997 -1.0478  1.1804  4.1799
   53CHL1   H2B 3897   2.689   3.791   6.999 -1.9455 -0.0333  0.7497
   53CHL1   C20 3898   2.814   3.676   7.950 -0.4280 -0.1716  0.2843
   53CHL1   H20 3899   2.856   3.573   7.949 -0.8175 -0.3691  2.2289
   53CHL1   C21 3900   2.659   3.680   7.945 -1.0311 -0.5850  0.4305
   53CHL1  H21A 3901   2.616   3.620   8.028  0.6963 -0.2359  1.6224
   53CHL1  H21B 3902   2.625   3.633   7.850 -0.5767 -1.4449  0.6949
   53CHL1  H21C 3903   2.623   3.785   7.949  0.1449 -0.2164  1.6011
   53CHL1   C22 3904   2.868   3.748   8.083  0.4526  0.0547 -0.7124
   53CHL1  H22A 3905   2.815   3.702   8.169  0.5028  0.2552 -0.5746
   53CHL1  H22B 3906   2.976   3.723   8.090 -0.0267 -2.3676 -1.4863
   53CHL1   C23 3907   2.851   3.901   8.100  0.1447  0.1498  0.6313
   53CHL1  H23A 3908   2.937   3.958   8.056  1.2895 -1.1209  1.1891
   53CHL1  H23B 3909   2.759   3.937   8.050  0.6872  2.2415  1.0719
   53CHL1   C24 3910   2.844   3.944   8.244  0.0257 -0.5392 -0.2674
   53CHL1  H24A 3911   2.831   4.054   8.256 -1.4904 -0.6463 -0.8356
   53CHL1  H24B 3912   2.757   3.900   8.297 -0.1633 -1.4145 -1.2941
   53CHL1   C25 3913   2.965   3.891   8.331 -0.2194 -0.1399 -0.4038
   53CHL1   H25 3914   2.964   3.780   8.336 -0.4122 -0.0979  0.5993
   53CHL1   C26 3915   3.105   3.933   8.284  0.2770 -0.3909  0.4413
   53CHL1  H26A 3916   3.184   3.915   8.360 -0.5550  0.6041  1.5559
   53CHL1  H26B 3917   3.146   3.868   8.203  3.4086  0.9976  0.8476
   53CHL1  H26C 3918   3.089   4.041   8.264  1.6068 -0.2050  0.3252
   53CHL1   C27 3919   2.939   3.928   8.482  0.4815 -0.2219 -0.5267
   53CHL1  H27A 3920   2.831   3.922   8.511  0.8666 -0.8899  0.8383
   53CHL1  H27B 3921   3.003   3.853   8.534 -0.6356 -0.4026  0.6238
   53CHL1  H27C 3922   2.967   4.034   8.502 -0.4447  0.0412 -0.5763
   54CHL1    C3 3923   3.372   5.681   6.901  0.1299  0.2894 -0.7502
   54CHL1    H3 3924   3.459   5.613   6.917  1.2701  2.0344  0.7106
   54CHL1    O3 3925   3.353   5.685   6.764 -0.2741  0.4503 -0.1722
   54CHL1   H3' 3926   3.438   5.708   6.724 -0.0758  1.3507  0.7472
   54CHL1    C4 3927   3.248   5.634   6.976  0.3297 -0.0854  0.1425
   54CHL1   H4A 3928   3.157   5.681   6.932  0.8626 -0.2704 -1.1902
   54CHL1   H4B 3929   3.246   5.525   6.953 -2.2688  0.2347 -1.3741
   54CHL1    C5 3930   3.262   5.639   7.128 -0.0373 -0.3679 -0.2785
   54CHL1    C6 3931   3.253   5.527   7.204 -0.3512  0.3734  0.0907
   54CHL1    H6 3932   3.229   5.433   7.151  1.0541  1.1905 -2.0868
   54CHL1    C7 3933   3.279   5.526   7.347 -0.5438 -0.0319 -0.6172
   54CHL1   H7A 3934   3.208   5.463   7.404  2.2718 -0.6114  2.3587
   54CHL1   H7B 3935   3.377   5.478   7.366 -1.4856 -0.6727  3.0360
   54CHL1    C8 3936   3.284   5.662   7.416 -0.1694  0.6100  0.4078
   54CHL1    H8 3937   3.177   5.693   7.423 -0.8787 -1.7188  0.4714
   54CHL1   C14 3938   3.335   5.660   7.554 -0.1801 -0.0686  0.6858
   54CHL1   H14 3939   3.440   5.623   7.553 -0.3742 -0.6908  2.4533
   54CHL1   C15 3940   3.285   5.567   7.668 -0.2597  0.0897  0.5803
   54CHL1  H15A 3941   3.175   5.576   7.673 -0.1811  1.6866 -0.2719
   54CHL1  H15B 3942   3.298   5.459   7.645 -1.5387  0.3459 -1.4699
   54CHL1   C16 3943   3.359   5.612   7.797 -0.2429  0.2292 -0.3577
   54CHL1  H16A 3944   3.298   5.596   7.889  0.3699 -0.5977 -0.0994
   54CHL1  H16B 3945   3.453   5.557   7.816 -0.6030  0.7982  3.6027
   54CHL1   C17 3946   3.399   5.761   7.772  0.5299 -1.0999  0.4127
   54CHL1   H17 3947   3.509   5.765   7.756  0.6958  0.6710  1.7717
   54CHL1   C13 3948   3.342   5.793   7.623  0.4053 -0.5213 -0.5791
   54CHL1   C18 3949   3.203   5.858   7.639 -0.1129 -0.1896  0.2896
   54CHL1  H18A 3950   3.182   5.905   7.540 -0.6531 -2.7397 -0.8399
   54CHL1  H18B 3951   3.124   5.782   7.657  1.0107 -1.5697 -0.5118
   54CHL1  H18C 3952   3.206   5.947   7.706  0.3269  1.2727 -1.6333
   54CHL1   C12 3953   3.431   5.884   7.543 -0.1709  0.6625 -0.4579
   54CHL1  H12A 3954   3.434   5.988   7.583  0.1852  0.2736  0.5430
   54CHL1  H12B 3955   3.536   5.847   7.542 -1.0477 -1.8797  0.1378
   54CHL1   C11 3956   3.390   5.898   7.396  0.3969 -0.2635  0.0911
   54CHL1  H11A 3957   3.300   5.961   7.386  0.3999 -0.3038 -0.2169
   54CHL1  H11B 3958   3.475   5.942   7.338  0.3785 -1.4877 -0.9155
   54CHL1    C9 3959   3.363   5.760   7.332 -0.0015  0.6674 -0.4066
   54CHL1    H9 3960   3.463   5.715   7.319  1.2500  3.5538 -1.0434
   54CHL1   C10 3961   3.312   5.778   7.181 -0.5255 -0.3626 -0.1549
   54CHL1   C19 3962   3.197   5.874   7.173 -0.1990  0.1356 -0.4647
   54CHL1  H19A 3963   3.214   5.981   7.199  0.4203 -0.0170 -0.2490
   54CHL1  H19B 3964   3.152   5.881   7.071 -2.1420  2.2021  0.4776
   54CHL1  H19C 3965   3.127   5.852   7.256  0.3098 -0.3891 -0.1776
   54CHL1    C1 3966   3.427   5.838   7.094 -0.6182 -0.0434  0.5181
   54CHL1   H1A 3967   3.432   5.948   7.108  0.3160 -0.1317  0.9574
   54CHL1   H1B 3968   3.523   5.795   7.131 -1.6798 -1.2192  1.9508
   54CHL1    C2 3969   3.412   5.821   6.948  0.4932  0.0669  0.3426
   54CHL1   H2A 3970   3.505   5.855   6.896  1.1017  0.8853  1.9378
   54CHL1   H2B 3971   3.333   5.890   6.911  0.4453  0.1796  0.6542
   54CHL1   C20 3972   3.383   5.861   7.893  0.8338 -0.2785 -0.0159
   54CHL1   H20 3973   3.390   5.966   7.859  0.1753  0.6793  2.6684
   54CHL1   C21 3974   3.507   5.840   7.982 -0.3413 -0.2224 -0.9893
   54CHL1  H21A 3975   3.501   5.736   8.020  0.8751  1.0837  2.9230
   54CHL1  H21B 3976   3.511   5.912   8.066 -2.7952 -0.3081 -0.7462
   54CHL1  H21C 3977   3.600   5.850   7.922  0.0876  0.3809 -0.2289
   54CHL1   C22 3978   3.255   5.838   7.970 -0.1915  0.2712  0.1541
   54CHL1  H22A 3979   3.180   5.771   7.923 -0.8314 -0.0885  1.6499
   54CHL1  H22B 3980   3.281   5.772   8.056  2.2702  0.6500 -0.2596
   54CHL1   C23 3981   3.177   5.958   8.018 -0.2748  0.3380 -0.1032
   54CHL1  H23A 3982   3.142   6.020   7.932  0.6294  1.4617  0.3238
   54CHL1  H23B 3983   3.098   5.915   8.082  1.2753 -2.3624  0.0348
   54CHL1   C24 3984   3.259   6.060   8.097  0.0361  0.1029  0.5136
   54CHL1  H24A 3985   3.344   6.098   8.036 -0.1232 -0.1309  0.1433
   54CHL1  H24B 3986   3.193   6.149   8.104  1.0597  0.9949 -0.9016
   54CHL1   C25 3987   3.296   6.005   8.232 -0.2754 -0.4720 -0.4741
   54CHL1   H25 3988   3.343   5.905   8.235 -0.5535 -0.5688  0.5978
   54CHL1   C26 3989   3.412   6.106   8.281 -0.1594  0.5606  0.4447
   54CHL1  H26A 3990   3.372   6.209   8.286  3.0050  1.8541  0.5005
   54CHL1  H26B 3991   3.448   6.078   8.382 -0.8850  1.6776  1.0198
   54CHL1  H26C 3992   3.500   6.100   8.213  0.4362 -1.0120  1.3216
   54CHL1   C27 3993   3.180   6.001   8.335  0.0296  0.4552  0.6940
   54CHL1  H27A 3994   3.212   5.998   8.441  1.0774 -0.4341  0.3653
   54CHL1  H27B 3995   3.115   6.090   8.327  2.5621  2.2106 -1.5598
   54CHL1  H27C 3996   3.116   5.913   8.314 -0.3545  1.0900 -0.8608
   55CHL1    C3 3997   3.310   0.515   6.875 -0.2251 -1.1551 -0.7299
   55CHL1    H3 3998   3.383   0.598   6.878 -0.6719 -0.7668 -0.4830
   55CHL1    O3 3999   3.305   0.462   6.742 -0.2619  0.3966 -0.5180
   55CHL1   H3' 4000   3.223   0.412   6.742 -0.5618  0.8718  0.4537
   55CHL1    C4 4001   3.378   0.414   6.970 -0.2841 -0.4098  0.3596
   55CHL1   H4A 4002   3.325   0.317   6.954 -1.8435  0.7901 -1.9501
   55CHL1   H4B 4003   3.479   0.397   6.927 -0.8263 -0.8131 -0.7599
   55CHL1    C5 4004   3.373   0.453   7.115 -0.2056  0.1302 -0.2559
   55CHL1    C6 4005   3.487   0.463   7.182  0.5824  0.1785 -1.0079
   55CHL1    H6 4006   3.583   0.444   7.133  1.7367  1.1327  0.8700
   55CHL1    C7 4007   3.494   0.498   7.329  0.3062 -0.3362 -0.1195
   55CHL1   H7A 4008   3.556   0.423   7.384  1.6933  1.4959  0.8522
   55CHL1   H7B 4009   3.542   0.597   7.342  0.6923 -0.3947 -1.0663
   55CHL1    C8 4010   3.358   0.495   7.405 -0.3360  0.3989 -0.0886
   55CHL1    H8 4011   3.326   0.390   7.423  0.1805  0.2805  0.1584
   55CHL1   C14 4012   3.373   0.564   7.536 -0.3089 -0.6921 -0.2935
   55CHL1   H14 4013   3.408   0.669   7.521  1.6981 -1.2042  0.5693
   55CHL1   C15 4014   3.481   0.515   7.635 -0.0128 -0.4010 -0.2952
   55CHL1  H15A 4015   3.484   0.405   7.649 -0.2351 -0.2078  1.3907
   55CHL1  H15B 4016   3.586   0.546   7.617  0.4158 -0.1652  2.3678
   55CHL1   C16 4017   3.436   0.586   7.771  0.3448  0.1261 -0.2669
   55CHL1  H16A 4018   3.443   0.504   7.845 -0.3087 -0.1489 -0.5040
   55CHL1  H16B 4019   3.503   0.669   7.801  0.0228  0.2271  0.1773
   55CHL1   C17 4020   3.295   0.656   7.741  0.2933 -0.1647 -0.1963
   55CHL1   H17 4021   3.312   0.757   7.699 -0.7087 -0.3118 -0.9849
   55CHL1   C13 4022   3.244   0.583   7.618 -0.2674 -1.0293  0.0173
   55CHL1   C18 4023   3.183   0.443   7.650  0.5896 -0.2180  0.4491
   55CHL1  H18A 4024   3.082   0.444   7.696 -1.3689  1.8367 -3.6769
   55CHL1  H18B 4025   3.185   0.390   7.553  1.2919 -1.2189  1.0070
   55CHL1  H18C 4026   3.252   0.383   7.713  1.7653 -0.1840 -0.7855
   55CHL1   C12 4027   3.153   0.667   7.529  0.1551  0.6806  0.5669
   55CHL1  H12A 4028   3.054   0.689   7.575 -0.4879  0.4735 -0.6835
   55CHL1  H12B 4029   3.198   0.766   7.504  1.5603  0.1308  0.8755
   55CHL1   C11 4030   3.122   0.594   7.392 -0.1855 -0.6161 -0.5348
   55CHL1  H11A 4031   3.073   0.497   7.415 -2.2574  0.4977 -0.1278
   55CHL1  H11B 4032   3.057   0.650   7.321  0.7614 -1.0119 -1.7256
   55CHL1    C9 4033   3.252   0.571   7.315  0.1438 -0.2026 -0.2549
   55CHL1    H9 4034   3.299   0.671   7.304  0.9146 -0.2687  2.2435
   55CHL1   C10 4035   3.237   0.512   7.169 -0.7758  1.4075 -0.4114
   55CHL1   C19 4036   3.138   0.392   7.177 -0.1740 -0.6133 -0.8897
   55CHL1  H19A 4037   3.038   0.435   7.200 -0.0133 -0.0294 -1.2567
   55CHL1  H19B 4038   3.137   0.338   7.080  0.2300  1.7678 -2.2606
   55CHL1  H19C 4039   3.177   0.322   7.254  0.0832 -0.5371 -0.9484
   55CHL1    C1 4040   3.180   0.623   7.079  0.3281  0.0294 -0.3030
   55CHL1   H1A 4041   3.074   0.646   7.102  1.1371  4.0564 -0.2073
   55CHL1   H1B 4042   3.236   0.719   7.086 -1.3082  0.8984  1.1875
   55CHL1    C2 4043   3.177   0.573   6.934 -0.2784 -0.2285 -0.1302
   55CHL1   H2A 4044   3.141   0.647   6.859  1.1602  0.6480  0.0110
   55CHL1   H2B 4045   3.096   0.497   6.938  0.0846 -0.5835  0.6224
   55CHL1   C20 4046   3.191   0.671   7.854 -0.1305  0.2151 -0.2718
   55CHL1   H20 4047   3.116   0.591   7.842  0.8585 -0.7518 -0.0694
   55CHL1   C21 4048   3.113   0.804   7.843 -0.3065 -0.6721  0.2126
   55CHL1  H21A 4049   3.089   0.843   7.742 -2.0169  0.6605  1.1063
   55CHL1  H21B 4050   3.178   0.882   7.889  0.8967 -1.8251  0.5087
   55CHL1  H21C 4051   3.021   0.810   7.905  1.1964  2.7340  2.2230
   55CHL1   C22 4052   3.263   0.656   7.984 -0.4208  0.4558 -0.4739
   55CHL1  H22A 4053   3.333   0.570   7.988 -1.3601 -0.3100 -0.3319
   55CHL1  H22B 4054   3.319   0.752   7.995  0.1253  0.0501  0.3251
   55CHL1   C23 4055   3.176   0.625   8.098  0.6771 -0.1386  0.2769
   55CHL1  H23A 4056   3.087   0.691   8.092 -0.0330 -1.0240  0.9136
   55CHL1  H23B 4057   3.137   0.521   8.094  0.6989 -0.0762 -2.6055
   55CHL1   C24 4058   3.251   0.653   8.232 -0.3915  0.1477 -0.0991
   55CHL1  H24A 4059   3.352   0.606   8.230 -0.7334 -0.6259  0.6051
   55CHL1  H24B 4060   3.276   0.760   8.251 -0.5812 -0.0782  1.5320
   55CHL1   C25 4061   3.179   0.608   8.367 -0.0618 -0.0713 -0.0679
   55CHL1   H25 4062   3.089   0.670   8.384  1.1310  1.9115 -0.8929
   55CHL1   C26 4063   3.131   0.460   8.361 -0.4828 -0.6726  0.4185
   55CHL1  H26A 4064   3.226   0.404   8.356  0.1530  0.4715 -0.7939
   55CHL1  H26B 4065   3.080   0.427   8.454 -2.1203  0.2670 -0.1055
   55CHL1  H26C 4066   3.054   0.450   8.281  1.6630  0.3243 -1.8054
   55CHL1   C27 4067   3.266   0.631   8.493 -0.2539  0.3621 -0.2063
   55CHL1  H27A 4068   3.360   0.572   8.488  0.5986  1.6058  0.7333
   55CHL1  H27B 4069   3.292   0.739   8.493  1.6539 -0.0695 -1.4800
   55CHL1  H27C 4070   3.207   0.608   8.585 -0.7440  1.0421 -0.3492
   56CHL1    C3 4071   2.417   5.244   6.893  0.2922 -0.3089 -0.0024
   56CHL1    H3 4072   2.491   5.326   6.879 -0.5132  0.3496 -0.4870
   56CHL1    O3 4073   2.397   5.195   6.762 -0.4650  0.0520 -0.1016
   56CHL1   H3' 4074   2.484   5.183   6.723  0.1431  0.4392  1.1093
   56CHL1    C4 4075   2.489   5.141   6.980 -0.5386 -0.1932 -0.0480
   56CHL1   H4A 4076   2.439   5.043   6.966  0.4673 -0.2943 -3.1355
   56CHL1   H4B 4077   2.589   5.126   6.936 -0.7538 -1.2997 -0.1595
   56CHL1    C5 4078   2.498   5.170   7.127 -0.1659 -0.0615  0.5054
   56CHL1    C6 4079   2.608   5.146   7.198  0.0970 -0.2935  0.0352
   56CHL1    H6 4080   2.700   5.108   7.150  1.6119 -0.3470  2.8569
   56CHL1    C7 4081   2.614   5.166   7.351 -0.1675  0.0139  0.0338
   56CHL1   H7A 4082   2.651   5.086   7.419 -1.6651 -0.4213  0.3471
   56CHL1   H7B 4083   2.679   5.255   7.366  0.9417 -0.9418  1.0272
   56CHL1    C8 4084   2.470   5.202   7.415 -0.4196  0.0086  0.4701
   56CHL1    H8 4085   2.424   5.102   7.429 -0.6702 -0.3121 -2.2940
   56CHL1   C14 4086   2.497   5.278   7.546 -0.5855  0.7043 -0.7554
   56CHL1   H14 4087   2.549   5.372   7.516 -2.0734  1.7159 -0.2470
   56CHL1   C15 4088   2.603   5.216   7.653  0.3321  0.0139 -0.0145
   56CHL1  H15A 4089   2.585   5.107   7.645 -1.1456  0.1170  1.7105
   56CHL1  H15B 4090   2.703   5.229   7.607  0.9072 -4.0057 -0.1306
   56CHL1   C16 4091   2.559   5.275   7.787  1.0309  0.7804  0.4295
   56CHL1  H16A 4092   2.524   5.193   7.853  0.9010  0.0183 -0.5933
   56CHL1  H16B 4093   2.643   5.316   7.849 -0.3618  1.1398  2.1215
   56CHL1   C17 4094   2.440   5.379   7.761 -0.6423 -0.2319  0.4346
   56CHL1   H17 4095   2.488   5.477   7.742  0.3335 -0.6421  0.7073
   56CHL1   C13 4096   2.377   5.320   7.629 -0.5036  0.4257  0.1457
   56CHL1   C18 4097   2.299   5.192   7.668  0.2482 -0.0746  0.3633
   56CHL1  H18A 4098   2.204   5.216   7.721  0.5556  0.7684  0.5451
   56CHL1  H18B 4099   2.278   5.129   7.578 -2.1582  2.6967 -1.1165
   56CHL1  H18C 4100   2.356   5.129   7.739  1.8232 -1.6239 -2.2044
   56CHL1   C12 4101   2.300   5.414   7.537  0.9345 -0.8172 -0.2801
   56CHL1  H12A 4102   2.202   5.434   7.586  0.4465 -1.1714 -1.0933
   56CHL1  H12B 4103   2.358   5.507   7.521 -0.6502 -0.0590 -1.8399
   56CHL1   C11 4104   2.270   5.352   7.404 -0.0472  0.2171  0.2102
   56CHL1  H11A 4105   2.191   5.275   7.417  1.1963 -1.3217 -1.2258
   56CHL1  H11B 4106   2.234   5.428   7.331  1.0546 -1.4969 -2.1758
   56CHL1    C9 4107   2.392   5.294   7.326  0.3556 -0.1391  0.1595
   56CHL1    H9 4108   2.464   5.378   7.314  0.3099  0.1986  2.1549
   56CHL1   C10 4109   2.365   5.234   7.189  0.1102 -0.3085  0.3136
   56CHL1   C19 4110   2.262   5.117   7.208  0.5715  0.5281  0.2712
   56CHL1  H19A 4111   2.242   5.051   7.120 -0.2371  0.4078  0.5369
   56CHL1  H19B 4112   2.299   5.048   7.287 -1.5135 -1.2513 -0.2378
   56CHL1  H19C 4113   2.164   5.157   7.243 -0.1459  0.4541 -1.5505
   56CHL1    C1 4114   2.303   5.339   7.093  0.2752  0.1102  0.2177
   56CHL1   H1A 4115   2.205   5.378   7.131  0.8755  2.1988 -0.2865
   56CHL1   H1B 4116   2.361   5.434   7.090 -3.4408  2.6926  3.7456
   56CHL1    C2 4117   2.283   5.292   6.952  0.8726 -1.0123  0.2653
   56CHL1   H2A 4118   2.239   5.358   6.874  2.4816  1.3601  1.3346
   56CHL1   H2B 4119   2.205   5.212   6.954  1.6201 -1.7180  2.0139
   56CHL1   C20 4120   2.359   5.405   7.884 -0.2043  0.4679  0.0904
   56CHL1   H20 4121   2.308   5.309   7.907 -0.3971 -0.6013 -4.4310
   56CHL1   C21 4122   2.251   5.516   7.847 -0.0272  0.0907 -0.7806
   56CHL1  H21A 4123   2.172   5.484   7.775 -0.7240 -1.5064  0.6431
   56CHL1  H21B 4124   2.301   5.608   7.811  1.6581  0.6129  2.6707
   56CHL1  H21C 4125   2.190   5.549   7.934  0.8783 -1.1132  0.3429
   56CHL1   C22 4126   2.445   5.440   8.001 -0.5181 -0.0586 -0.2946
   56CHL1  H22A 4127   2.528   5.371   8.028 -1.2161 -0.4601  0.8579
   56CHL1  H22B 4128   2.504   5.530   7.973  0.0540 -0.1742  0.5384
   56CHL1   C23 4129   2.385   5.458   8.143  0.4272 -0.0670  0.7335
   56CHL1  H23A 4130   2.471   5.499   8.201  0.2909  1.0841  0.1504
   56CHL1  H23B 4131   2.306   5.536   8.136  1.6761  1.3617  2.0508
   56CHL1   C24 4132   2.308   5.332   8.193  0.5895 -0.7087  0.1033
   56CHL1  H24A 4133   2.229   5.302   8.120  0.3863 -0.2827  0.1444
   56CHL1  H24B 4134   2.378   5.246   8.199  3.9304  1.8982 -0.2718
   56CHL1   C25 4135   2.249   5.339   8.335 -0.4322  0.6064 -0.7366
   56CHL1   H25 4136   2.224   5.236   8.369  0.1441  0.8388  0.4328
   56CHL1   C26 4137   2.344   5.391   8.447 -0.3564  0.1452  0.1568
   56CHL1  H26A 4138   2.431   5.322   8.451 -0.7421 -0.2539  4.2369
   56CHL1  H26B 4139   2.313   5.392   8.553  2.0076 -1.7617  0.9271
   56CHL1  H26C 4140   2.376   5.492   8.414 -0.2340 -0.5125 -1.8197
   56CHL1   C27 4141   2.126   5.425   8.334  0.5884  0.6328 -0.5040
   56CHL1  H27A 4142   2.158   5.531   8.328 -1.8621  1.3937 -0.6413
   56CHL1  H27B 4143   2.068   5.408   8.241 -0.0111  0.0952 -0.0335
   56CHL1  H27C 4144   2.068   5.408   8.426 -0.8487  0.7680 -1.3652
   57SAPC     N 4145   1.333   1.914  10.962  0.4591  0.3558 -0.4021
   57SAPC   C12 4146   1.234   1.959  10.857  0.1139 -0.0983  0.0298
   57SAPC  H12A 4147   1.153   2.009  10.908 -0.5309  0.4125 -1.4678
   57SAPC  H12B 4148   1.190   1.871  10.812 -4.4392  2.9525 -1.9244
   57SAPC   C13 4149   1.448   1.853  10.888 -0.1529 -0.4054 -0.0459
   57SAPC  H13A 4150   1.500   1.936  10.842  2.0210 -1.7475 -0.0920
   57SAPC  H13B 4151   1.507   1.799  10.960 -0.1582  0.7639  0.8470
   57SAPC  H13C 4152   1.408   1.781  10.818  0.9368 -1.8957  0.8408
   57SAPC   C14 4153   1.382   2.032  11.042  0.3468 -0.0284 -0.2460
   57SAPC  H14A 4154   1.317   2.072  11.118  1.3664 -1.4791  1.4250
   57SAPC  H14B 4155   1.477   2.015  11.090 -0.3411  0.7397  1.3960
   57SAPC  H14C 4156   1.403   2.120  10.983 -1.4889 -0.7649 -2.0689
   57SAPC   C15 4157   1.277   1.805  11.051 -0.7627 -0.1295 -0.3587
   57SAPC  H15A 4158   1.251   1.713  11.000  0.9319 -1.3806  0.9638
   57SAPC  H15B 4159   1.349   1.771  11.125 -0.5283 -0.0397 -0.5419
   57SAPC  H15C 4160   1.196   1.851  11.105 -0.4138 -2.0214  1.8199
   57SAPC   C11 4161   1.282   2.046  10.742  0.1086 -0.6800  0.1777
   57SAPC  H11A 4162   1.198   2.042  10.670  0.8236  1.7177 -0.8270
   57SAPC  H11B 4163   1.359   1.988  10.688  1.2526 -1.9751  3.0799
   57SAPC     P 4164   1.235   2.304  10.775 -0.4225  0.0052  0.2626
   57SAPC   O13 4165   1.095   2.262  10.802  0.6746  0.0495  0.3596
   57SAPC   O14 4166   1.302   2.400  10.862  0.6441  0.0179 -0.3083
   57SAPC   O12 4167   1.327   2.178  10.773  0.0391 -0.0893  0.0163
   57SAPC   O11 4168   1.238   2.358  10.627  0.2234 -0.0485  0.2052
   57SAPC    C1 4169   1.186   2.291  10.516  0.0683  0.1057  0.5457
   57SAPC    HA 4170   1.225   2.187  10.507 -0.4284  0.0044 -0.6005
   57SAPC    HB 4171   1.078   2.272  10.530  0.4863 -0.1145  3.7666
   57SAPC    C2 4172   1.214   2.376  10.386 -0.0149 -1.3139 -0.3786
   57SAPC    HS 4173   1.154   2.328  10.305 -0.1139 -1.6196 -0.1223
   57SAPC   O21 4174   1.361   2.376  10.369 -0.4555 -0.5108 -0.2808
   57SAPC   C21 4175   1.391   2.355  10.242 -0.2114 -0.7429  0.8800
   57SAPC   O22 4176   1.312   2.359  10.147 -0.2778 -0.2655 -0.3340
   57SAPC   C22 4177   1.536   2.347  10.222  0.5248  0.9924 -0.1113
   57SAPC   H2R 4178   1.587   2.445  10.213 -0.1853  1.5862  2.1796
   57SAPC   H2S 4179   1.582   2.292  10.307 -1.3932 -1.3993 -0.5587
   57SAPC    C3 4180   1.164   2.525  10.393 -0.3545 -0.0411  0.1925
   57SAPC    HX 4181   1.233   2.590  10.451 -2.3100  0.8445  1.5835
   57SAPC    HY 4182   1.076   2.521  10.461  1.5427  0.1507  2.7328
   57SAPC   O31 4183   1.130   2.583  10.263 -0.6708 -0.2133 -0.1023
   57SAPC   C31 4184   1.014   2.569  10.205 -0.1736  0.5477 -0.1491
   57SAPC   O32 4185   0.933   2.487  10.244 -0.1153 -0.1037 -0.2273
   57SAPC   C32 4186   1.006   2.651  10.076 -0.1089 -0.9212  0.2390
   57SAPC   H2X 4187   1.082   2.628   9.998  0.7828 -0.0539  0.8378
   57SAPC   H2Y 4188   1.031   2.757  10.097  1.0581 -0.8359 -1.4660
   57SAPC   C23 4189   1.561   2.267  10.091 -0.2085 -0.2657 -0.5186
   57SAPC   H3R 4190   1.490   2.288  10.008  1.0156 -0.0899 -1.5305
   57SAPC   H3S 4191   1.553   2.158  10.108 -2.2714 -0.6470 -3.3498
   57SAPC   C24 4192   1.707   2.296  10.040  0.2490  0.0220 -0.0975
   57SAPC   H4R 4193   1.707   2.401  10.004 -1.8547  0.4484  1.0645
   57SAPC   H4S 4194   1.722   2.222   9.958 -1.1958  1.1281 -1.3680
   57SAPC   C25 4195   1.808   2.278  10.148  0.6130 -0.3581  0.1693
   57SAPC   H5R 4196   1.844   2.371  10.194 -0.8292 -1.2026  3.1257
   57SAPC   C26 4197   1.861   2.156  10.182 -0.4478 -0.8477  0.5262
   57SAPC   H6R 4198   1.949   2.158  10.248  1.1754 -1.3150 -1.6040
   57SAPC   C27 4199   1.824   2.022  10.122 -0.8071  0.1914 -0.4445
   57SAPC   H7R 4200   1.906   1.992  10.053 -1.4573 -1.1483 -0.6526
   57SAPC   H7S 4201   1.738   2.024  10.052 -1.8115 -2.4321  0.6383
   57SAPC   C28 4202   1.797   1.922  10.238  0.3742  0.0098 -0.4166
   57SAPC   H8R 4203   1.712   1.945  10.304  0.9328 -1.2358  0.7504
   57SAPC   C29 4204   1.851   1.799  10.243 -0.3213 -0.0933 -0.2234
   57SAPC   H9R 4205   1.805   1.733  10.318 -0.1833 -0.7646 -0.7204
   57SAPC  C210 4206   1.950   1.734  10.143  0.6996  0.2462  0.5087
   57SAPC  H10R 4207   2.044   1.709  10.197  1.0699  2.9270  1.1719
   57SAPC  H10S 4208   1.983   1.798  10.058  0.2202  1.1679  1.0082
   57SAPC  C211 4209   1.880   1.611  10.092 -0.5264 -0.5414  0.1943
   57SAPC  H11R 4210   1.887   1.527  10.163 -1.3103 -0.4478  0.3871
   57SAPC  C212 4211   1.815   1.595   9.975  0.4385 -0.0521 -0.7002
   57SAPC  H12R 4212   1.763   1.500   9.953 -2.0632  1.3746 -1.0784
   57SAPC  C213 4213   1.796   1.703   9.877 -0.3346  0.4226  0.7253
   57SAPC  H13R 4214   1.804   1.805   9.918  0.6528 -0.3524  2.5108
   57SAPC  H13S 4215   1.697   1.701   9.825  0.3234  1.3258 -0.5868
   57SAPC  C214 4216   1.898   1.702   9.765  0.1197 -0.0550 -0.1116
   57SAPC  H14R 4217   1.996   1.663   9.797  0.4523  3.0503  2.9686
   57SAPC  C215 4218   1.887   1.758   9.646  0.2812  0.0697  0.4165
   57SAPC  H15R 4219   1.963   1.743   9.568 -0.1218 -0.4802  0.1232
   57SAPC  C216 4220   1.765   1.838   9.609  0.2758 -0.3926 -0.0441
   57SAPC  H16R 4221   1.791   1.945   9.602  1.5766 -0.7693 -1.1304
   57SAPC  H16S 4222   1.677   1.836   9.677 -0.2754 -0.0776 -0.7534
   57SAPC  C217 4223   1.711   1.788   9.475 -0.0801  0.0293  0.2312
   57SAPC  H17R 4224   1.705   1.679   9.458 -1.0953  0.1718 -0.3873
   57SAPC  H17S 4225   1.775   1.826   9.393  0.2172 -0.5554  0.1925
   57SAPC  C218 4226   1.569   1.843   9.455  0.0883  0.2145 -0.3900
   57SAPC  H18R 4227   1.550   1.860   9.347  1.2762  2.7621 -0.2356
   57SAPC  H18S 4228   1.566   1.946   9.496 -0.9334 -0.5363  1.5103
   57SAPC  C219 4229   1.461   1.758   9.530  0.2668  0.3810  0.0277
   57SAPC  H19R 4230   1.461   1.790   9.637  0.8164 -1.3081  0.5405
   57SAPC  H19S 4231   1.490   1.651   9.538 -1.4049  0.0730  2.8879
   57SAPC  C220 4232   1.318   1.765   9.474  0.4252 -0.4429 -0.3545
   57SAPC  H20R 4233   1.241   1.715   9.537  0.4922  2.1385  1.8683
   57SAPC  H20S 4234   1.319   1.716   9.374 -0.7509  0.0876 -0.6269
   57SAPC  H20T 4235   1.290   1.871   9.458 -0.3187 -0.2433  2.0315
   57SAPC   C33 4236   0.865   2.631  10.016 -0.4735  0.1672  0.0814
   57SAPC   H3X 4237   0.785   2.670  10.081 -1.4924  0.8311 -1.5475
   57SAPC   H3Y 4238   0.861   2.521   9.999  1.4059  0.2162 -0.9005
   57SAPC   C34 4239   0.848   2.700   9.881  0.4081 -0.6238  0.6901
   57SAPC   H4X 4240   0.916   2.646   9.813  0.4859 -0.3869  0.5799
   57SAPC   H4Y 4241   0.886   2.804   9.879 -4.0494  1.1296 -0.3793
   57SAPC   C35 4242   0.708   2.702   9.820  0.0556 -0.3238  0.9036
   57SAPC   H5X 4243   0.639   2.749   9.893 -3.1510 -1.9507 -0.9769
   57SAPC   H5Y 4244   0.669   2.599   9.812 -0.1533 -0.2426  0.8538
   57SAPC   C36 4245   0.702   2.766   9.687  0.3311 -0.0514 -0.5778
   57SAPC   H6X 4246   0.716   2.876   9.679 -0.9336  0.1585  0.0485
   57SAPC   H6Y 4247   0.595   2.751   9.663  0.4871 -0.5844 -0.9697
   57SAPC   C37 4248   0.784   2.693   9.577  0.0669 -0.5484 -0.1446
   57SAPC   H7X 4249   0.780   2.582   9.586  2.0068 -0.5945  0.3966
   57SAPC   H7Y 4250   0.892   2.711   9.598 -0.8749  2.6954  2.3492
   57SAPC   C38 4251   0.727   2.714   9.440  0.3453 -0.3811  0.3214
   57SAPC   H8X 4252   0.716   2.824   9.427  1.2568 -0.4068 -0.7430
   57SAPC   H8Y 4253   0.628   2.664   9.442  0.6189 -0.9506 -0.1061
   57SAPC   C39 4254   0.815   2.669   9.325  0.0346  0.4647  0.5636
   57SAPC   H9X 4255   0.828   2.559   9.334 -0.1897  0.4105  0.2487
   57SAPC   H9Y 4256   0.913   2.719   9.315  0.3923 -0.0786  1.3200
   57SAPC  C310 4257   0.731   2.676   9.195 -0.8157  0.1926 -0.8081
   57SAPC  H10X 4258   0.690   2.779   9.183  0.7239  0.7627 -1.2271
   57SAPC  H10Y 4259   0.647   2.604   9.199 -0.3949 -0.2140  1.2055
   57SAPC  C311 4260   0.814   2.648   9.071  0.0124 -0.4211 -0.0487
   57SAPC  H11X 4261   0.869   2.554   9.092 -1.1018 -0.9195  0.6673
   57SAPC  H11Y 4262   0.894   2.724   9.062 -0.1278 -0.0395  1.7636
   57SAPC  C312 4263   0.740   2.656   8.940  0.2909  0.1697  0.2424
   57SAPC  H12X 4264   0.684   2.752   8.932  1.8874  1.0256 -0.8220
   57SAPC  H12Y 4265   0.658   2.582   8.956  0.0207  0.4966  0.3669
   57SAPC  C313 4266   0.815   2.621   8.814  0.1037 -0.7012  0.2475
   57SAPC  H13X 4267   0.912   2.578   8.848  1.1550  1.0150 -0.5120
   57SAPC  H13Y 4268   0.842   2.720   8.772 -0.8750 -0.7361 -0.4592
   57SAPC  C314 4269   0.729   2.531   8.717 -0.6927 -0.0516  0.1102
   57SAPC  H14X 4270   0.695   2.440   8.771  0.0624 -0.2181  0.3126
   57SAPC  H14Y 4271   0.787   2.515   8.624  1.0513 -0.3348  1.2276
   57SAPC  C315 4272   0.610   2.628   8.684  0.8351  0.3696  0.3500
   57SAPC  H15X 4273   0.647   2.729   8.659  1.6706  0.5282  2.1728
   57SAPC  H15Y 4274   0.540   2.638   8.770 -2.0270  0.5164 -1.9163
   57SAPC  C316 4275   0.534   2.582   8.561 -0.3670  0.5276  0.5005
   57SAPC  H16X 4276   0.480   2.485   8.562  3.2419 -1.5939 -0.2603
   57SAPC  H16Y 4277   0.616   2.565   8.488  1.6222 -0.3564  2.8829
   57SAPC  C317 4278   0.456   2.689   8.482 -0.1664  0.6499  0.5472
   57SAPC  H17X 4279   0.416   2.638   8.391  0.9050 -0.4446  0.6709
   57SAPC  H17Y 4280   0.528   2.765   8.446 -0.6424  0.9372  0.1825
   57SAPC  C318 4281   0.348   2.735   8.569  0.7182  1.0431 -1.0166
   57SAPC  H18X 4282   0.280   2.663   8.620  0.7085  0.6220 -1.6249
   57SAPC  H18Y 4283   0.280   2.800   8.510  2.9243  0.2611 -4.5115
   57SAPC  H18Z 4284   0.396   2.795   8.650  0.2779 -0.0051  0.0324
   58SAPC     N 4285   4.140   0.536  10.827  0.0817 -0.2331 -0.3321
   58SAPC   C12 4286   4.013   0.484  10.888  0.2063  0.0412  0.5138
   58SAPC  H12A 4287   3.937   0.559  10.881  1.9077  1.7741  0.1221
   58SAPC  H12B 4288   4.028   0.467  10.994 -0.1632 -0.2451  0.5228
   58SAPC   C13 4289   4.244   0.428  10.820 -0.2074  0.0607 -0.3568
   58SAPC  H13A 4290   4.338   0.473  10.792 -0.8812  1.8276  0.1161
   58SAPC  H13B 4291   4.263   0.386  10.918  0.1570  0.2678 -0.3360
   58SAPC  H13C 4292   4.223   0.340  10.761  1.6483 -1.9175  1.8304
   58SAPC   C14 4293   4.119   0.602  10.686 -0.1252 -0.3508  0.0595
   58SAPC  H14A 4294   4.218   0.637  10.658 -0.6807 -0.0039 -1.5406
   58SAPC  H14B 4295   4.073   0.533  10.617  0.1900 -0.6928  0.1924
   58SAPC  H14C 4296   4.058   0.692  10.690  0.3593  0.0070 -0.3955
   58SAPC   C15 4297   4.193   0.647  10.915 -0.5101  0.5141 -0.3584
   58SAPC  H15A 4298   4.193   0.611  11.017 -1.3452 -0.0136 -0.5406
   58SAPC  H15B 4299   4.289   0.683  10.880 -0.9163  2.7328  0.7105
   58SAPC  H15C 4300   4.124   0.729  10.904  1.1622  2.1365  0.9659
   58SAPC   C11 4301   3.935   0.362  10.816  0.4306  0.0695 -0.4043
   58SAPC  H11A 4302   3.873   0.309  10.891  0.1806 -0.1989 -0.7977
   58SAPC  H11B 4303   4.006   0.283  10.781 -1.0671  0.0318 -3.5184
   58SAPC     P 4304   3.714   0.446  10.714  0.0439 -0.1051 -0.0491
   58SAPC   O13 4305   3.626   0.320  10.708  0.0266 -0.5440  0.4639
   58SAPC   O14 4306   3.707   0.528  10.841 -0.4343  0.5444 -0.0126
   58SAPC   O12 4307   3.871   0.411  10.698 -0.0325 -0.2722 -0.0415
   58SAPC   O11 4308   3.690   0.534  10.582 -0.2632 -0.1613 -0.3926
   58SAPC    C1 4309   3.792   0.553  10.483  0.2598 -0.4620  0.1395
   58SAPC    HA 4310   3.781   0.649  10.427 -0.5809 -0.3872  0.4315
   58SAPC    HB 4311   3.889   0.576  10.533 -0.1124 -0.9655  1.1105
   58SAPC    C2 4312   3.801   0.441  10.375 -0.3759  0.2791  0.2869
   58SAPC    HS 4313   3.793   0.349  10.436 -0.5522  0.4621  0.5422
   58SAPC   O21 4314   3.929   0.456  10.304  0.7748 -0.1005 -0.0579
   58SAPC   C21 4315   3.962   0.343  10.244  0.1280  0.4073 -0.1479
   58SAPC   O22 4316   3.915   0.232  10.268 -0.0760  0.0923 -0.0681
   58SAPC   C22 4317   4.074   0.369  10.145 -0.1594  0.0441  0.1481
   58SAPC   H2R 4318   4.074   0.477  10.119  2.6946  0.3823  1.4212
   58SAPC   H2S 4319   4.168   0.333  10.190  0.3410  2.4708  1.1224
   58SAPC    C3 4320   3.674   0.458  10.279 -0.4734  0.6914 -0.2072
   58SAPC    HX 4321   3.678   0.561  10.240 -0.7160  0.8887  0.2880
   58SAPC    HY 4322   3.580   0.445  10.337  0.0514 -0.6417  0.3839
   58SAPC   O31 4323   3.676   0.370  10.161 -0.7586 -0.0852 -0.4476
   58SAPC   C31 4324   3.625   0.244  10.194  0.7096  0.4484 -1.0183
   58SAPC   O32 4325   3.591   0.203  10.305  0.1853 -0.3427  0.2571
   58SAPC   C32 4326   3.604   0.165  10.067  0.2093 -0.2828  0.8554
   58SAPC   H2X 4327   3.658   0.207   9.979 -0.5310 -0.1332  0.4633
   58SAPC   H2Y 4328   3.495   0.163  10.045  0.6334 -0.9965 -1.2855
   58SAPC   C23 4329   4.054   0.299  10.005  0.1538  0.1356 -0.3165
   58SAPC   H3R 4330   4.012   0.198  10.029  0.8390  0.2842  1.5771
   58SAPC   H3S 4331   4.157   0.291   9.965  0.6114  0.8981  0.7248
   58SAPC   C24 4332   3.967   0.369   9.906 -0.1093 -0.2480 -0.7481
   58SAPC   H4R 4333   4.024   0.452   9.860  2.7989 -1.3874  0.6934
   58SAPC   H4S 4334   3.878   0.415   9.952 -0.0822 -0.5260 -0.4183
   58SAPC   C25 4335   3.926   0.273   9.795  0.3033 -0.5647  0.2320
   58SAPC   H5R 4336   3.831   0.219   9.808 -0.5114  0.5770 -0.8828
   58SAPC   C26 4337   3.987   0.246   9.680  0.3701 -0.4365 -0.0313
   58SAPC   H6R 4338   3.939   0.173   9.613 -0.3940 -0.4073  0.4736
   58SAPC   C27 4339   4.107   0.318   9.620 -0.2409 -0.5778 -0.5879
   58SAPC   H7R 4340   4.188   0.286   9.689 -1.6849 -1.8020  0.5497
   58SAPC   H7S 4341   4.094   0.428   9.618 -0.7951 -0.6219  0.6392
   58SAPC   C28 4342   4.132   0.284   9.474 -0.3388 -0.0486 -1.3507
   58SAPC   H8R 4343   4.235   0.247   9.465 -0.0044  0.0679  1.3396
   58SAPC   C29 4344   4.060   0.302   9.364 -0.0169 -1.2391  0.4509
   58SAPC   H9R 4345   4.103   0.285   9.265  0.7009 -0.0718  0.5451
   58SAPC  C210 4346   3.933   0.373   9.361  0.3860 -0.5838 -0.4971
   58SAPC  H10R 4347   3.890   0.410   9.457 -0.3997 -1.3331 -0.5543
   58SAPC  H10S 4348   3.858   0.294   9.338  0.5588 -1.0911  0.6234
   58SAPC  C211 4349   3.934   0.491   9.258 -0.2697  0.4937 -0.3268
   58SAPC  H11R 4350   4.021   0.558   9.265 -0.8771  1.3160 -0.6087
   58SAPC  C212 4351   3.825   0.528   9.183  0.4603 -0.3908  0.1353
   58SAPC  H12R 4352   3.843   0.604   9.105  0.7380 -1.2131 -0.6163
   58SAPC  C213 4353   3.699   0.442   9.178 -0.3211 -0.6718 -0.0989
   58SAPC  H13R 4354   3.651   0.455   9.277 -0.8196 -0.2826 -0.3891
   58SAPC  H13S 4355   3.720   0.333   9.167  2.7093 -0.3869  2.3477
   58SAPC  C214 4356   3.596   0.480   9.073  0.3115 -0.5361  0.1968
   58SAPC  H14R 4357   3.509   0.532   9.116 -0.7068 -0.6762 -1.6550
   58SAPC  C215 4358   3.583   0.428   8.948  0.0377 -1.2966  0.1083
   58SAPC  H15R 4359   3.505   0.472   8.884  1.2385 -0.2105 -0.6221
   58SAPC  C216 4360   3.675   0.326   8.870  0.7529 -0.1469 -0.0850
   58SAPC  H16R 4361   3.614   0.234   8.876  0.6044  0.0084  0.8462
   58SAPC  H16S 4362   3.769   0.304   8.925  1.7433  1.7899 -0.9372
   58SAPC  C217 4363   3.682   0.379   8.726  0.6137 -0.5050  0.1232
   58SAPC  H17R 4364   3.583   0.397   8.678  0.1876 -0.4230  1.0093
   58SAPC  H17S 4365   3.739   0.302   8.670  0.0885 -0.3289 -0.6596
   58SAPC  C218 4366   3.758   0.512   8.718 -1.1101  0.5118  0.2053
   58SAPC  H18R 4367   3.860   0.505   8.762 -1.0029 -1.9526 -0.3694
   58SAPC  H18S 4368   3.702   0.594   8.768 -1.5354  0.2726  0.1220
   58SAPC  C219 4369   3.776   0.566   8.578  0.3551 -0.4323  0.9379
   58SAPC  H19R 4370   3.682   0.609   8.538  0.8601 -0.5981 -0.4281
   58SAPC  H19S 4371   3.817   0.483   8.517  1.9640 -0.2940  1.7933
   58SAPC  C220 4372   3.875   0.682   8.585  0.5244 -1.1308  0.0050
   58SAPC  H20R 4373   3.969   0.654   8.637  0.9231  1.9821  1.0663
   58SAPC  H20S 4374   3.834   0.768   8.642  1.5915 -1.4304  1.2517
   58SAPC  H20T 4375   3.913   0.716   8.486 -0.6815 -2.1987 -0.8440
   58SAPC   C33 4376   3.635   0.010  10.077 -0.3419 -0.8085  0.1574
   58SAPC   H3X 4377   3.573  -0.039  10.155 -0.6344  0.4123  0.7008
   58SAPC   H3Y 4378   3.742   0.007  10.109  1.0572  2.3404 -3.8285
   58SAPC   C34 4379   3.623  -0.076   9.952 -0.5207  0.7361 -0.0934
   58SAPC   H4X 4380   3.526  -0.050   9.904  0.3297  0.6777 -1.8654
   58SAPC   H4Y 4381   3.632  -0.183   9.978  2.2881  1.1769  0.8869
   58SAPC   C35 4382   3.736  -0.057   9.851  0.2685  0.0566  0.4231
   58SAPC   H5X 4383   3.832  -0.039   9.904  0.9617  1.9534 -1.4229
   58SAPC   H5Y 4384   3.705   0.030   9.790  0.7914  0.0161  0.0936
   58SAPC   C36 4385   3.754  -0.173   9.748 -0.4432 -0.2649 -0.4025
   58SAPC   H6X 4386   3.659  -0.197   9.697  0.1073 -0.5007 -1.3302
   58SAPC   H6Y 4387   3.767  -0.264   9.811 -2.0782 -0.2993 -0.1108
   58SAPC   C37 4388   3.863  -0.146   9.646  0.0758  0.6039 -0.2152
   58SAPC   H7X 4389   3.920  -0.241   9.635  1.5760  1.1651  2.3062
   58SAPC   H7Y 4390   3.943  -0.078   9.682 -0.3693  0.5152  0.9518
   58SAPC   C38 4391   3.816  -0.101   9.509 -0.4914  0.4312 -0.4987
   58SAPC   H8X 4392   3.740  -0.020   9.517  1.8023  3.1799 -4.8036
   58SAPC   H8Y 4393   3.772  -0.191   9.461 -1.7299  1.7154 -1.8184
   58SAPC   C39 4394   3.938  -0.052   9.433  0.3122 -0.4764  0.3042
   58SAPC   H9X 4395   4.005   0.015   9.490  0.4017  0.3244 -0.7167
   58SAPC   H9Y 4396   3.895   0.016   9.356  1.5071 -0.2267 -0.1453
   58SAPC  C310 4397   4.032  -0.163   9.369  0.8675  0.9612 -0.0607
   58SAPC  H10X 4398   3.966  -0.232   9.311 -0.1898 -1.1993  3.5167
   58SAPC  H10Y 4399   4.067  -0.225   9.455 -0.7939 -0.1843 -0.1826
   58SAPC  C311 4400   4.136  -0.098   9.289 -0.2733 -0.2228  0.4992
   58SAPC  H11X 4401   4.225  -0.165   9.286 -1.1310 -1.3096 -1.2869
   58SAPC  H11Y 4402   4.168  -0.008   9.345  0.1120 -1.2718  1.9951
   58SAPC  C312 4403   4.104  -0.056   9.147  0.8248 -0.5036  0.3422
   58SAPC  H12X 4404   4.003  -0.009   9.142  1.0706 -0.0944 -0.6377
   58SAPC  H12Y 4405   4.113  -0.137   9.071 -4.6441 -0.3925 -0.6190
   58SAPC  C313 4406   4.211   0.050   9.099  0.5130  0.2415 -0.6122
   58SAPC  H13X 4407   4.305   0.037   9.157 -1.8632 -0.6773  3.2787
   58SAPC  H13Y 4408   4.181   0.155   9.120  0.8392  0.2568 -0.1949
   58SAPC  C314 4409   4.238   0.045   8.949 -0.4698  0.5547  0.1224
   58SAPC  H14X 4410   4.248  -0.059   8.909 -0.8685  0.8411 -0.7277
   58SAPC  H14Y 4411   4.335   0.095   8.925  0.1953  0.0838  1.7583
   58SAPC  C315 4412   4.131   0.106   8.856 -0.1784 -0.4727  0.2089
   58SAPC  H15X 4413   4.039   0.129   8.914 -0.2949  0.3900 -0.3091
   58SAPC  H15Y 4414   4.098   0.032   8.780 -2.1299  0.9971 -0.4228
   58SAPC  C316 4415   4.180   0.233   8.771  0.0281  0.4589  0.5689
   58SAPC  H16X 4416   4.261   0.181   8.715 -0.3099  0.8996 -0.3408
   58SAPC  H16Y 4417   4.229   0.313   8.830  1.3046 -0.0998  0.2817
   58SAPC  C317 4418   4.063   0.273   8.680 -0.2278  0.1107 -0.4927
   58SAPC  H17X 4419   3.979   0.317   8.739 -1.2119  0.8403 -2.3813
   58SAPC  H17Y 4420   4.011   0.182   8.642 -0.2380  0.9867 -2.6630
   58SAPC  C318 4421   4.086   0.366   8.560 -0.0466  0.4528  0.1559
   58SAPC  H18X 4422   3.988   0.392   8.515  0.8843  1.3467 -1.3871
   58SAPC  H18Y 4423   4.144   0.307   8.485  1.6229 -1.4166  2.8212
   58SAPC  H18Z 4424   4.144   0.456   8.587  0.1076  0.3617  0.1279
   59SAPC     N 4425   5.079   1.489  11.427 -0.5121  0.6160  0.9819
   59SAPC   C12 4426   4.984   1.385  11.373  0.5552  0.4045 -0.3189
   59SAPC  H12A 4427   4.991   1.395  11.266  0.8910  0.3044 -0.3073
   59SAPC  H12B 4428   4.884   1.406  11.408  1.6223  1.8317  2.0322
   59SAPC   C13 4429   5.203   1.485  11.347 -0.2429  0.4078 -0.0948
   59SAPC  H13A 4430   5.205   1.536  11.252  0.4105  0.4910 -0.0416
   59SAPC  H13B 4431   5.291   1.522  11.398  0.1346 -1.4428  0.6469
   59SAPC  H13C 4432   5.212   1.378  11.332  2.2581  0.2611  2.1879
   59SAPC   C14 4433   5.012   1.618  11.406 -0.4621  0.4939  0.0513
   59SAPC  H14A 4434   4.981   1.631  11.304 -0.3423  1.5712  0.1447
   59SAPC  H14B 4435   4.918   1.621  11.461 -0.4995 -1.6056  0.1235
   59SAPC  H14C 4436   5.081   1.696  11.435  1.7542 -1.2142 -0.5870
   59SAPC   C15 4437   5.101   1.458  11.564  0.1597  0.2595  0.0267
   59SAPC  H15A 4438   5.005   1.465  11.613 -0.3135 -0.0527 -0.8490
   59SAPC  H15B 4439   5.137   1.358  11.578  0.1406  0.5481  2.2631
   59SAPC  H15C 4440   5.167   1.521  11.622  2.9061 -0.8722 -1.7344
   59SAPC   C11 4441   5.003   1.237  11.396  0.4652 -0.1231 -0.2285
   59SAPC  H11A 4442   4.909   1.194  11.353  0.3621  0.7833 -0.9164
   59SAPC  H11B 4443   5.009   1.199  11.500 -3.0146  0.3838  0.2417
   59SAPC     P 4444   5.114   1.156  11.172  0.0050  0.1570 -0.0906
   59SAPC   O13 4445   5.238   1.206  11.108  0.1447  0.4828  0.3865
   59SAPC   O14 4446   5.092   1.012  11.159  0.3089 -0.3228 -0.0719
   59SAPC   O12 4447   5.118   1.184  11.322  0.2742  0.0178 -0.3254
   59SAPC   O11 4448   4.993   1.247  11.124 -0.1966  0.3400  0.1053
   59SAPC    C1 4449   4.889   1.204  11.028 -0.3972  0.2567  0.5724
   59SAPC    HA 4450   4.879   1.094  11.019  1.8414 -0.1032  2.0001
   59SAPC    HB 4451   4.793   1.233  11.076  0.8327  2.8420  1.6167
   59SAPC    C2 4452   4.898   1.271  10.888  0.9282 -0.8249  0.3320
   59SAPC    HS 4453   4.812   1.239  10.824  1.3086 -0.8557 -0.1662
   59SAPC   O21 4454   5.023   1.240  10.831 -0.0234  0.2888 -0.1112
   59SAPC   C21 4455   5.028   1.155  10.729  0.2706 -0.1960 -0.1739
   59SAPC   O22 4456   4.937   1.094  10.677 -0.3931 -0.5293  0.4301
   59SAPC   C22 4457   5.176   1.154  10.683  0.6948 -0.0718  0.0882
   59SAPC   H2R 4458   5.204   1.261  10.673 -1.3838  0.4320 -0.7268
   59SAPC   H2S 4459   5.240   1.112  10.764 -2.4341 -0.7116  2.3624
   59SAPC    C3 4460   4.882   1.425  10.896 -0.3357 -0.0279  0.4025
   59SAPC    HX 4461   4.965   1.449  10.966  0.5565 -1.1907 -0.2472
   59SAPC    HY 4462   4.786   1.444  10.950 -0.8195 -1.0975 -0.0596
   59SAPC   O31 4463   4.885   1.487  10.767  0.1624  0.4414 -0.1703
   59SAPC   C31 4464   4.995   1.551  10.733 -0.4550 -0.4586  0.2941
   59SAPC   O32 4465   5.097   1.554  10.801  0.3342 -0.1522 -0.9769
   59SAPC   C32 4466   4.979   1.607  10.593 -0.5023 -0.1705  0.8103
   59SAPC   H2X 4467   4.993   1.717  10.600 -3.2001  0.3760 -1.6847
   59SAPC   H2Y 4468   4.872   1.603  10.563  0.3200  0.6388 -2.4214
   59SAPC   C23 4469   5.189   1.082  10.549  0.5198  0.0306  0.4110
   59SAPC   H3R 4470   5.138   1.138  10.467  1.0120 -1.2147 -0.7583
   59SAPC   H3S 4471   5.156   0.976  10.542 -0.5814  0.3869  0.1262
   59SAPC   C24 4472   5.335   1.062  10.515  0.3345  0.7933 -0.5209
   59SAPC   H4R 4473   5.340   1.009  10.417 -0.9351 -2.7930  1.2800
   59SAPC   H4S 4474   5.398   1.005  10.586  0.3247  2.7287  1.0923
   59SAPC   C25 4475   5.392   1.197  10.504 -0.1131  0.0330  0.1839
   59SAPC   H5R 4476   5.430   1.241  10.597  0.1467  0.4568 -0.1179
   59SAPC   C26 4477   5.399   1.269  10.390  0.4490 -0.3306  0.1760
   59SAPC   H6R 4478   5.444   1.369  10.397  1.2149 -0.6336 -0.3213
   59SAPC   C27 4479   5.348   1.216  10.261 -0.0263  0.2910 -0.6453
   59SAPC   H7R 4480   5.241   1.188  10.269 -0.2014  1.5880  1.9350
   59SAPC   H7S 4481   5.403   1.122  10.237 -2.1372 -1.2687  0.3859
   59SAPC   C28 4482   5.379   1.312  10.158  0.1265 -0.7129 -0.1943
   59SAPC   H8R 4483   5.364   1.417  10.186  0.2579 -1.0393  1.1260
   59SAPC   C29 4484   5.432   1.284  10.035  0.5148  0.1789 -0.4067
   59SAPC   H9R 4485   5.461   1.368   9.969  1.0549  0.5311  0.2785
   59SAPC  C210 4486   5.459   1.151   9.966  0.4392  0.2240  0.2400
   59SAPC  H10R 4487   5.439   1.069  10.038 -2.7588 -0.8490 -1.7107
   59SAPC  H10S 4488   5.566   1.138   9.939  0.2590  1.5428 -1.1473
   59SAPC  C211 4489   5.373   1.116   9.847  0.2945 -0.0353  0.5457
   59SAPC  H11R 4490   5.286   1.056   9.879  0.3690  0.2171  1.2406
   59SAPC  C212 4491   5.390   1.143   9.716  0.5782  0.0207 -0.6115
   59SAPC  H12R 4492   5.327   1.108   9.633  1.3333  1.6536 -1.9372
   59SAPC  C213 4493   5.506   1.223   9.656  0.1270  0.3068  0.6637
   59SAPC  H13R 4494   5.576   1.150   9.609  1.1927  1.8304 -0.1458
   59SAPC  H13S 4495   5.566   1.272   9.735  0.4085 -1.2103  1.4184
   59SAPC  C214 4496   5.469   1.333   9.558 -0.1680 -0.3609  0.2764
   59SAPC  H14R 4497   5.388   1.399   9.593 -1.0768 -0.7801 -0.9987
   59SAPC  C215 4498   5.533   1.362   9.443 -0.0040 -0.1126  0.2410
   59SAPC  H15R 4499   5.492   1.444   9.381  0.6578  0.4677  0.5632
   59SAPC  C216 4500   5.648   1.291   9.374  0.7951  0.7461  0.1963
   59SAPC  H16R 4501   5.646   1.187   9.414  0.8269  0.2533 -1.0764
   59SAPC  H16S 4502   5.747   1.337   9.393  1.1612  0.9355 -2.0541
   59SAPC  C217 4503   5.614   1.270   9.228 -0.3160  0.5219 -0.1087
   59SAPC  H17R 4504   5.509   1.241   9.207 -0.1137 -2.6459  2.7646
   59SAPC  H17S 4505   5.682   1.193   9.185 -0.1582 -0.3652  1.6742
   59SAPC  C218 4506   5.645   1.398   9.152  0.1138 -0.6087  0.0500
   59SAPC  H18R 4507   5.745   1.435   9.184 -0.7284 -0.3523  2.5166
   59SAPC  H18S 4508   5.579   1.477   9.194  0.2651 -0.2043 -0.4767
   59SAPC  C219 4509   5.628   1.393   8.997 -0.7337 -0.7610 -0.3801
   59SAPC  H19R 4510   5.636   1.497   8.961  2.6496 -0.0274  2.1496
   59SAPC  H19S 4511   5.523   1.358   8.986 -0.3971 -1.7171 -0.6898
   59SAPC  C220 4512   5.720   1.295   8.930  0.2663 -0.1363 -0.7154
   59SAPC  H20R 4513   5.696   1.296   8.822 -1.6485  1.7181 -0.2908
   59SAPC  H20S 4514   5.688   1.192   8.958  0.0189 -0.2686 -1.4822
   59SAPC  H20T 4515   5.829   1.315   8.940  0.3050  0.2048 -1.7896
   59SAPC   C33 4516   5.078   1.547  10.489 -0.5128  0.0833  0.8361
   59SAPC   H3X 4517   5.082   1.437  10.475 -0.4789  0.2359 -0.4230
   59SAPC   H3Y 4518   5.178   1.577  10.528 -0.0830 -0.7062  0.3401
   59SAPC   C34 4519   5.048   1.606  10.347 -0.4999 -0.0241 -0.0662
   59SAPC   H4X 4520   5.107   1.699  10.335 -1.2096  0.6233  1.3129
   59SAPC   H4Y 4521   4.940   1.636  10.345 -0.8093 -1.2086 -2.0607
   59SAPC   C35 4522   5.074   1.510  10.236  0.4873 -0.0085 -0.8789
   59SAPC   H5X 4523   5.000   1.427  10.233 -0.2560  0.6138 -0.0910
   59SAPC   H5Y 4524   5.177   1.470  10.249 -0.4404 -2.2012  0.0060
   59SAPC   C36 4525   5.079   1.578  10.103  0.4567 -0.0835 -0.4136
   59SAPC   H6X 4526   5.172   1.634  10.077  1.0919 -1.5478 -1.3616
   59SAPC   H6Y 4527   4.998   1.654  10.096 -0.4631 -1.1055 -1.0242
   59SAPC   C37 4528   5.057   1.475   9.987 -0.1000  0.7357  0.4397
   59SAPC   H7X 4529   4.951   1.444  10.002 -0.7923  2.0269 -1.5500
   59SAPC   H7Y 4530   5.126   1.389   9.991 -0.1192  0.6945 -0.1613
   59SAPC   C38 4531   5.071   1.543   9.849 -0.0472  0.9711 -0.4866
   59SAPC   H8X 4532   5.178   1.572   9.838  0.2987  0.9134  2.3923
   59SAPC   H8Y 4533   5.012   1.637   9.847 -2.3606 -0.3530  2.4847
   59SAPC   C39 4534   5.017   1.447   9.738 -0.0982  0.1612  0.3547
   59SAPC   H9X 4535   4.925   1.385   9.750  0.7296 -1.1434  0.0280
   59SAPC   H9Y 4536   5.105   1.385   9.713 -0.7268  0.0583 -1.6942
   59SAPC  C310 4537   4.993   1.520   9.596 -0.4141  0.0688 -0.6650
   59SAPC  H10X 4538   5.011   1.629   9.598  1.5454 -0.2484 -0.0670
   59SAPC  H10Y 4539   4.887   1.502   9.568 -1.0404  0.2098  1.5408
   59SAPC  C311 4540   5.068   1.475   9.473  0.2725  0.6394 -0.3961
   59SAPC  H11X 4541   5.040   1.370   9.450 -0.3608  0.9113 -0.8722
   59SAPC  H11Y 4542   5.174   1.474   9.506 -0.1717 -0.7588  1.0521
   59SAPC  C312 4543   5.044   1.562   9.351 -0.1094  0.2159  0.0490
   59SAPC  H12X 4544   5.074   1.662   9.388 -1.8321  0.8201 -0.1144
   59SAPC  H12Y 4545   4.934   1.557   9.333 -0.2732  0.5398  0.9449
   59SAPC  C313 4546   5.129   1.515   9.232  0.4955 -0.0586  0.4214
   59SAPC  H13X 4547   5.231   1.484   9.263  1.2764  2.2256  0.2205
   59SAPC  H13Y 4548   5.134   1.605   9.168 -4.3560 -1.0303 -1.5571
   59SAPC  C314 4549   5.058   1.400   9.148 -0.3046 -0.2405  0.4143
   59SAPC  H14X 4550   4.956   1.438   9.128  0.1054  0.4153 -0.4877
   59SAPC  H14Y 4551   5.051   1.317   9.221 -1.3968  0.7152  1.4060
   59SAPC  C315 4552   5.141   1.359   9.027 -0.0624 -0.0440  0.3181
   59SAPC  H15X 4553   5.108   1.257   8.996  1.0343 -0.6553  1.1214
   59SAPC  H15Y 4554   5.248   1.357   9.057  0.0365 -1.9641 -0.0639
   59SAPC  C316 4555   5.131   1.461   8.914  1.2310  0.4232 -0.2073
   59SAPC  H16X 4556   5.177   1.558   8.943  1.9622  0.0910 -0.2724
   59SAPC  H16Y 4557   5.025   1.477   8.885  0.9996 -1.0713 -0.1915
   59SAPC  C317 4558   5.206   1.407   8.795  0.2085 -0.0398 -0.5584
   59SAPC  H17X 4559   5.181   1.300   8.777 -4.1471  0.8958 -0.7246
   59SAPC  H17Y 4560   5.315   1.417   8.810 -0.0392  0.4482  1.0333
   59SAPC  C318 4561   5.166   1.477   8.664 -0.8061 -1.0591 -1.0576
   59SAPC  H18X 4562   5.184   1.586   8.676 -0.3355 -1.2976  0.5769
   59SAPC  H18Y 4563   5.062   1.454   8.634 -1.8124  0.3970  1.1966
   59SAPC  H18Z 4564   5.241   1.440   8.590  0.5630 -2.1389  0.8207
   60SAPC     N 4565   0.347   6.749  10.866  0.4555  0.2869  0.2248
   60SAPC   C12 4566   0.212   6.710  10.945  0.1297 -0.0539  0.1964
   60SAPC  H12A 4567   0.129   6.775  10.921 -0.7476 -1.6104 -1.0868
   60SAPC  H12B 4568   0.240   6.729  11.048 -0.8583  0.4982  0.3645
   60SAPC   C13 4569   0.458   6.645  10.880  1.1021  0.1035 -0.3355
   60SAPC  H13A 4570   0.473   6.625  10.985  0.0464  1.2895  0.0510
   60SAPC  H13B 4571   0.436   6.548  10.838 -0.5089 -0.7391  2.3706
   60SAPC  H13C 4572   0.549   6.688  10.839  1.3240 -1.8038 -1.9065
   60SAPC   C14 4573   0.301   6.763  10.722  0.0074  0.3128 -0.6478
   60SAPC  H14A 4574   0.258   6.672  10.683 -3.4607  0.4036  2.6964
   60SAPC  H14B 4575   0.221   6.835  10.715 -0.1942  0.4087  2.0371
   60SAPC  H14C 4576   0.384   6.782  10.655  0.1892  0.4624 -0.3797
   60SAPC   C15 4577   0.396   6.875  10.920  0.5599 -0.7658 -0.4072
   60SAPC  H15A 4578   0.324   6.952  10.897  0.2659 -0.2501  2.0789
   60SAPC  H15B 4579   0.419   6.875  11.025  0.3070 -0.0917 -0.3493
   60SAPC  H15C 4580   0.484   6.910  10.867 -0.2752 -0.1838 -1.4229
   60SAPC   C11 4581   0.148   6.570  10.924  0.1778 -0.1271  0.1402
   60SAPC  H11A 4582   0.075   6.544  11.003 -0.1431  0.9812  0.2156
   60SAPC  H11B 4583   0.220   6.486  10.940  1.0031  0.2743 -1.3528
   60SAPC     P 4584  -0.051   6.613  10.764 -0.1229 -0.2652  0.2463
   60SAPC   O13 4585  -0.078   6.566  10.623  0.4247 -0.4058 -0.0975
   60SAPC   O14 4586  -0.151   6.574  10.864  0.5735 -0.1478 -0.1636
   60SAPC   O12 4587   0.086   6.553  10.798 -0.9397 -0.5620 -0.3184
   60SAPC   O11 4588  -0.026   6.769  10.771  0.3799 -0.4086 -0.5771
   60SAPC    C1 4589  -0.135   6.857  10.750  0.0433 -0.0608  0.5132
   60SAPC    HA 4590  -0.231   6.809  10.776  0.0457 -1.0114 -1.1691
   60SAPC    HB 4591  -0.128   6.936  10.827 -0.0901 -1.0637  1.5571
   60SAPC    C2 4592  -0.127   6.918  10.609  0.5108 -0.1722 -0.8212
   60SAPC    HS 4593  -0.217   6.983  10.600  0.1343 -0.8046 -1.7025
   60SAPC   O21 4594  -0.117   6.826  10.496 -0.2707  0.0480 -0.3535
   60SAPC   C21 4595  -0.229   6.760  10.463  0.1137 -0.1883 -0.4737
   60SAPC   O22 4596  -0.328   6.771  10.529  0.3416  0.0167 -0.4320
   60SAPC   C22 4597  -0.217   6.687  10.330 -0.7480 -0.1108  0.5773
   60SAPC   H2R 4598  -0.115   6.717  10.297 -0.7407  0.3307  0.9833
   60SAPC   H2S 4599  -0.224   6.577  10.344 -0.5574 -0.5595 -2.6156
   60SAPC    C3 4600  -0.014   7.023  10.603  0.5658 -0.3204  0.2391
   60SAPC    HX 4601   0.085   6.985  10.636  0.4823  0.3089  1.2430
   60SAPC    HY 4602  -0.052   7.100  10.674  1.5727 -0.1772  0.6351
   60SAPC   O31 4603   0.002   7.074  10.472 -0.7041 -0.1349  0.1918
   60SAPC   C31 4604   0.088   7.007  10.392 -0.0636  0.7974 -0.4693
   60SAPC   O32 4605   0.148   6.907  10.429 -0.0588 -0.1012 -0.4296
   60SAPC   C32 4606   0.097   7.073  10.257 -0.3750 -0.5501 -0.0513
   60SAPC   H2X 4607   0.135   7.176  10.271  1.6334 -1.0304 -1.8018
   60SAPC   H2Y 4608  -0.006   7.082  10.216  0.9881  2.9890 -2.8542
   60SAPC   C23 4609  -0.325   6.733  10.227 -0.3998 -0.8212 -0.4996
   60SAPC   H3R 4610  -0.309   6.832  10.179 -3.0989  0.2654  0.6877
   60SAPC   H3S 4611  -0.424   6.738  10.278  0.3821  3.1480  0.8224
   60SAPC   C24 4612  -0.338   6.636  10.109 -0.1869  0.7164  1.6877
   60SAPC   H4R 4613  -0.415   6.671  10.037  2.0345  1.9162 -0.1936
   60SAPC   H4S 4614  -0.379   6.544  10.155  1.2527  0.7463  3.0570
   60SAPC   C25 4615  -0.215   6.601  10.029 -0.3824  1.4478 -1.0976
   60SAPC   H5R 4616  -0.136   6.557  10.091  1.3566  3.6662 -1.6397
   60SAPC   C26 4617  -0.196   6.603   9.895 -0.0075 -0.0080  0.2930
   60SAPC   H6R 4618  -0.095   6.577   9.860 -0.4477 -2.2722  0.6426
   60SAPC   C27 4619  -0.283   6.649   9.780 -0.7452  0.1408 -0.0930
   60SAPC   H7R 4620  -0.245   6.742   9.732  0.9623  0.7346  2.3375
   60SAPC   H7S 4621  -0.388   6.671   9.810 -0.7037 -0.6746  0.6790
   60SAPC   C28 4622  -0.275   6.532   9.691  0.3185  0.1763  0.1181
   60SAPC   H8R 4623  -0.253   6.433   9.733  1.4564  0.5625  0.4532
   60SAPC   C29 4624  -0.296   6.543   9.558 -0.3196 -0.2748  0.3787
   60SAPC   H9R 4625  -0.270   6.459   9.492 -2.3693 -2.5635  2.3953
   60SAPC  C210 4626  -0.325   6.665   9.478  0.3983 -0.2718  0.3117
   60SAPC  H10R 4627  -0.298   6.756   9.537  0.4920 -1.2332  1.7801
   60SAPC  H10S 4628  -0.435   6.681   9.469  0.3129 -1.0397 -0.0170
   60SAPC  C211 4629  -0.252   6.668   9.342  0.0726 -0.0706 -0.4318
   60SAPC  H11R 4630  -0.142   6.660   9.345  0.2988  2.0560 -2.1566
   60SAPC  C212 4631  -0.301   6.667   9.219 -0.1867 -0.2697  0.2459
   60SAPC  H12R 4632  -0.233   6.662   9.133 -0.2623  0.6174  0.1305
   60SAPC  C213 4633  -0.440   6.661   9.171  0.0690 -0.1464 -0.0172
   60SAPC  H13R 4634  -0.505   6.700   9.253 -0.3909 -2.5055  0.7764
   60SAPC  H13S 4635  -0.476   6.558   9.152  0.0029 -0.1602  0.1840
   60SAPC  C214 4636  -0.466   6.738   9.044  0.2576  0.1412 -0.3127
   60SAPC  H14R 4637  -0.479   6.847   9.056  1.5853  0.4423 -1.5383
   60SAPC  C215 4638  -0.454   6.694   8.917  0.0590  0.0649  1.2828
   60SAPC  H15R 4639  -0.472   6.766   8.836 -0.2946  0.0069  1.3106
   60SAPC  C216 4640  -0.409   6.561   8.861 -0.1007 -0.0031  0.9822
   60SAPC  H16R 4641  -0.480   6.521   8.785  2.7019 -0.5266 -1.4608
   60SAPC  H16S 4642  -0.406   6.484   8.940 -0.2248 -0.0010  0.9871
   60SAPC  C217 4643  -0.269   6.562   8.782 -0.1453 -0.3253  0.3398
   60SAPC  H17R 4644  -0.280   6.653   8.719  2.9998  0.0461  0.2687
   60SAPC  H17S 4645  -0.274   6.468   8.722  0.0180 -0.1316  0.0223
   60SAPC  C218 4646  -0.148   6.565   8.873 -0.0901 -0.3060 -0.5205
   60SAPC  H18R 4647  -0.169   6.484   8.946 -1.3777 -0.3920 -0.9866
   60SAPC  H18S 4648  -0.155   6.660   8.929  1.8574 -0.8052  0.6439
   60SAPC  C219 4649  -0.012   6.530   8.812  0.6555  0.5137  0.3128
   60SAPC  H19R 4650   0.007   6.598   8.726 -0.1131  1.3131  0.7598
   60SAPC  H19S 4651  -0.011   6.424   8.777  1.2842  0.7303 -0.3476
   60SAPC  C220 4652   0.100   6.551   8.913  0.4398  0.5029  0.2789
   60SAPC  H20R 4653   0.098   6.657   8.945  0.5241  0.3740  0.7117
   60SAPC  H20S 4654   0.197   6.529   8.863  0.7192 -0.0293  1.0557
   60SAPC  H20T 4655   0.095   6.494   9.008  0.8324  0.2900  0.1740
   60SAPC   C33 4656   0.198   7.005  10.157  0.4109 -0.1351 -0.0498
   60SAPC   H3X 4657   0.299   7.011  10.204  0.2634  2.1376  0.0183
   60SAPC   H3Y 4658   0.205   7.069  10.067  1.6191 -1.0861 -0.6547
   60SAPC   C34 4659   0.166   6.859  10.124  0.1285  0.0987  0.0874
   60SAPC   H4X 4660   0.056   6.851  10.108 -0.3076 -1.3290  3.4918
   60SAPC   H4Y 4661   0.175   6.792  10.212 -0.0580  0.0207  0.0493
   60SAPC   C35 4662   0.252   6.793  10.010 -0.0954  0.2617 -1.1553
   60SAPC   H5X 4663   0.241   6.683  10.021  2.2860  0.2600  1.7967
   60SAPC   H5Y 4664   0.359   6.813  10.030 -0.1290  0.6659 -1.3686
   60SAPC   C36 4665   0.241   6.862   9.867 -0.2388  0.3520 -0.6796
   60SAPC   H6X 4666   0.331   6.849   9.804  1.1694 -0.1427  1.4028
   60SAPC   H6Y 4667   0.238   6.971   9.889 -0.1700  0.2497 -0.1501
   60SAPC   C37 4668   0.111   6.826   9.791  0.6868  0.0141  0.8298
   60SAPC   H7X 4669   0.033   6.878   9.851 -1.3387 -1.1729 -0.7342
   60SAPC   H7Y 4670   0.098   6.715   9.792  1.9216 -0.1348  3.0493
   60SAPC   C38 4671   0.100   6.890   9.654 -0.0062  0.3425  0.0428
   60SAPC   H8X 4672   0.203   6.891   9.611  0.0660  2.4095  0.2070
   60SAPC   H8Y 4673   0.080   6.997   9.677  1.4479  0.1795  2.2289
   60SAPC   C39 4674  -0.000   6.813   9.568  0.3395 -0.0283 -0.8124
   60SAPC   H9X 4675  -0.104   6.842   9.597 -0.0005 -1.6093 -0.4270
   60SAPC   H9Y 4676   0.012   6.703   9.568  0.1939 -0.0471 -1.6442
   60SAPC  C310 4677   0.024   6.874   9.432 -0.4549  0.3847  0.1187
   60SAPC  H10X 4678  -0.018   6.807   9.354  1.4012 -0.8705  0.1612
   60SAPC  H10Y 4679   0.130   6.864   9.400 -0.6684  1.2542 -0.8822
   60SAPC  C311 4680  -0.027   7.017   9.407 -0.6517 -0.0226  0.3363
   60SAPC  H11X 4681   0.014   7.097   9.472 -0.9060  1.9423 -1.8880
   60SAPC  H11Y 4682  -0.135   7.009   9.435 -0.6532 -0.3458  0.2456
   60SAPC  C312 4683   0.007   7.069   9.260 -0.0690  0.3353  0.4536
   60SAPC  H12X 4684   0.116   7.080   9.248 -0.4953  1.3732 -3.0486
   60SAPC  H12Y 4685  -0.037   7.171   9.249 -0.2775  0.4962  2.5661
   60SAPC  C313 4686  -0.028   6.984   9.144 -0.1423  0.3734  0.1435
   60SAPC  H13X 4687  -0.131   6.944   9.134 -0.3648  0.9579  0.0810
   60SAPC  H13Y 4688   0.051   6.905   9.142 -0.3309  0.1526  1.1350
   60SAPC  C314 4689  -0.004   7.066   9.017 -0.0765 -0.5244  0.2627
   60SAPC  H14X 4690   0.105   7.084   9.004 -0.3433  0.0354 -1.2315
   60SAPC  H14Y 4691  -0.054   7.165   9.018 -0.0818 -0.5209 -0.2069
   60SAPC  C315 4692  -0.054   7.004   8.886 -0.5582  0.3196  0.4065
   60SAPC  H15X 4693  -0.009   6.903   8.881 -0.7992  0.1559  1.3620
   60SAPC  H15Y 4694  -0.020   7.060   8.796 -1.4406 -0.4282 -0.3985
   60SAPC  C316 4695  -0.207   6.989   8.886  0.1841 -0.4249 -0.7849
   60SAPC  H16X 4696  -0.243   7.037   8.980 -0.0582 -0.4748 -0.8503
   60SAPC  H16Y 4697  -0.242   6.885   8.870 -1.8737  0.1553 -0.1723
   60SAPC  C317 4698  -0.273   7.077   8.772  0.5393 -0.2567  0.4326
   60SAPC  H17X 4699  -0.223   7.176   8.774  2.3981 -1.1720  0.3754
   60SAPC  H17Y 4700  -0.381   7.094   8.786  0.0803 -1.2686 -1.6765
   60SAPC  C318 4701  -0.258   7.020   8.629  0.0488 -0.1089  0.2806
   60SAPC  H18X 4702  -0.156   6.979   8.614  0.1518  0.6498 -1.1759
   60SAPC  H18Y 4703  -0.287   7.101   8.558  0.1897  0.5676  0.9957
   60SAPC  H18Z 4704  -0.329   6.937   8.611 -0.3898 -0.5740  3.8475
   61SAPC     N 4705   1.219   6.210  10.916 -0.3200  0.7170 -0.7660
   61SAPC   C12 4706   1.110   6.159  10.826 -0.0317 -0.3201  0.8402
   61SAPC  H12A 4707   1.147   6.067  10.784  3.4484  0.2787  2.3759
   61SAPC  H12B 4708   1.090   6.229  10.746  2.6450 -1.1752 -0.6145
   61SAPC   C13 4709   1.238   6.117  11.038  0.6544 -0.5229  0.2161
   61SAPC  H13A 4710   1.251   6.010  11.026  0.8994 -0.5426  0.6525
   61SAPC  H13B 4711   1.325   6.161  11.085  0.3558  1.5779 -1.1139
   61SAPC  H13C 4712   1.148   6.122  11.098  0.6212 -1.0682  0.2088
   61SAPC   C14 4713   1.358   6.213  10.851  0.3916 -0.6779  0.8482
   61SAPC  H14A 4714   1.371   6.292  10.778  2.7629 -0.1436  1.8079
   61SAPC  H14B 4715   1.438   6.235  10.920  1.6652  0.4977 -0.9529
   61SAPC  H14C 4716   1.374   6.120  10.798  0.6959  1.1862 -2.4976
   61SAPC   C15 4717   1.189   6.346  10.967  0.8437 -0.0547  0.1474
   61SAPC  H15A 4718   1.252   6.362  11.053 -0.6702  0.5693  1.1559
   61SAPC  H15B 4719   1.202   6.422  10.891  1.1409  0.7440  0.9823
   61SAPC  H15C 4720   1.091   6.355  11.012  1.2023  1.2608  0.6811
   61SAPC   C11 4721   0.977   6.116  10.885  0.6549  0.8890 -1.2844
   61SAPC  H11A 4722   0.904   6.078  10.810  0.1001 -2.0411  0.6756
   61SAPC  H11B 4723   0.917   6.196  10.934  2.3492  1.0832  0.5428
   61SAPC     P 4724   1.021   5.858  10.945  0.1700  0.4280  0.3607
   61SAPC   O13 4725   1.118   5.805  11.045 -0.4124  0.3120 -0.0056
   61SAPC   O14 4726   0.888   5.795  10.944  0.2057 -0.1505  0.6608
   61SAPC   O12 4727   0.993   6.006  10.977  0.2549  0.1737  0.1114
   61SAPC   O11 4728   1.075   5.865  10.797 -0.8161  0.9072  0.8089
   61SAPC    C1 4729   0.992   5.818  10.685 -0.3372 -0.0179 -0.7548
   61SAPC    HA 4730   0.996   5.707  10.685  0.5202 -0.0056  0.5348
   61SAPC    HB 4731   0.889   5.859  10.688  0.4070  1.8707 -0.3020
   61SAPC    C2 4732   1.048   5.860  10.548 -0.1682 -0.2495  0.0418
   61SAPC    HS 4733   1.065   5.970  10.559 -2.0433  0.0666 -0.1170
   61SAPC   O21 4734   0.941   5.828  10.450 -0.3142 -0.3197 -0.1002
   61SAPC   C21 4735   0.925   5.921  10.350  0.2866 -0.6028 -0.1472
   61SAPC   O22 4736   0.996   6.022  10.333 -0.5811 -0.3688 -0.1499
   61SAPC   C22 4737   0.790   5.892  10.284 -0.1317 -0.4304  0.1264
   61SAPC   H2R 4738   0.711   5.916  10.359  2.4554  0.1148  2.8036
   61SAPC   H2S 4739   0.786   5.963  10.199 -1.8227  0.9211  1.2965
   61SAPC    C3 4740   1.182   5.792  10.512 -0.6067  0.0258 -0.0141
   61SAPC    HX 4741   1.168   5.691  10.469  1.1423  0.8531 -2.6448
   61SAPC    HY 4742   1.244   5.789  10.604 -0.7442  0.4839  0.0948
   61SAPC   O31 4743   1.252   5.883  10.422 -0.5877  0.3177  0.1149
   61SAPC   C31 4744   1.240   5.858  10.297  0.1638  0.7545 -0.0191
   61SAPC   O32 4745   1.176   5.763  10.248 -0.0188  0.9418 -0.6619
   61SAPC   C32 4746   1.297   5.981  10.220 -1.0824 -0.4330 -0.3053
   61SAPC   H2X 4747   1.406   5.971  10.239 -1.1068  0.4622  0.3583
   61SAPC   H2Y 4748   1.253   6.080  10.244  0.0324 -0.1054  0.4536
   61SAPC   C23 4749   0.790   5.741  10.240 -0.1622  0.2773 -0.3205
   61SAPC   H3R 4750   0.685   5.708  10.227 -0.1441 -0.1684  0.5590
   61SAPC   H3S 4751   0.810   5.672  10.325 -0.4363 -0.8455 -1.1635
   61SAPC   C24 4752   0.858   5.708  10.105  0.4058  0.8428 -0.6634
   61SAPC   H4R 4753   0.869   5.598  10.094 -0.3203  0.4782  2.0957
   61SAPC   H4S 4754   0.958   5.754  10.089  0.2133  1.7186  0.6023
   61SAPC   C25 4755   0.767   5.762   9.986  0.6185 -0.4052  0.1684
   61SAPC   H5R 4756   0.682   5.819  10.026  0.3409 -1.0308  0.4951
   61SAPC   C26 4757   0.770   5.726   9.856  0.6581 -0.1446 -0.7574
   61SAPC   H6R 4758   0.706   5.783   9.786  1.9230  2.4134  0.1027
   61SAPC   C27 4759   0.865   5.624   9.800  0.8265 -0.3500  0.1336
   61SAPC   H7R 4760   0.812   5.549   9.738 -0.1940  0.6117 -0.1660
   61SAPC   H7S 4761   0.922   5.570   9.879  1.3120 -1.9739 -1.3057
   61SAPC   C28 4762   0.954   5.705   9.711 -0.2503  0.2185 -0.3069
   61SAPC   H8R 4763   1.033   5.758   9.767 -0.0990  0.4876 -0.7736
   61SAPC   C29 4764   0.956   5.700   9.580 -0.7201 -0.1753  0.0714
   61SAPC   H9R 4765   1.028   5.766   9.530 -1.0767 -0.9573 -1.5313
   61SAPC  C210 4766   0.863   5.613   9.489 -0.7994  0.2924  0.0801
   61SAPC  H10R 4767   0.842   5.668   9.395 -1.9313 -1.0783 -0.4911
   61SAPC  H10S 4768   0.766   5.612   9.543 -0.8876 -0.3605 -0.0881
   61SAPC  C211 4769   0.922   5.471   9.474  0.5983  0.0221  0.1735
   61SAPC  H11R 4770   0.979   5.444   9.564 -0.0633  1.6412  1.0883
   61SAPC  C212 4771   0.895   5.380   9.384  0.1231  0.6733 -0.3462
   61SAPC  H12R 4772   0.936   5.279   9.390  1.5272  1.2929  0.7265
   61SAPC  C213 4773   0.801   5.398   9.262  0.0943 -0.4571  0.0812
   61SAPC  H13R 4774   0.718   5.470   9.279  0.5874  0.4406 -1.2553
   61SAPC  H13S 4775   0.748   5.306   9.229 -1.2194 -0.2110  1.4481
   61SAPC  C214 4776   0.882   5.456   9.148 -0.3862  0.2279 -0.3157
   61SAPC  H14R 4777   0.920   5.556   9.172  1.9437 -0.7447  0.2202
   61SAPC  C215 4778   0.911   5.402   9.027 -0.0287 -0.1467  1.1596
   61SAPC  H15R 4779   0.974   5.456   8.955 -1.3620 -2.1712 -1.6223
   61SAPC  C216 4780   0.874   5.265   8.988  0.3493  0.4673  0.6787
   61SAPC  H16R 4781   0.832   5.204   9.071 -0.4218  1.3224  0.9246
   61SAPC  H16S 4782   0.969   5.214   8.960 -0.3095 -0.3117 -0.1822
   61SAPC  C217 4783   0.784   5.263   8.868 -0.7218 -0.2212 -0.8556
   61SAPC  H17R 4784   0.826   5.320   8.782  1.2594 -1.0843 -0.4861
   61SAPC  H17S 4785   0.684   5.305   8.894  0.0541  1.5531 -0.6168
   61SAPC  C218 4786   0.760   5.123   8.817  0.3842  0.0684 -0.2794
   61SAPC  H18R 4787   0.675   5.134   8.747 -0.0153 -0.5675  0.0978
   61SAPC  H18S 4788   0.740   5.049   8.898 -0.2482  1.0363  0.4517
   61SAPC  C219 4789   0.875   5.066   8.743 -0.0966  0.0447  0.3278
   61SAPC  H19R 4790   0.959   5.032   8.808  0.6573  1.1695 -0.0476
   61SAPC  H19S 4791   0.918   5.133   8.666 -1.1314  1.3290  0.8345
   61SAPC  C220 4792   0.840   4.932   8.671 -0.3331  0.3624 -0.2205
   61SAPC  H20R 4793   0.925   4.861   8.658  0.1001  0.8540 -0.0869
   61SAPC  H20S 4794   0.804   4.965   8.571  0.7120 -1.0044 -1.0649
   61SAPC  H20T 4795   0.751   4.890   8.723  0.2127 -0.0549  0.3894
   61SAPC   C33 4796   1.278   5.956  10.070  0.6558 -0.4157  0.5748
   61SAPC   H3X 4797   1.170   5.957  10.041  1.3051  2.3926 -1.9350
   61SAPC   H3Y 4798   1.326   5.860  10.041  2.0685  0.5359 -0.2540
   61SAPC   C34 4799   1.351   6.066   9.987  0.9487 -0.2297  0.5155
   61SAPC   H4X 4800   1.455   6.080  10.024  1.8439  0.8534 -2.2857
   61SAPC   H4Y 4801   1.307   6.166  10.007  1.1384  0.2656 -1.4356
   61SAPC   C35 4802   1.346   6.022   9.837  0.0159 -0.4369  0.1362
   61SAPC   H5X 4803   1.239   6.013   9.806  0.1563 -2.1820  0.0905
   61SAPC   H5Y 4804   1.397   5.926   9.815  1.3153 -0.2017  2.0260
   61SAPC   C36 4805   1.427   6.109   9.739 -0.7290  0.0534  0.2004
   61SAPC   H6X 4806   1.527   6.136   9.779 -0.7839  0.4377  0.0776
   61SAPC   H6Y 4807   1.376   6.206   9.720  0.8903  1.1403  1.2517
   61SAPC   C37 4808   1.437   6.043   9.603  0.1816  0.1712 -0.4106
   61SAPC   H7X 4809   1.476   5.941   9.622  1.2016  0.8592  1.3169
   61SAPC   H7Y 4810   1.512   6.095   9.539  1.4777 -0.4322  0.5793
   61SAPC   C38 4811   1.304   6.036   9.521  0.4894  0.2082  0.2051
   61SAPC   H8X 4812   1.264   6.139   9.506  1.1023  0.4163 -0.0288
   61SAPC   H8Y 4813   1.228   5.976   9.575  0.7249 -0.5798 -0.3347
   61SAPC   C39 4814   1.325   5.965   9.386 -0.6867 -0.0845  0.3540
   61SAPC   H9X 4815   1.356   5.863   9.416  1.3626  0.7111  1.0910
   61SAPC   H9Y 4816   1.409   6.023   9.342 -2.0111  0.7495 -1.1383
   61SAPC  C310 4817   1.209   5.957   9.295 -0.0013 -0.9390  0.0169
   61SAPC  H10X 4818   1.198   6.059   9.250 -2.9408 -0.5431  1.5195
   61SAPC  H10Y 4819   1.112   5.932   9.343  0.5194 -1.0821  1.0122
   61SAPC  C311 4820   1.228   5.856   9.183 -0.2212  0.0458 -0.0325
   61SAPC  H11X 4821   1.205   5.754   9.221 -3.5994  0.9949  0.6293
   61SAPC  H11Y 4822   1.327   5.855   9.132  0.5697  1.8107  1.3999
   61SAPC  C312 4823   1.118   5.865   9.072  0.0627  0.0149 -0.3916
   61SAPC  H12X 4824   1.110   5.963   9.020 -0.7097 -0.3326 -0.9299
   61SAPC  H12Y 4825   1.021   5.846   9.121  0.4073  0.1557  0.3594
   61SAPC  C313 4826   1.141   5.760   8.959  0.5550 -0.0123  0.0574
   61SAPC  H13X 4827   1.162   5.656   8.993  3.2848  0.6622  0.5602
   61SAPC  H13Y 4828   1.226   5.803   8.902 -0.9215 -0.5535 -2.6365
   61SAPC  C314 4829   1.020   5.753   8.855 -0.2958  0.0147 -0.2404
   61SAPC  H14X 4830   0.927   5.774   8.912 -0.9166 -0.8266 -0.9277
   61SAPC  H14Y 4831   1.014   5.647   8.821  0.1777  1.0923 -3.9023
   61SAPC  C315 4832   1.033   5.857   8.745  0.3555 -0.2761 -0.6712
   61SAPC  H15X 4833   1.141   5.851   8.719  0.1545 -0.0592 -1.5754
   61SAPC  H15Y 4834   1.018   5.958   8.789  0.1167 -1.3939  1.8760
   61SAPC  C316 4835   0.953   5.832   8.618  0.2223 -0.1261 -0.6896
   61SAPC  H16X 4836   0.848   5.806   8.639  1.0392  0.5209  4.9913
   61SAPC  H16Y 4837   1.002   5.744   8.570  0.4199 -1.5168  1.9798
   61SAPC  C317 4838   0.956   5.962   8.528 -0.2350 -0.0548  0.3853
   61SAPC  H17X 4839   1.057   5.998   8.500  0.5822 -2.5378 -0.0340
   61SAPC  H17Y 4840   0.914   6.040   8.595  0.0249  1.0260 -0.6960
   61SAPC  C318 4841   0.863   5.963   8.409 -0.4021  0.4461  1.0449
   61SAPC  H18X 4842   0.921   5.918   8.325 -1.1328  0.4251  0.5428
   61SAPC  H18Y 4843   0.836   6.059   8.361 -0.5064 -0.3033 -0.4417
   61SAPC  H18Z 4844   0.771   5.902   8.425 -0.9673  1.1712  0.6006
   62SAPC     N 4845   0.198   4.932  11.069 -0.5272 -0.1623  0.2618
   62SAPC   C12 4846   0.140   4.978  10.939 -0.1291  0.0273 -0.0428
   62SAPC  H12A 4847   0.208   5.053  10.900 -0.3145  0.1161 -0.1948
   62SAPC  H12B 4848   0.043   5.022  10.955 -0.8221 -0.0152 -3.5745
   62SAPC   C13 4849   0.218   5.051  11.155  0.2945  0.5412  0.3293
   62SAPC  H13A 4850   0.133   5.115  11.174  0.5008  0.4055  1.7481
   62SAPC  H13B 4851   0.251   5.012  11.250  3.4934 -1.1799 -1.3896
   62SAPC  H13C 4852   0.306   5.111  11.133  0.7048 -0.2709 -0.2816
   62SAPC   C14 4853   0.100   4.840  11.139  0.1491 -0.0373 -0.5207
   62SAPC  H14A 4854   0.148   4.790  11.223  0.8280 -1.7273 -1.8796
   62SAPC  H14B 4855   0.019   4.905  11.168 -0.9737 -1.6478  0.0370
   62SAPC  H14C 4856   0.065   4.757  11.080 -2.1471  0.4204  0.1752
   62SAPC   C15 4857   0.327   4.870  11.047 -0.2657 -0.8080 -0.1031
   62SAPC  H15A 4858   0.369   4.841  11.142 -0.6328  0.6979  0.5390
   62SAPC  H15B 4859   0.330   4.785  10.980  0.1896  0.5620 -1.8885
   62SAPC  H15C 4860   0.389   4.947  11.003 -1.0215  0.7484  1.5039
   62SAPC   C11 4861   0.116   4.874  10.828  0.1937 -0.4219  0.3748
   62SAPC  H11A 4862   0.044   4.905  10.750 -0.7829 -1.8009  0.7014
   62SAPC  H11B 4863   0.079   4.780  10.875  0.8251 -0.2299  1.2837
   62SAPC     P 4864   0.295   4.935  10.654  0.0687 -0.3704  0.2586
   62SAPC   O13 4865   0.291   5.072  10.707  0.6194 -0.1768 -0.6116
   62SAPC   O14 4866   0.426   4.884  10.618  0.1616  0.7069 -0.6465
   62SAPC   O12 4867   0.234   4.835  10.763  0.0398 -0.1951 -0.4005
   62SAPC   O11 4868   0.195   4.924  10.535 -0.1534  0.3052  0.7380
   62SAPC    C1 4869   0.136   4.799  10.494  0.3072  0.2963  0.2403
   62SAPC    HA 4870   0.147   4.721  10.572  2.2970 -0.3922 -0.6771
   62SAPC    HB 4871   0.033   4.816  10.456  0.0990 -0.4256  0.4753
   62SAPC    C2 4872   0.206   4.739  10.362  0.0570 -0.2383  0.2206
   62SAPC    HS 4873   0.314   4.739  10.390 -0.1721  0.2592  1.1200
   62SAPC   O21 4874   0.179   4.817  10.244 -0.1447  0.4318 -0.1133
   62SAPC   C21 4875   0.286   4.860  10.178 -0.2742 -0.5161  0.1580
   62SAPC   O22 4876   0.401   4.863  10.221 -0.0274  0.9678 -0.0645
   62SAPC   C22 4877   0.233   4.926  10.051  0.0047  0.5234  0.6180
   62SAPC   H2R 4878   0.163   4.849  10.011  1.4206 -0.6272  0.3403
   62SAPC   H2S 4879   0.167   5.011  10.080 -1.4666 -0.2631 -0.3095
   62SAPC    C3 4880   0.157   4.591  10.341  0.5077 -0.3974  0.3291
   62SAPC    HX 4881   0.046   4.593  10.339  0.5067 -0.6309  0.0869
   62SAPC    HY 4882   0.184   4.524  10.426 -1.6966 -0.3854  1.0623
   62SAPC   O31 4883   0.209   4.556  10.213 -0.4390 -0.0216  0.0741
   62SAPC   C31 4884   0.146   4.462  10.151  0.0595 -0.9870 -0.4695
   62SAPC   O32 4885   0.060   4.389  10.201  0.7553 -0.1416  0.1219
   62SAPC   C32 4886   0.189   4.468  10.012 -0.5291  0.4248 -0.7680
   62SAPC   H2X 4887   0.300   4.470  10.016 -0.5454 -1.1169  2.9110
   62SAPC   H2Y 4888   0.166   4.561   9.956 -3.0592  1.4129  1.7965
   62SAPC   C23 4889   0.336   4.978   9.955  0.4642  0.0842 -0.4962
   62SAPC   H3R 4890   0.416   4.902   9.967 -0.4340 -0.8886 -0.6696
   62SAPC   H3S 4891   0.390   5.072   9.981  1.0350  0.1564 -1.9027
   62SAPC   C24 4892   0.287   4.996   9.811  0.9733 -0.2388  1.1244
   62SAPC   H4R 4893   0.224   5.086   9.793  1.8023  0.6255  2.4402
   62SAPC   H4S 4894   0.218   4.914   9.783 -1.0699  0.9952  2.3941
   62SAPC   C25 4895   0.402   4.994   9.706  0.6946  0.5413  0.2963
   62SAPC   H5R 4896   0.469   5.081   9.710  0.4153  0.6738  3.1978
   62SAPC   C26 4897   0.426   4.908   9.609 -0.0314  0.6170  0.5767
   62SAPC   H6R 4898   0.523   4.920   9.559  0.2930 -2.6172  0.3156
   62SAPC   C27 4899   0.343   4.783   9.568 -0.2568  0.4781 -0.2590
   62SAPC   H7R 4900   0.344   4.707   9.649 -0.4614  1.0063  0.2378
   62SAPC   H7S 4901   0.390   4.727   9.484  3.3426  0.4756  1.6776
   62SAPC   C28 4902   0.204   4.816   9.525 -0.1670  0.0603 -0.5382
   62SAPC   H8R 4903   0.138   4.809   9.612  2.2426  0.5847  1.3802
   62SAPC   C29 4904   0.153   4.838   9.401 -0.5049 -0.1479 -0.0693
   62SAPC   H9R 4905   0.044   4.853   9.391 -0.0686  1.9762 -1.9144
   62SAPC  C210 4906   0.236   4.846   9.267  0.4179 -0.0578 -0.5225
   62SAPC  H10R 4907   0.293   4.751   9.254  1.1317  0.1699  0.8675
   62SAPC  H10S 4908   0.314   4.926   9.271 -1.4918  1.8091 -0.0171
   62SAPC  C211 4909   0.149   4.888   9.146  0.4647  0.1974 -0.0094
   62SAPC  H11R 4910   0.112   4.991   9.155 -0.6246 -0.1501 -0.4734
   62SAPC  C212 4911   0.121   4.812   9.037  0.2464  0.1575 -0.1102
   62SAPC  H12R 4912   0.064   4.856   8.954  0.9223  2.3458  0.5620
   62SAPC  C213 4913   0.168   4.667   9.014 -0.4031  0.7431 -0.5367
   62SAPC  H13R 4914   0.155   4.600   9.102  1.3972 -0.1476 -0.9235
   62SAPC  H13S 4915   0.274   4.671   8.982 -0.5667 -1.8174 -1.5430
   62SAPC  C214 4916   0.097   4.593   8.904 -0.2234 -0.5011  0.0378
   62SAPC  H14R 4917   0.031   4.510   8.933 -2.1824  0.3098 -1.8309
   62SAPC  C215 4918   0.115   4.612   8.768  0.2469  0.1297 -0.5057
   62SAPC  H15R 4919   0.060   4.566   8.684  0.6234 -0.5316 -0.3971
   62SAPC  C216 4920   0.211   4.707   8.709  0.0124 -0.1507 -0.0653
   62SAPC  H16R 4921   0.223   4.799   8.770 -1.9802  0.2825 -0.2989
   62SAPC  H16S 4922   0.168   4.737   8.611 -0.6782  0.8803  0.5488
   62SAPC  C217 4923   0.358   4.661   8.692  0.3831 -1.0306 -0.1699
   62SAPC  H17R 4924   0.365   4.556   8.657  0.8016 -1.6356  1.6915
   62SAPC  H17S 4925   0.417   4.671   8.786  0.1364  1.7267 -0.2601
   62SAPC  C218 4926   0.427   4.730   8.571 -0.5744  0.3823  0.2982
   62SAPC  H18R 4927   0.356   4.732   8.485 -1.6073 -0.1890  1.1241
   62SAPC  H18S 4928   0.521   4.675   8.552 -1.4571 -0.2474 -2.5986
   62SAPC  C219 4929   0.477   4.876   8.584 -0.2334  0.3024 -0.0402
   62SAPC  H19R 4930   0.553   4.883   8.665 -0.3484  2.0521 -0.0698
   62SAPC  H19S 4931   0.388   4.940   8.607 -0.1522  0.8776 -1.2908
   62SAPC  C220 4932   0.555   4.919   8.454 -0.3711  0.1448  0.5036
   62SAPC  H20R 4933   0.479   4.914   8.373  0.5487 -1.7191 -0.2839
   62SAPC  H20S 4934   0.642   4.850   8.442 -0.6573 -0.4659  1.9440
   62SAPC  H20T 4935   0.603   5.019   8.461 -2.2392  1.0530  0.6272
   62SAPC   C33 4936   0.167   4.332   9.939  0.3844  0.7133 -0.0396
   62SAPC   H3X 4937   0.194   4.243  10.000 -2.0158 -0.2432 -0.3113
   62SAPC   H3Y 4938   0.232   4.337   9.849  0.1878  0.4484 -0.1970
   62SAPC   C34 4939   0.022   4.321   9.900  0.0073  0.4267  0.3350
   62SAPC   H4X 4940   0.005   4.413   9.839  0.3226 -0.3065 -0.8693
   62SAPC   H4Y 4941  -0.059   4.321   9.975  0.0201  1.1036  0.3497
   62SAPC   C35 4942  -0.019   4.204   9.802  0.0491 -0.4541  0.2327
   62SAPC   H5X 4943  -0.129   4.201   9.786  0.1795  1.8216 -1.3388
   62SAPC   H5Y 4944   0.012   4.110   9.853 -1.8122  0.1150  2.4676
   62SAPC   C36 4945   0.057   4.203   9.663 -0.0544  0.0892 -0.7896
   62SAPC   H6X 4946   0.161   4.189   9.698  0.3757  1.5756 -1.4391
   62SAPC   H6Y 4947   0.046   4.302   9.614 -0.8204 -0.8878 -2.6504
   62SAPC   C37 4948   0.016   4.089   9.567  0.2914  0.2426 -0.2978
   62SAPC   H7X 4949  -0.068   4.114   9.499 -0.6373  1.3886  1.2191
   62SAPC   H7Y 4950  -0.000   4.001   9.634  2.2076 -1.9351 -2.6004
   62SAPC   C38 4951   0.134   4.059   9.473 -0.1176 -0.0909 -0.2989
   62SAPC   H8X 4952   0.229   4.057   9.529 -0.3318 -1.4860  0.0241
   62SAPC   H8Y 4953   0.131   4.135   9.391  1.1914  2.0514  1.6077
   62SAPC   C39 4954   0.102   3.919   9.412  0.9002 -0.2452 -0.3105
   62SAPC   H9X 4955  -0.008   3.909   9.404  0.7419  2.0001 -1.4886
   62SAPC   H9Y 4956   0.135   3.838   9.480 -0.6870 -1.6094 -1.1270
   62SAPC  C310 4957   0.169   3.887   9.278 -0.0814 -0.0563  0.1882
   62SAPC  H10X 4958   0.276   3.912   9.296  0.2087 -2.6122  2.3745
   62SAPC  H10Y 4959   0.132   3.964   9.207 -1.0236 -0.1796  0.5357
   62SAPC  C311 4960   0.159   3.744   9.229  0.2874 -0.3782 -0.0587
   62SAPC  H11X 4961   0.055   3.730   9.191  0.0172  0.2640  0.4279
   62SAPC  H11Y 4962   0.162   3.667   9.310 -0.7310 -2.4601 -1.9410
   62SAPC  C312 4963   0.250   3.718   9.111  0.9906  0.1686  0.7770
   62SAPC  H12X 4964   0.332   3.646   9.134  0.9019 -0.0786  0.3222
   62SAPC  H12Y 4965   0.297   3.811   9.075  1.9371  0.4067  2.5773
   62SAPC  C313 4966   0.174   3.658   8.990 -0.2359  0.0030  0.5124
   62SAPC  H13X 4967   0.100   3.586   9.030 -0.7481 -1.1351 -2.3755
   62SAPC  H13Y 4968   0.226   3.582   8.926 -0.4138 -1.5200  2.1361
   62SAPC  C314 4969   0.105   3.756   8.898 -0.1125  0.2324  0.6372
   62SAPC  H14X 4970   0.186   3.792   8.832  0.5783 -1.6078  0.4564
   62SAPC  H14Y 4971   0.075   3.835   8.971 -1.1258  0.5532 -0.1183
   62SAPC  C315 4972  -0.003   3.689   8.814  0.3834  0.2265  0.2312
   62SAPC  H15X 4973  -0.071   3.766   8.772 -1.4946  1.1180  4.5867
   62SAPC  H15Y 4974  -0.069   3.639   8.889 -1.4986  0.1842 -1.4289
   62SAPC  C316 4975   0.060   3.599   8.709  0.2455 -0.5746 -0.7899
   62SAPC  H16X 4976   0.120   3.521   8.761 -3.8381 -3.1032  0.3877
   62SAPC  H16Y 4977   0.127   3.647   8.635 -0.3274  0.6675 -0.5074
   62SAPC  C317 4978  -0.052   3.533   8.624  0.2738  0.2245  0.1447
   62SAPC  H17X 4979  -0.115   3.618   8.588 -1.2389 -0.7070  0.5333
   62SAPC  H17Y 4980  -0.114   3.467   8.689  0.2819 -3.1696 -3.1474
   62SAPC  C318 4981  -0.003   3.452   8.503  1.0569 -0.5570  0.0078
   62SAPC  H18X 4982   0.090   3.396   8.526  0.8046  0.0268  2.5351
   62SAPC  H18Y 4983   0.019   3.515   8.414  0.8686  0.1687  0.4751
   62SAPC  H18Z 4984  -0.079   3.376   8.473 -0.2021  0.9370 -0.7206
   63SAPC     N 4985   5.812   3.047   6.107  0.7683 -0.0029  0.2828
   63SAPC   C12 4986   5.799   3.154   6.206 -0.2930  0.3090  0.4215
   63SAPC  H12A 4987   5.851   3.241   6.167 -1.3266 -0.2190 -2.2739
   63SAPC  H12B 4988   5.864   3.127   6.287  1.0816 -1.0627 -1.0863
   63SAPC   C13 4989   5.740   3.070   5.985 -0.4617 -0.4956  0.1882
   63SAPC  H13A 4990   5.777   3.154   5.929  0.6668  0.8356  2.8446
   63SAPC  H13B 4991   5.753   2.986   5.917 -2.2015 -0.3070 -0.4095
   63SAPC  H13C 4992   5.634   3.086   6.000 -0.7489 -1.3080 -0.8637
   63SAPC   C14 4993   5.962   3.032   6.072  0.5395 -0.5303 -0.4345
   63SAPC  H14A 4994   6.005   3.124   6.035  0.7125 -1.1818 -1.9065
   63SAPC  H14B 4995   6.026   2.987   6.146 -0.3185 -0.0860  0.5967
   63SAPC  H14C 4996   5.972   2.965   5.988 -0.8646  1.6332 -2.3925
   63SAPC   C15 4997   5.759   2.920   6.159  0.6662  0.1071 -0.8230
   63SAPC  H15A 4998   5.737   2.858   6.074 -1.2838 -0.7763  0.2822
   63SAPC  H15B 4999   5.813   2.867   6.236  1.1283 -0.5798 -1.6199
   63SAPC  H15C 5000   5.663   2.940   6.205  0.6111  2.4234 -1.8936
   63SAPC   C11 5001   5.658   3.199   6.258  0.0911  0.2550 -0.6117
   63SAPC  H11A 5002   5.594   3.225   6.172 -1.6320  3.3558  1.5130
   63SAPC  H11B 5003   5.658   3.295   6.314 -5.3849 -0.8706  1.6717
   63SAPC     P 5004   5.655   3.058   6.477  0.0617  0.0733 -0.3477
   63SAPC   O13 5005   5.665   2.910   6.482  0.5721 -0.2328 -0.1783
   63SAPC   O14 5006   5.773   3.141   6.506  0.3876 -0.5871  0.2980
   63SAPC   O12 5007   5.597   3.101   6.341  0.2033 -0.2910  0.5495
   63SAPC   O11 5008   5.544   3.105   6.583 -0.1667 -0.1524  0.6755
   63SAPC    C1 5009   5.462   3.223   6.571  0.2839  0.3758 -0.2760
   63SAPC    HA 5010   5.429   3.236   6.465  1.2642  0.2431 -0.6058
   63SAPC    HB 5011   5.366   3.200   6.620 -0.3079  1.0146 -1.1155
   63SAPC    C2 5012   5.514   3.351   6.632  1.0296 -0.2054  0.5876
   63SAPC    HS 5013   5.608   3.363   6.574  0.8032 -1.6472 -0.0874
   63SAPC   O21 5014   5.525   3.331   6.775  0.5525  0.2066 -0.1249
   63SAPC   C21 5015   5.619   3.401   6.836  0.4637  0.2669  0.0227
   63SAPC   O22 5016   5.697   3.476   6.775 -0.1845  0.1023  0.1887
   63SAPC   C22 5017   5.630   3.351   6.979 -0.2931  0.5525  0.2644
   63SAPC   H2R 5018   5.650   3.243   6.993 -0.4565  0.6373  1.2129
   63SAPC   H2S 5019   5.722   3.400   7.018 -1.2343  1.9302  0.8157
   63SAPC    C3 5020   5.419   3.469   6.606 -0.2565  0.3050 -0.0698
   63SAPC    HX 5021   5.333   3.446   6.673  0.1041 -0.5595  0.1128
   63SAPC    HY 5022   5.397   3.477   6.498  0.0891  1.6870 -0.0449
   63SAPC   O31 5023   5.458   3.599   6.656 -0.3735  0.3662 -0.0475
   63SAPC   C31 5024   5.553   3.667   6.585  0.8767 -0.3802 -0.0777
   63SAPC   O32 5025   5.612   3.626   6.489  0.1539 -0.2393 -0.2229
   63SAPC   C32 5026   5.574   3.806   6.652 -0.7869  0.3337  0.2517
   63SAPC   H2X 5027   5.472   3.849   6.643 -1.0403  0.1100  2.0041
   63SAPC   H2Y 5028   5.651   3.869   6.603  1.8132 -2.9156 -0.0434
   63SAPC   C23 5029   5.498   3.378   7.063 -0.2749  0.0219  0.4702
   63SAPC   H3R 5030   5.424   3.307   7.019  0.1983 -0.8703  1.1050
   63SAPC   H3S 5031   5.466   3.483   7.046  1.6852  0.6235  0.3454
   63SAPC   C24 5032   5.526   3.373   7.212  0.0929  0.1044 -0.3200
   63SAPC   H4R 5033   5.596   3.456   7.238 -0.1165  0.3011 -0.3745
   63SAPC   H4S 5034   5.583   3.280   7.233 -0.8368 -0.6389 -1.0293
   63SAPC   C25 5035   5.388   3.367   7.279  0.9538  0.7589 -0.4239
   63SAPC   H5R 5036   5.321   3.283   7.255  2.5022 -0.5197 -0.3536
   63SAPC   C26 5037   5.335   3.464   7.359  0.7097  0.6391 -0.1773
   63SAPC   H6R 5038   5.231   3.446   7.391  0.3766  1.7431 -0.6394
   63SAPC   C27 5039   5.408   3.589   7.409  0.7342 -0.8162 -0.5602
   63SAPC   H7R 5040   5.430   3.636   7.311 -2.0511  2.0919  0.1309
   63SAPC   H7S 5041   5.507   3.562   7.453 -0.5832 -0.4893  2.7898
   63SAPC   C28 5042   5.339   3.678   7.505  0.2950 -0.3895  0.0802
   63SAPC   H8R 5043   5.302   3.773   7.464  0.7289 -0.9628 -1.6707
   63SAPC   C29 5044   5.323   3.652   7.636 -0.2302  0.6563  0.3533
   63SAPC   H9R 5045   5.252   3.712   7.694 -0.9146  0.4801 -0.2909
   63SAPC  C210 5046   5.371   3.525   7.700 -0.5322 -0.0534 -0.0887
   63SAPC  H10R 5047   5.445   3.559   7.776  0.1100  1.0514 -1.2045
   63SAPC  H10S 5048   5.413   3.452   7.628 -1.4868 -0.7232  0.0080
   63SAPC  C211 5049   5.259   3.447   7.769 -0.6732  0.1361 -0.3945
   63SAPC  H11R 5050   5.190   3.402   7.697 -0.6518  0.3329 -0.5386
   63SAPC  C212 5051   5.249   3.429   7.898  0.3266 -0.0698 -0.2692
   63SAPC  H12R 5052   5.166   3.365   7.932  0.6894 -0.2096  0.3720
   63SAPC  C213 5053   5.336   3.492   8.007  0.0094  0.0928  0.0237
   63SAPC  H13R 5054   5.316   3.599   8.033  1.2794  0.5500 -0.8500
   63SAPC  H13S 5055   5.441   3.499   7.970 -0.6985  1.5376 -1.7933
   63SAPC  C214 5056   5.336   3.407   8.132  0.3869  0.2358  0.4218
   63SAPC  H14R 5057   5.434   3.364   8.159 -0.6410 -1.3709  1.7221
   63SAPC  C215 5058   5.239   3.383   8.222  0.3584 -0.1813  0.9358
   63SAPC  H15R 5059   5.258   3.312   8.304 -2.0882 -1.8129  0.1539
   63SAPC  C216 5060   5.092   3.418   8.210  0.0467 -0.9795 -0.1976
   63SAPC  H16R 5061   5.070   3.490   8.129 -0.8686  2.0857  2.6847
   63SAPC  H16S 5062   5.053   3.458   8.306 -2.5265 -0.3633 -1.4490
   63SAPC  C217 5063   4.997   3.292   8.197  0.3339 -0.0560  0.1797
   63SAPC  H17R 5064   4.904   3.313   8.140 -0.0724 -2.0994  0.0484
   63SAPC  H17S 5065   4.969   3.251   8.296  1.6578  0.0666  0.6088
   63SAPC  C218 5066   5.053   3.164   8.135  0.4851  0.3780  0.0619
   63SAPC  H18R 5067   5.105   3.114   8.220  1.0242  0.0219 -0.4655
   63SAPC  H18S 5068   5.121   3.192   8.052  0.2166 -0.0006 -0.2869
   63SAPC  C219 5069   4.948   3.084   8.063  0.3559  0.0964 -0.3463
   63SAPC  H19R 5070   5.003   3.001   8.013  1.1146  0.6415 -0.4311
   63SAPC  H19S 5071   4.893   3.142   7.986 -0.2816  0.1083  0.1116
   63SAPC  C220 5072   4.845   3.017   8.151 -0.6367  0.0557 -0.8150
   63SAPC  H20R 5073   4.777   2.942   8.106 -1.4392  0.0820  0.3408
   63SAPC  H20S 5074   4.772   3.094   8.184  0.4817  0.8354 -0.1064
   63SAPC  H20T 5075   4.898   2.967   8.235  1.2609  2.4239 -0.5562
   63SAPC   C33 5076   5.600   3.788   6.804  0.5959 -0.2878  0.0318
   63SAPC   H3X 5077   5.697   3.738   6.823  0.5424 -0.7828 -0.9700
   63SAPC   H3Y 5078   5.520   3.738   6.863  0.8223 -0.5123  0.1476
   63SAPC   C34 5079   5.617   3.923   6.874 -0.5678 -0.0851 -0.5576
   63SAPC   H4X 5080   5.518   3.973   6.871 -0.3919  0.3027  0.1647
   63SAPC   H4Y 5081   5.681   3.986   6.810 -0.7445  2.0062  1.2875
   63SAPC   C35 5082   5.687   3.909   7.010 -0.1215 -0.2107 -0.0849
   63SAPC   H5X 5083   5.797   3.897   7.003 -0.3077 -2.3695  0.4143
   63SAPC   H5Y 5084   5.645   3.817   7.057 -0.4869  1.2736  2.5861
   63SAPC   C36 5085   5.665   4.038   7.093  0.4311 -0.0243  0.0619
   63SAPC   H6X 5086   5.554   4.049   7.095  0.0478 -3.1382 -1.0074
   63SAPC   H6Y 5087   5.715   4.125   7.045 -1.3775  1.1253  0.2129
   63SAPC   C37 5088   5.720   4.014   7.239  0.3041  0.1695  0.0439
   63SAPC   H7X 5089   5.713   4.114   7.287 -1.3933  0.5460 -0.9459
   63SAPC   H7Y 5090   5.828   3.988   7.243  1.0922  3.1776 -1.0452
   63SAPC   C38 5091   5.644   3.915   7.330  0.5691  0.1652 -0.6965
   63SAPC   H8X 5092   5.664   3.809   7.304 -0.6589 -0.5317  1.0591
   63SAPC   H8Y 5093   5.535   3.931   7.312  0.0498 -3.2444 -0.9077
   63SAPC   C39 5094   5.690   3.939   7.476 -0.4772  0.4915 -0.1550
   63SAPC   H9X 5095   5.678   4.045   7.509 -3.0348  0.2619 -0.2655
   63SAPC   H9Y 5096   5.794   3.901   7.477 -0.1369  1.3900 -1.0372
   63SAPC  C310 5097   5.606   3.864   7.591  0.0036  0.2847 -0.6253
   63SAPC  H10X 5098   5.606   3.757   7.561  2.7449  0.2744 -0.7470
   63SAPC  H10Y 5099   5.507   3.915   7.590 -1.0693 -1.5544  2.6918
   63SAPC  C311 5100   5.671   3.871   7.730  0.0523 -0.3272 -0.3499
   63SAPC  H11X 5101   5.712   3.973   7.746  0.5883 -0.6345  0.2478
   63SAPC  H11Y 5102   5.760   3.804   7.733 -1.0244 -1.7440  2.0520
   63SAPC  C312 5103   5.564   3.836   7.836 -0.1565 -0.7044 -1.0999
   63SAPC  H12X 5104   5.525   3.736   7.809  0.2041 -1.8497  2.3947
   63SAPC  H12Y 5105   5.471   3.897   7.832 -0.9414 -1.7431  0.6216
   63SAPC  C313 5106   5.611   3.837   7.983 -0.1817 -0.0402  0.1983
   63SAPC  H13X 5107   5.701   3.773   7.992 -0.4071 -0.3656  0.1597
   63SAPC  H13Y 5108   5.536   3.787   8.047 -0.8042  1.2786  0.5002
   63SAPC  C314 5109   5.629   3.975   8.043 -0.1796  0.8150 -0.7442
   63SAPC  H14X 5110   5.531   4.025   8.057  0.5712  1.3956  2.8649
   63SAPC  H14Y 5111   5.684   4.042   7.973 -1.9061  0.8631 -2.0697
   63SAPC  C315 5112   5.701   3.965   8.177 -0.0975 -0.5950 -0.1682
   63SAPC  H15X 5113   5.800   3.916   8.173 -0.3996 -1.4981  2.6282
   63SAPC  H15Y 5114   5.640   3.904   8.248 -0.7578 -2.0381 -1.9270
   63SAPC  C316 5115   5.727   4.098   8.238  0.0627 -1.0560  0.5214
   63SAPC  H16X 5116   5.627   4.131   8.272  1.3341  0.8601  2.5158
   63SAPC  H16Y 5117   5.775   4.170   8.170 -0.3429  0.6836  2.0458
   63SAPC  C317 5118   5.789   4.075   8.380 -0.1916  0.5539 -0.4391
   63SAPC  H17X 5119   5.898   4.056   8.369 -0.7953 -3.4316 -0.3590
   63SAPC  H17Y 5120   5.734   3.987   8.419  1.9409 -0.5013  0.2906
   63SAPC  C318 5121   5.758   4.190   8.480  0.0804  0.6376 -0.2407
   63SAPC  H18X 5122   5.814   4.171   8.573  1.6718 -0.0158 -1.3134
   63SAPC  H18Y 5123   5.648   4.202   8.493  0.1932  0.1833  1.1547
   63SAPC  H18Z 5124   5.794   4.287   8.439  1.5855  0.4277  0.5786
   64SAPC     N 5125   1.032   4.034   6.204  0.1130 -0.0689  0.2751
   64SAPC   C12 5126   0.895   4.089   6.213  0.0039 -0.1833  0.1386
   64SAPC  H12A 5127   0.860   4.150   6.130 -1.6422  0.7173  1.4519
   64SAPC  H12B 5128   0.898   4.160   6.294 -0.0122 -2.0463  1.7987
   64SAPC   C13 5129   1.062   3.977   6.070  0.9666 -0.1015  0.1805
   64SAPC  H13A 5130   0.985   3.906   6.044 -0.4942  0.8985  1.6864
   64SAPC  H13B 5131   1.050   4.054   5.995 -1.1391  0.1854  0.7728
   64SAPC  H13C 5132   1.157   3.927   6.058  0.8372 -0.0394 -1.1776
   64SAPC   C14 5133   1.128   4.141   6.216 -0.1343 -0.0589 -0.2035
   64SAPC  H14A 5134   1.101   4.220   6.147 -0.4442 -0.4675 -0.5464
   64SAPC  H14B 5135   1.151   4.183   6.313  0.0011  0.9073 -0.6398
   64SAPC  H14C 5136   1.226   4.113   6.178  0.3582  0.3669  0.7248
   64SAPC   C15 5137   1.059   3.934   6.313 -0.4217  0.8722 -0.0586
   64SAPC  H15A 5138   0.986   3.855   6.302  0.2475  0.3982 -1.1452
   64SAPC  H15B 5139   1.160   3.896   6.311 -0.6476  0.2209  0.5439
   64SAPC  H15C 5140   1.042   3.977   6.411  1.2160  0.9524  0.2096
   64SAPC   C11 5141   0.787   3.983   6.239 -0.2558 -0.5668 -0.0371
   64SAPC  H11A 5142   0.687   4.030   6.252 -0.5389 -1.0273 -0.5300
   64SAPC  H11B 5143   0.803   3.930   6.336  1.1257  2.1892  1.2833
   64SAPC     P 5144   0.763   3.739   6.144 -0.0088  0.0889 -0.0201
   64SAPC   O13 5145   0.641   3.688   6.076  0.1213 -0.1791 -0.1037
   64SAPC   O14 5146   0.892   3.694   6.087  0.6098  0.3554  0.3089
   64SAPC   O12 5147   0.765   3.889   6.135  0.1435 -0.1579 -0.3287
   64SAPC   O11 5148   0.755   3.696   6.300  0.6398  0.3157  0.2170
   64SAPC    C1 5149   0.625   3.689   6.365 -0.4226 -0.3313  0.1183
   64SAPC    HA 5150   0.538   3.717   6.301  0.0453 -2.2243 -1.3554
   64SAPC    HB 5151   0.593   3.586   6.392 -0.3412 -0.2380  0.5784
   64SAPC    C2 5152   0.624   3.768   6.495  0.4373  0.0856  0.3694
   64SAPC    HS 5153   0.679   3.863   6.474 -0.6513  0.2499 -1.9037
   64SAPC   O21 5154   0.695   3.689   6.595  0.4804 -0.6002  0.1741
   64SAPC   C21 5155   0.808   3.737   6.637  0.0884 -0.6040 -0.3590
   64SAPC   O22 5156   0.864   3.839   6.600  0.1128 -0.7072  0.1097
   64SAPC   C22 5157   0.867   3.653   6.756  0.5935 -1.0689 -0.1063
   64SAPC   H2R 5158   0.804   3.566   6.785  0.7543 -0.8798  0.7984
   64SAPC   H2S 5159   0.971   3.623   6.730  0.7451 -0.4418 -0.2334
   64SAPC    C3 5160   0.485   3.819   6.540  0.7264 -0.1829 -0.1002
   64SAPC    HX 5161   0.433   3.730   6.579  0.1961  0.0343 -0.3169
   64SAPC    HY 5162   0.431   3.869   6.457  2.2492  0.0285 -0.9970
   64SAPC   O31 5163   0.506   3.902   6.657  0.2945  0.3031 -0.7478
   64SAPC   C31 5164   0.536   4.029   6.632  0.2761 -0.3975 -0.0327
   64SAPC   O32 5165   0.543   4.073   6.519  0.2225 -0.2537 -0.2378
   64SAPC   C32 5166   0.545   4.104   6.765  0.2550 -0.5904 -0.1165
   64SAPC   H2X 5167   0.445   4.136   6.799  1.1269  2.3713 -0.1921
   64SAPC   H2Y 5168   0.610   4.192   6.745 -0.5558 -0.1486 -0.8020
   64SAPC   C23 5169   0.878   3.751   6.886  0.4773  0.5976  0.6198
   64SAPC   H3R 5170   0.772   3.767   6.915  0.7781 -0.1885  2.1766
   64SAPC   H3S 5171   0.919   3.849   6.856 -1.3133  1.1622 -0.1058
   64SAPC   C24 5172   0.964   3.686   6.995  0.2654  0.2147  0.1324
   64SAPC   H4R 5173   0.996   3.760   7.072 -1.3606  0.5994  0.4580
   64SAPC   H4S 5174   1.059   3.651   6.950  1.5188  2.0377  1.2652
   64SAPC   C25 5175   0.904   3.555   7.048 -0.2889 -0.6126  0.0537
   64SAPC   H5R 5176   0.925   3.459   6.998  0.6712  0.7012 -2.1555
   64SAPC   C26 5177   0.834   3.545   7.162 -0.0411 -0.0214 -0.2097
   64SAPC   H6R 5178   0.815   3.446   7.206  0.4463  0.5115  1.2110
   64SAPC   C27 5179   0.797   3.656   7.256 -0.4190  0.1014  0.3862
   64SAPC   H7R 5180   0.814   3.752   7.203  3.3700 -2.8341 -4.1534
   64SAPC   H7S 5181   0.876   3.647   7.334 -1.4584 -0.7139  1.3647
   64SAPC   C28 5182   0.659   3.660   7.315  0.5707 -0.5843 -0.0574
   64SAPC   H8R 5183   0.591   3.728   7.261  0.7675 -0.3772 -0.0460
   64SAPC   C29 5184   0.610   3.601   7.428 -0.0276  0.0146  0.3827
   64SAPC   H9R 5185   0.504   3.607   7.455 -0.3843 -0.2902 -0.8797
   64SAPC  C210 5186   0.695   3.520   7.526 -0.4521 -0.9649  0.3081
   64SAPC  H10R 5187   0.800   3.552   7.513 -1.2756  1.1279 -1.4737
   64SAPC  H10S 5188   0.688   3.410   7.508 -1.2282 -1.3688  2.8980
   64SAPC  C211 5189   0.649   3.530   7.671  0.4085  0.1223 -0.3007
   64SAPC  H11R 5190   0.547   3.569   7.676 -0.1222 -0.9901 -2.1278
   64SAPC  C212 5191   0.725   3.505   7.778 -0.0390 -0.5675  0.1363
   64SAPC  H12R 5192   0.672   3.506   7.875  0.4685  1.2421  0.4227
   64SAPC  C213 5193   0.867   3.451   7.777 -0.3665 -0.1403 -0.1069
   64SAPC  H13R 5194   0.930   3.542   7.789 -0.4133  0.2874 -2.6534
   64SAPC  H13S 5195   0.906   3.430   7.674  1.2660 -0.4029  0.5471
   64SAPC  C214 5196   0.900   3.360   7.893 -0.6625 -0.7589 -0.6309
   64SAPC  H14R 5197   0.912   3.256   7.858  0.9802 -0.6843 -0.3410
   64SAPC  C215 5198   0.918   3.397   8.025  0.5500 -0.2070 -0.4572
   64SAPC  H15R 5199   0.925   3.315   8.099  0.1631  0.8883  0.8206
   64SAPC  C216 5200   0.907   3.538   8.085  0.1975  0.6725 -0.3799
   64SAPC  H16R 5201   0.815   3.588   8.047  0.1602  0.1565 -0.9865
   64SAPC  H16S 5202   0.993   3.601   8.056  0.3357  0.9863  0.7025
   64SAPC  C217 5203   0.899   3.551   8.244  0.3328 -0.3059 -0.0006
   64SAPC  H17R 5204   0.813   3.499   8.292 -1.3520  1.9369 -0.5363
   64SAPC  H17S 5205   0.899   3.657   8.276 -0.3173 -0.4801  0.5950
   64SAPC  C218 5206   1.028   3.503   8.313 -0.4525  0.4289  0.2667
   64SAPC  H18R 5207   1.113   3.570   8.288 -0.5716  0.8388  0.9390
   64SAPC  H18S 5208   1.052   3.405   8.268 -1.9738  0.9953 -1.8976
   64SAPC  C219 5209   1.026   3.505   8.469 -0.7419 -0.2219 -0.6387
   64SAPC  H19R 5210   1.106   3.446   8.519 -0.9712  0.3464  0.3892
   64SAPC  H19S 5211   0.933   3.461   8.510 -1.5261  0.9920 -1.1109
   64SAPC  C220 5212   1.045   3.646   8.531  0.6219 -0.5789 -0.2702
   64SAPC  H20R 5213   1.037   3.644   8.642 -0.7803  1.2475 -0.3100
   64SAPC  H20S 5214   0.965   3.711   8.490  0.7960  0.2723  0.7091
   64SAPC  H20T 5215   1.137   3.698   8.496 -0.3765 -0.4535 -2.8308
   64SAPC   C33 5216   0.614   4.029   6.881  0.0512  0.7240  0.8219
   64SAPC   H3X 5217   0.721   4.006   6.859 -0.4462  0.4234 -1.4086
   64SAPC   H3Y 5218   0.569   3.929   6.898 -1.2404  1.1790  0.1481
   64SAPC   C34 5219   0.603   4.103   7.018  0.1164  0.5263  0.1109
   64SAPC   H4X 5220   0.557   4.204   7.017 -1.4285 -0.1540  0.5030
   64SAPC   H4Y 5221   0.711   4.125   7.030  0.8711 -2.0045 -1.7031
   64SAPC   C35 5222   0.528   4.025   7.130 -0.0043 -0.2807 -0.0322
   64SAPC   H5X 5223   0.575   3.925   7.145 -0.1234 -0.5969 -1.6961
   64SAPC   H5Y 5224   0.423   3.999   7.107  0.0056 -0.1101 -0.2678
   64SAPC   C36 5225   0.533   4.100   7.272  0.2005  0.3030 -0.3190
   64SAPC   H6X 5226   0.474   4.194   7.264  0.1344  0.2952  0.0633
   64SAPC   H6Y 5227   0.639   4.111   7.301  0.1793 -0.5038  0.0885
   64SAPC   C37 5228   0.458   4.012   7.380 -1.2816  0.1358  1.1579
   64SAPC   H7X 5229   0.480   3.908   7.347  2.7746  1.1106  0.5121
   64SAPC   H7Y 5230   0.349   4.033   7.380 -0.8325  2.9059 -1.5995
   64SAPC   C38 5231   0.520   4.016   7.522 -0.1747 -0.4718  0.1003
   64SAPC   H8X 5232   0.532   4.118   7.564 -0.7328  0.7379 -2.6114
   64SAPC   H8Y 5233   0.620   3.966   7.519  1.0088  1.7945  0.9612
   64SAPC   C39 5234   0.435   3.933   7.624 -0.6861  0.3898 -0.4159
   64SAPC   H9X 5235   0.513   3.922   7.703 -0.3371  1.3826 -0.6177
   64SAPC   H9Y 5236   0.398   3.836   7.587 -1.7434  1.1115 -1.2619
   64SAPC  C310 5237   0.325   4.022   7.687  0.4441 -0.3482 -0.0283
   64SAPC  H10X 5238   0.266   4.047   7.597  1.5734 -1.5763 -1.1355
   64SAPC  H10Y 5239   0.363   4.119   7.725 -1.3701  0.7672 -1.0349
   64SAPC  C311 5240   0.228   3.958   7.791 -0.1471 -0.2335  0.5397
   64SAPC  H11X 5241   0.182   3.867   7.746  3.1226 -1.2577 -0.9203
   64SAPC  H11Y 5242   0.145   4.029   7.813  0.1079  0.0762  0.4969
   64SAPC  C312 5243   0.301   3.934   7.924 -0.6144  0.1336  0.3961
   64SAPC  H12X 5244   0.358   4.020   7.966 -2.7363  2.1640 -0.8234
   64SAPC  H12Y 5245   0.380   3.856   7.915 -0.3424  0.4514  0.0110
   64SAPC  C313 5246   0.217   3.881   8.038 -0.0365  0.6092 -0.0292
   64SAPC  H13X 5247   0.152   3.805   7.991 -0.2387  1.1121 -0.5646
   64SAPC  H13Y 5248   0.161   3.968   8.080  1.0851  1.7138 -0.7916
   64SAPC  C314 5249   0.305   3.810   8.142 -0.6925  0.1283  0.1571
   64SAPC  H14X 5250   0.384   3.882   8.172 -0.3608  0.0085 -0.4133
   64SAPC  H14Y 5251   0.365   3.729   8.094  3.8645  2.9537  0.7522
   64SAPC  C315 5252   0.224   3.736   8.255  0.1672 -0.2983 -1.3973
   64SAPC  H15X 5253   0.207   3.637   8.208 -0.8509 -1.3003  1.0124
   64SAPC  H15Y 5254   0.133   3.795   8.279 -0.6195 -2.0452  0.0434
   64SAPC  C316 5255   0.314   3.726   8.384 -0.3136 -0.1096  0.9466
   64SAPC  H16X 5256   0.416   3.703   8.345 -0.5450 -0.1468  0.3621
   64SAPC  H16Y 5257   0.266   3.650   8.449  0.3052 -1.3351  0.0035
   64SAPC  C317 5258   0.340   3.854   8.465  0.0123  0.5015  0.1014
   64SAPC  H17X 5259   0.249   3.852   8.528  0.1985  0.2093  0.3666
   64SAPC  H17Y 5260   0.349   3.932   8.387  1.7353 -1.0550 -1.3034
   64SAPC  C318 5261   0.463   3.846   8.557 -0.5896  0.0223 -0.2561
   64SAPC  H18X 5262   0.483   3.948   8.599  0.6975  0.2535 -1.4058
   64SAPC  H18Y 5263   0.556   3.818   8.504 -2.4501 -1.4372 -2.8537
   64SAPC  H18Z 5264   0.453   3.772   8.639  0.7906 -1.8430 -1.7521
   65SAPC     N 5265   1.378   5.611   6.330 -0.2198  0.4363 -0.0351
   65SAPC   C12 5266   1.428   5.518   6.222  0.7478  0.0750  0.1695
   65SAPC  H12A 5267   1.520   5.466   6.247  1.1371  0.0796 -1.2056
   65SAPC  H12B 5268   1.459   5.570   6.133  1.3308 -0.8918 -0.2072
   65SAPC   C13 5269   1.280   5.715   6.279 -0.0416 -0.1929  0.0430
   65SAPC  H13A 5270   1.201   5.663   6.227  0.1797 -0.0021 -0.4953
   65SAPC  H13B 5271   1.230   5.773   6.355  0.5526 -2.2557  2.0679
   65SAPC  H13C 5272   1.330   5.789   6.218 -0.7449 -0.4284 -0.8393
   65SAPC   C14 5273   1.320   5.539   6.449 -0.1624  0.6241 -0.6441
   65SAPC  H14A 5274   1.277   5.611   6.516 -2.9170 -0.6222 -1.0100
   65SAPC  H14B 5275   1.253   5.460   6.418 -0.2611  0.6706 -0.5433
   65SAPC  H14C 5276   1.400   5.495   6.507 -0.3694 -1.7185 -2.0690
   65SAPC   C15 5277   1.505   5.679   6.379 -0.7442  0.0607 -0.0184
   65SAPC  H15A 5278   1.571   5.604   6.422 -0.6417 -0.1969 -0.6151
   65SAPC  H15B 5279   1.560   5.723   6.297 -0.0968 -0.1963  0.2761
   65SAPC  H15C 5280   1.487   5.752   6.456  2.2164  0.3454  0.4832
   65SAPC   C11 5281   1.336   5.406   6.173 -0.4986  0.2906  0.1270
   65SAPC  H11A 5282   1.389   5.351   6.092  1.0557 -0.3720  1.5458
   65SAPC  H11B 5283   1.252   5.459   6.125 -0.6665 -0.8992 -0.9106
   65SAPC     P 5284   1.397   5.201   6.314  0.0960 -0.1403  0.0076
   65SAPC   O13 5285   1.412   5.107   6.199 -0.1949 -0.0581 -0.5144
   65SAPC   O14 5286   1.513   5.271   6.365 -0.3442  0.8176 -0.5987
   65SAPC   O12 5287   1.295   5.314   6.271  0.2888  0.0418 -0.0714
   65SAPC   O11 5288   1.327   5.128   6.441  0.0493  0.2359  0.1255
   65SAPC    C1 5289   1.184   5.095   6.447 -0.2305 -0.2471 -0.3219
   65SAPC    HA 5290   1.145   5.077   6.344 -0.9211 -1.4929  0.1455
   65SAPC    HB 5291   1.169   4.998   6.499  0.5224 -0.8281 -1.1594
   65SAPC    C2 5292   1.124   5.202   6.542  0.3972 -0.6544  0.2073
   65SAPC    HS 5293   1.114   5.293   6.479  1.2658 -0.6371  0.0820
   65SAPC   O21 5294   1.196   5.207   6.668 -0.1102  0.5459  0.1308
   65SAPC   C21 5295   1.197   5.329   6.728 -0.0687 -0.1478  0.1676
   65SAPC   O22 5296   1.151   5.429   6.683  0.5606 -0.1845  0.8253
   65SAPC   C22 5297   1.259   5.307   6.863 -0.0778  0.2240 -0.1819
   65SAPC   H2R 5298   1.357   5.257   6.848  1.3397  2.6186  0.7130
   65SAPC   H2S 5299   1.273   5.410   6.904  2.9900  1.0243 -3.0327
   65SAPC    C3 5300   0.976   5.153   6.566  0.5867  0.0881  0.1948
   65SAPC    HX 5301   0.978   5.049   6.607  0.1821  0.6730  1.7354
   65SAPC    HY 5302   0.921   5.160   6.470  3.6886  0.1963 -1.6065
   65SAPC   O31 5303   0.925   5.232   6.675 -0.0855  0.4848  0.2543
   65SAPC   C31 5304   0.811   5.303   6.651  0.5102 -0.3965  0.2802
   65SAPC   O32 5305   0.749   5.284   6.546  0.1889 -0.5774  0.0011
   65SAPC   C32 5306   0.779   5.399   6.760 -0.5838  0.2178 -0.4285
   65SAPC   H2X 5307   0.684   5.452   6.737  0.7602  3.5878  1.3418
   65SAPC   H2Y 5308   0.862   5.473   6.748 -0.3789  0.2877  1.3427
   65SAPC   C23 5309   1.162   5.228   6.958 -1.0613 -0.2853  0.3257
   65SAPC   H3R 5310   1.122   5.141   6.900 -0.7484 -0.6810  0.7089
   65SAPC   H3S 5311   1.068   5.286   6.976 -0.4460  0.6627  0.5273
   65SAPC   C24 5312   1.223   5.189   7.094  0.3337 -0.2309 -0.3705
   65SAPC   H4R 5313   1.316   5.131   7.071 -0.2688 -1.1260 -0.5777
   65SAPC   H4S 5314   1.156   5.116   7.145  0.4405 -0.2656 -0.2794
   65SAPC   C25 5315   1.248   5.309   7.186  0.6735 -0.3997 -0.6291
   65SAPC   H5R 5316   1.251   5.403   7.129 -1.0325 -0.8761 -1.5397
   65SAPC   C26 5317   1.296   5.308   7.309 -0.0878 -0.7546  0.1806
   65SAPC   H6R 5318   1.314   5.404   7.360  2.0128 -1.1645  0.2704
   65SAPC   C27 5319   1.328   5.185   7.392  0.2567 -0.1338  0.4139
   65SAPC   H7R 5320   1.424   5.208   7.442  1.0591 -0.0615 -1.1079
   65SAPC   H7S 5321   1.349   5.100   7.324  0.1969  0.3963 -0.2796
   65SAPC   C28 5322   1.229   5.147   7.496  0.5928 -0.6080  0.0078
   65SAPC   H8R 5323   1.132   5.119   7.452  1.8454 -1.2226 -2.4386
   65SAPC   C29 5324   1.260   5.135   7.623 -0.6287 -0.0123  0.5741
   65SAPC   H9R 5325   1.177   5.105   7.689 -0.3113 -2.9832 -0.3115
   65SAPC  C210 5326   1.391   5.157   7.691 -0.5670 -0.5138 -0.0177
   65SAPC  H10R 5327   1.366   5.163   7.800 -2.7955  1.6107 -0.6007
   65SAPC  H10S 5328   1.425   5.260   7.668 -0.5607 -0.8304 -1.4321
   65SAPC  C211 5329   1.500   5.067   7.653  0.1351 -0.5306  0.2633
   65SAPC  H11R 5330   1.507   5.052   7.544  0.8141 -1.1462  0.3880
   65SAPC  C212 5331   1.568   4.985   7.732 -0.0641  0.2360 -0.0129
   65SAPC  H12R 5332   1.660   4.934   7.699  0.9439 -0.1997  3.2291
   65SAPC  C213 5333   1.551   4.977   7.885  0.2269 -0.2932  0.2129
   65SAPC  H13R 5334   1.465   4.911   7.910  1.7013 -1.7281  1.5869
   65SAPC  H13S 5335   1.518   5.078   7.918  1.2553  0.0457  0.2377
   65SAPC  C214 5336   1.685   4.934   7.943 -0.6504 -0.3629  0.1416
   65SAPC  H14R 5337   1.767   4.961   7.875 -0.8068  2.3367  0.9646
   65SAPC  C215 5338   1.705   4.878   8.061  0.4196  0.1696 -0.5343
   65SAPC  H15R 5339   1.810   4.870   8.092  0.6146  0.2338 -1.1704
   65SAPC  C216 5340   1.601   4.844   8.162  0.1279 -0.6584 -0.5627
   65SAPC  H16R 5341   1.643   4.804   8.256 -0.8773  0.3185  0.3218
   65SAPC  H16S 5342   1.540   4.768   8.108 -0.0554 -0.8150 -0.1377
   65SAPC  C217 5343   1.510   4.949   8.223 -0.0892  0.4780 -0.3088
   65SAPC  H17R 5344   1.425   4.903   8.278  1.1422 -1.6137 -0.1040
   65SAPC  H17S 5345   1.475   5.011   8.137 -1.2771 -0.2020 -0.3252
   65SAPC  C218 5346   1.587   5.045   8.312 -0.2607  0.2720  0.5034
   65SAPC  H18R 5347   1.670   5.097   8.260  0.4319 -0.7445  0.5973
   65SAPC  H18S 5348   1.626   4.977   8.390 -1.4212 -1.1821 -0.1547
   65SAPC  C219 5349   1.492   5.141   8.379 -0.1513  0.2610 -0.4963
   65SAPC  H19R 5350   1.398   5.102   8.422  1.1759 -0.1162  2.1364
   65SAPC  H19S 5351   1.457   5.205   8.295 -1.3438  2.2768  1.4726
   65SAPC  C220 5352   1.559   5.218   8.496  0.2102 -0.0610  0.2186
   65SAPC  H20R 5353   1.483   5.263   8.564  1.3285 -0.6055  1.8472
   65SAPC  H20S 5354   1.616   5.308   8.466 -1.7263  0.8321 -0.8997
   65SAPC  H20T 5355   1.620   5.145   8.554 -1.9300 -2.5466 -0.5199
   65SAPC   C33 5356   0.765   5.323   6.887 -0.4993 -0.3955  0.4429
   65SAPC   H3X 5357   0.853   5.256   6.895  0.0331  0.2216 -0.1763
   65SAPC   H3Y 5358   0.671   5.263   6.889 -1.4787  1.0003 -1.6047
   65SAPC   C34 5359   0.750   5.422   7.007 -0.1465  1.2556 -0.1698
   65SAPC   H4X 5360   0.650   5.471   7.001 -1.6605 -1.5803  0.9177
   65SAPC   H4Y 5361   0.831   5.498   6.998  1.8799 -1.0512 -2.3932
   65SAPC   C35 5362   0.751   5.357   7.147 -0.2627  0.1618  0.5969
   65SAPC   H5X 5363   0.661   5.293   7.155 -1.9845  2.1653 -1.6495
   65SAPC   H5Y 5364   0.736   5.430   7.229  0.2134  0.8195  0.1045
   65SAPC   C36 5365   0.873   5.266   7.184 -0.5641  0.4846  0.2246
   65SAPC   H6X 5366   0.964   5.330   7.190 -0.2350  0.1236 -0.7090
   65SAPC   H6Y 5367   0.881   5.196   7.098  0.4561  0.8970 -0.0272
   65SAPC   C37 5368   0.850   5.186   7.311 -0.3390  0.7101  0.1968
   65SAPC   H7X 5369   0.921   5.101   7.320 -0.9756  0.1512 -0.0639
   65SAPC   H7Y 5370   0.747   5.145   7.314 -0.3638  0.8412  1.8572
   65SAPC   C38 5371   0.863   5.271   7.440 -0.2026  0.6011 -0.0053
   65SAPC   H8X 5372   0.794   5.357   7.425 -0.7895 -0.1954 -2.1654
   65SAPC   H8Y 5373   0.965   5.313   7.450 -0.3567  1.1668 -0.7251
   65SAPC   C39 5374   0.828   5.193   7.564 -0.4478  1.0233 -0.3318
   65SAPC   H9X 5375   0.894   5.107   7.587  0.9105  2.9962  3.6267
   65SAPC   H9Y 5376   0.727   5.148   7.559  0.4431 -1.1712  0.9553
   65SAPC  C310 5377   0.816   5.288   7.684  0.4560 -0.0257  0.2657
   65SAPC  H10X 5378   0.755   5.375   7.653  1.8624  0.8072 -0.2547
   65SAPC  H10Y 5379   0.920   5.324   7.700  0.0054  1.0398  0.7931
   65SAPC  C311 5380   0.762   5.223   7.811 -0.2037 -0.0103 -0.3842
   65SAPC  H11X 5381   0.815   5.128   7.836  0.2333  0.2941 -0.1580
   65SAPC  H11Y 5382   0.656   5.197   7.788 -0.6365 -0.3110  1.7909
   65SAPC  C312 5383   0.757   5.326   7.924 -0.7611 -0.2333  0.1698
   65SAPC  H12X 5384   0.720   5.423   7.884  1.3015  0.3814 -0.2658
   65SAPC  H12Y 5385   0.862   5.339   7.955 -1.3495  0.6911  1.8157
   65SAPC  C313 5386   0.666   5.289   8.043 -0.2345 -0.1171  0.0466
   65SAPC  H13X 5387   0.693   5.185   8.072  0.9925 -0.0843 -0.9273
   65SAPC  H13Y 5388   0.564   5.288   7.999  0.1525 -0.8559 -0.8568
   65SAPC  C314 5389   0.669   5.375   8.168 -0.0969  0.2708  0.2586
   65SAPC  H14X 5390   0.661   5.483   8.144  1.1866  0.2971 -0.1011
   65SAPC  H14Y 5391   0.760   5.340   8.222  0.1706  1.8389  0.8742
   65SAPC  C315 5392   0.550   5.368   8.258 -0.4734  0.5570 -0.7748
   65SAPC  H15X 5393   0.542   5.264   8.295  3.5836  0.3897 -0.1484
   65SAPC  H15Y 5394   0.458   5.400   8.204 -0.1640  3.0449  0.1227
   65SAPC  C316 5395   0.563   5.453   8.379 -0.2748  0.6209  0.4181
   65SAPC  H16X 5396   0.516   5.407   8.469  1.4578  1.2358  1.6892
   65SAPC  H16Y 5397   0.519   5.553   8.358  0.6579  0.9533  0.0262
   65SAPC  C317 5398   0.709   5.465   8.437  0.1376 -0.0997 -1.2017
   65SAPC  H17X 5399   0.774   5.511   8.360 -0.0982  1.2679 -0.5862
   65SAPC  H17Y 5400   0.747   5.360   8.445  2.7071  1.0484  3.2839
   65SAPC  C318 5401   0.718   5.537   8.570  0.3818 -0.4999  0.0142
   65SAPC  H18X 5402   0.709   5.646   8.548  0.8933 -0.1308  1.5558
   65SAPC  H18Y 5403   0.815   5.510   8.616 -0.0692 -0.4840  0.9918
   65SAPC  H18Z 5404   0.638   5.501   8.638  2.0240 -0.4437  2.0127
   66SAPC     N 5405   4.930   4.543   5.889 -0.4282  0.2831 -0.0993
   66SAPC   C12 5406   5.081   4.560   5.868 -0.0849  0.1060 -0.9228
   66SAPC  H12A 5407   5.084   4.592   5.765  1.6865  1.3419 -0.5107
   66SAPC  H12B 5408   5.125   4.461   5.870  0.3681  0.3236  0.8785
   66SAPC   C13 5409   4.898   4.523   6.033 -0.1196  0.0553 -0.1890
   66SAPC  H13A 5410   4.804   4.475   6.055  0.3538 -0.0039  1.7679
   66SAPC  H13B 5411   4.977   4.460   6.069  0.7739  0.1766 -1.9006
   66SAPC  H13C 5412   4.899   4.614   6.091 -2.8697  0.6009 -0.9182
   66SAPC   C14 5413   4.854   4.667   5.836  0.1064  0.5898  1.0415
   66SAPC  H14A 5414   4.872   4.669   5.729 -0.9399  0.4193  0.8645
   66SAPC  H14B 5415   4.751   4.644   5.856 -0.9073  1.9172 -2.4239
   66SAPC  H14C 5416   4.902   4.755   5.876 -1.2428  2.1220 -0.6345
   66SAPC   C15 5417   4.883   4.429   5.801  0.2550  0.3881  0.3311
   66SAPC  H15A 5418   4.930   4.340   5.838  1.0131  0.1448 -1.1793
   66SAPC  H15B 5419   4.779   4.406   5.817  0.4258 -2.2124 -2.0058
   66SAPC  H15C 5420   4.907   4.441   5.696  0.1452 -1.3387  0.0916
   66SAPC   C11 5421   5.161   4.665   5.956  0.0586 -0.0420 -0.1810
   66SAPC  H11A 5422   5.271   4.649   5.945 -0.2512 -1.3832 -1.4710
   66SAPC  H11B 5423   5.143   4.633   6.061  0.4701  1.7029  0.4424
   66SAPC     P 5424   5.194   4.922   5.996  0.3385 -0.7812  0.7371
   66SAPC   O13 5425   5.344   4.911   5.981  0.6017 -1.2041  0.2831
   66SAPC   O14 5426   5.140   5.045   5.939  0.5327 -0.9005 -0.4189
   66SAPC   O12 5427   5.119   4.799   5.936 -0.3761 -0.2141 -0.0826
   66SAPC   O11 5428   5.167   4.921   6.145  0.1868  0.4503  0.1799
   66SAPC    C1 5429   5.037   4.888   6.194 -0.2776  0.2639  0.0002
   66SAPC    HA 5430   4.963   4.961   6.153  1.9860  3.0624  0.7074
   66SAPC    HB 5431   5.008   4.783   6.174  0.6413 -0.5624  2.8620
   66SAPC    C2 5432   5.023   4.909   6.344 -0.7836 -0.8180 -0.5923
   66SAPC    HS 5433   4.914   4.896   6.363 -0.3744  0.5613  3.1431
   66SAPC   O21 5434   5.061   5.042   6.399  0.2818 -0.2986 -0.1813
   66SAPC   C21 5435   4.981   5.137   6.363 -0.0720  0.3888  0.0464
   66SAPC   O22 5436   4.888   5.132   6.284  0.3525  0.3826 -0.0513
   66SAPC   C22 5437   5.030   5.266   6.422  0.0713 -0.4019  0.4776
   66SAPC   H2R 5438   5.129   5.257   6.472 -0.5352  0.4903  1.8579
   66SAPC   H2S 5439   5.040   5.339   6.339  0.7622 -2.7711 -1.5759
   66SAPC    C3 5440   5.098   4.788   6.420  0.2325  0.6923  0.2256
   66SAPC    HX 5441   5.203   4.781   6.384  0.8563  0.2639  2.0756
   66SAPC    HY 5442   5.047   4.693   6.392 -0.6442  1.9758 -2.6668
   66SAPC   O31 5443   5.098   4.804   6.563  0.1578 -0.2642 -0.4762
   66SAPC   C31 5444   4.998   4.778   6.644  0.2091 -0.7405  0.7559
   66SAPC   O32 5445   4.886   4.756   6.602 -0.3507 -0.1549  0.1173
   66SAPC   C32 5446   5.041   4.776   6.790 -0.5999  0.0429 -0.1307
   66SAPC   H2X 5447   5.041   4.884   6.813 -0.2431 -0.1800  0.9839
   66SAPC   H2Y 5448   5.143   4.735   6.811 -0.2174  1.9127  1.7515
   66SAPC   C23 5449   4.937   5.341   6.515  0.4139 -0.5049 -0.2290
   66SAPC   H3R 5450   4.908   5.290   6.610  0.8994  0.9417  0.7079
   66SAPC   H3S 5451   4.844   5.360   6.457 -0.6318 -1.9053  0.9412
   66SAPC   C24 5452   4.996   5.474   6.566 -0.3268 -0.7498  0.3003
   66SAPC   H4R 5453   4.919   5.525   6.629  1.2330  0.2004  1.5007
   66SAPC   H4S 5454   5.020   5.540   6.480  3.0605 -3.3625 -0.8842
   66SAPC   C25 5455   5.123   5.468   6.647 -0.0253  0.5941  0.7218
   66SAPC   H5R 5456   5.211   5.448   6.584 -0.8725 -1.0275  0.0137
   66SAPC   C26 5457   5.143   5.488   6.778  0.8843 -1.7691 -0.0367
   66SAPC   H6R 5458   5.244   5.493   6.820  0.7332  2.5742  0.0119
   66SAPC   C27 5459   5.040   5.539   6.878 -0.0289 -0.1008  0.0054
   66SAPC   H7R 5460   5.041   5.465   6.960 -2.7727 -0.1437  0.0367
   66SAPC   H7S 5461   4.939   5.529   6.834  0.2492 -1.1350 -0.4033
   66SAPC   C28 5462   5.056   5.688   6.920  0.1237  0.1851 -0.4254
   66SAPC   H8R 5463   5.053   5.762   6.839  0.4191  0.3826 -0.2553
   66SAPC   C29 5464   5.083   5.744   7.035  0.8280 -0.0754 -0.3349
   66SAPC   H9R 5465   5.080   5.853   7.032 -2.8801 -0.1671 -1.6216
   66SAPC  C210 5466   5.104   5.685   7.170 -0.2590 -0.0646 -0.9006
   66SAPC  H10R 5467   5.200   5.629   7.165 -0.5630 -0.6062 -0.5705
   66SAPC  H10S 5468   5.027   5.614   7.206 -1.8126  2.4351  0.8441
   66SAPC  C211 5469   5.114   5.795   7.273  0.2835  0.3015  0.2737
   66SAPC  H11R 5470   5.074   5.891   7.236  0.5981  0.0305 -0.7944
   66SAPC  C212 5471   5.169   5.788   7.392 -0.2877 -0.4143 -0.1446
   66SAPC  H12R 5472   5.148   5.869   7.462  1.3144 -0.4725  0.4194
   66SAPC  C213 5473   5.234   5.663   7.452 -0.5431 -0.0462  0.0865
   66SAPC  H13R 5474   5.231   5.575   7.384  0.3783 -1.1013  1.3840
   66SAPC  H13S 5475   5.184   5.632   7.546 -1.8537 -1.2937 -1.0035
   66SAPC  C214 5476   5.377   5.713   7.466  0.0830 -0.1055 -0.2104
   66SAPC  H14R 5477   5.433   5.704   7.371  1.9793 -2.8546  1.0869
   66SAPC  C215 5478   5.459   5.743   7.571  0.2308 -0.0043  0.2784
   66SAPC  H15R 5479   5.560   5.783   7.557  0.4008 -0.3580  0.5109
   66SAPC  C216 5480   5.420   5.744   7.713  0.1347 -0.3108  0.5818
   66SAPC  H16R 5481   5.311   5.765   7.717 -0.3215 -2.5398  0.9561
   66SAPC  H16S 5482   5.468   5.829   7.765 -0.9113 -0.2995  1.5568
   66SAPC  C217 5483   5.460   5.611   7.784 -0.0887 -0.7021  0.1510
   66SAPC  H17R 5484   5.435   5.523   7.722 -0.0300 -1.1012  0.6980
   66SAPC  H17S 5485   5.404   5.605   7.880  2.0272  1.5517  1.6006
   66SAPC  C218 5486   5.614   5.593   7.825  0.4029 -0.2945 -0.6114
   66SAPC  H18R 5487   5.632   5.659   7.912 -0.4839 -0.9855  0.1051
   66SAPC  H18S 5488   5.670   5.638   7.740 -0.9377  0.4471 -1.1186
   66SAPC  C219 5489   5.660   5.448   7.843  0.0860 -0.0512 -0.6225
   66SAPC  H19R 5490   5.766   5.451   7.878 -0.1251 -4.2552  0.6119
   66SAPC  H19S 5491   5.660   5.396   7.745 -1.7259  2.2463 -1.9050
   66SAPC  C220 5492   5.571   5.373   7.933  0.4649 -0.3352 -0.3766
   66SAPC  H20R 5493   5.578   5.399   8.041  0.0660 -0.6923 -0.2642
   66SAPC  H20S 5494   5.585   5.263   7.926 -0.2812 -0.4140 -0.6575
   66SAPC  H20T 5495   5.465   5.400   7.915  0.0690 -2.3928 -1.2808
   66SAPC   C33 5496   4.944   4.711   6.879 -0.5369 -0.5620 -0.3928
   66SAPC   H3X 5497   4.938   4.601   6.863  1.8397 -0.7600 -0.1139
   66SAPC   H3Y 5498   4.836   4.738   6.869 -0.4511  0.9323  2.1216
   66SAPC   C34 5499   4.977   4.747   7.028 -0.2903  0.2157  0.3997
   66SAPC   H4X 5500   4.963   4.856   7.042  1.2590  0.6912 -1.4278
   66SAPC   H4Y 5501   5.083   4.727   7.057  0.3435 -0.3079 -2.0669
   66SAPC   C35 5502   4.889   4.672   7.125 -0.3303 -0.4053 -0.3616
   66SAPC   H5X 5503   4.875   4.572   7.078 -2.0924  1.1837 -3.4133
   66SAPC   H5Y 5504   4.797   4.734   7.123  0.1196  0.2735 -0.1862
   66SAPC   C36 5505   4.931   4.677   7.271 -0.2520  0.1315 -0.1027
   66SAPC   H6X 5506   5.037   4.645   7.278 -0.2701  0.3293  1.1376
   66SAPC   H6Y 5507   4.859   4.602   7.311  0.3785 -1.4412 -1.8536
   66SAPC   C37 5508   4.918   4.815   7.333 -0.0413 -0.7705 -0.6265
   66SAPC   H7X 5509   4.808   4.822   7.347 -0.1533 -0.7668 -1.5197
   66SAPC   H7Y 5510   4.950   4.904   7.275 -2.2858  0.6168  0.2119
   66SAPC   C38 5511   5.000   4.827   7.465 -0.2874  0.4912  0.5599
   66SAPC   H8X 5512   4.996   4.936   7.485  0.8688  1.0013 -1.8059
   66SAPC   H8Y 5513   5.110   4.818   7.463 -0.5154 -2.2793 -1.0170
   66SAPC   C39 5514   4.932   4.759   7.584  0.0120 -0.0583  0.4187
   66SAPC   H9X 5515   4.951   4.650   7.572  2.9294  0.4419  0.1719
   66SAPC   H9Y 5516   4.823   4.776   7.573  0.3772  3.4693  1.6462
   66SAPC  C310 5517   4.977   4.805   7.730  0.1430  0.0751  0.7485
   66SAPC  H10X 5518   4.915   4.893   7.755 -1.6679 -0.7898 -0.5580
   66SAPC  H10Y 5519   5.081   4.843   7.720 -0.5266  1.7950  0.0736
   66SAPC  C311 5520   4.972   4.688   7.831  0.4606 -0.1689 -0.3079
   66SAPC  H11X 5521   5.028   4.609   7.778  0.3617 -1.8468  2.0302
   66SAPC  H11Y 5522   4.867   4.662   7.858  0.5574  2.0423  2.3501
   66SAPC  C312 5523   5.047   4.721   7.959 -0.5524 -0.4514 -0.1244
   66SAPC  H12X 5524   5.145   4.762   7.926 -0.8776  0.0086 -0.5257
   66SAPC  H12Y 5525   5.056   4.639   8.033 -1.7668  1.4886  2.2722
   66SAPC  C313 5526   4.973   4.827   8.049  0.6273  0.2273 -0.3122
   66SAPC  H13X 5527   4.907   4.884   7.981 -1.1604 -0.5669  0.7249
   66SAPC  H13Y 5528   5.044   4.900   8.093 -1.4662  1.3658  1.2424
   66SAPC  C314 5529   4.903   4.771   8.167 -0.3315  0.4261 -0.4214
   66SAPC  H14X 5530   4.980   4.716   8.225 -0.7179 -0.6377 -0.8842
   66SAPC  H14Y 5531   4.823   4.698   8.140 -0.0009 -0.5221  1.1317
   66SAPC  C315 5532   4.837   4.877   8.250 -0.1162 -0.2163 -0.0960
   66SAPC  H15X 5533   4.745   4.917   8.201 -1.7463 -1.3113  2.0024
   66SAPC  H15Y 5534   4.912   4.958   8.261 -1.2612  1.3610 -3.2516
   66SAPC  C316 5535   4.797   4.838   8.387  0.2077  0.5898 -1.3577
   66SAPC  H16X 5536   4.766   4.931   8.438 -2.3372 -0.2883 -1.2152
   66SAPC  H16Y 5537   4.877   4.800   8.454 -1.1524 -0.7221 -0.4270
   66SAPC  C317 5538   4.682   4.741   8.393  0.6647 -0.2246  0.0474
   66SAPC  H17X 5539   4.706   4.642   8.348 -4.6657 -0.6904 -2.2570
   66SAPC  H17Y 5540   4.601   4.798   8.342  1.2278 -0.2340 -0.8719
   66SAPC  C318 5541   4.627   4.708   8.533  0.5075  0.1129  0.0978
   66SAPC  H18X 5542   4.632   4.793   8.605  0.1423  2.4700 -2.5308
   66SAPC  H18Y 5543   4.673   4.619   8.580 -0.6081  0.7351  2.4754
   66SAPC  H18Z 5544   4.519   4.685   8.522  0.7182 -0.8642  0.1113
   67SAPC     N 5545   0.253   0.009   6.213  0.5326  0.6745  0.0434
   67SAPC   C12 5546   0.323   0.038   6.342 -0.0101  0.2056  0.2253
   67SAPC  H12A 5547   0.305   0.142   6.366 -0.3541  0.1537  0.1887
   67SAPC  H12B 5548   0.426   0.036   6.308  0.1289 -1.5381  0.7553
   67SAPC   C13 5549   0.318   0.098   6.106 -0.2253  0.2485 -0.0352
   67SAPC  H13A 5550   0.320   0.205   6.118  1.6645  0.2551 -0.2510
   67SAPC  H13B 5551   0.419   0.068   6.084 -0.9544 -1.2578 -1.4195
   67SAPC  H13C 5552   0.266   0.082   6.013  1.9792 -0.3848 -1.1874
   67SAPC   C14 5553   0.268  -0.139   6.172 -0.4135 -0.0951 -0.2930
   67SAPC  H14A 5554   0.212  -0.170   6.085 -0.9155  1.7052 -0.6244
   67SAPC  H14B 5555   0.374  -0.158   6.170 -0.4648 -0.2007 -2.3833
   67SAPC  H14C 5556   0.236  -0.196   6.258  1.0841 -0.6314 -0.0823
   67SAPC   C15 5557   0.110   0.036   6.223  0.3483 -0.2817  0.1632
   67SAPC  H15A 5558   0.071  -0.028   6.300  2.3789 -0.8274  0.7580
   67SAPC  H15B 5559   0.101   0.135   6.266 -0.9803 -1.4096  2.5408
   67SAPC  H15C 5560   0.062   0.025   6.126  0.3773 -1.3095  0.2636
   67SAPC   C11 5561   0.317  -0.063   6.457  0.3508 -0.5707 -0.6281
   67SAPC  H11A 5562   0.209  -0.088   6.465  0.2280  0.1164 -0.1021
   67SAPC  H11B 5563   0.341  -0.020   6.557  0.7484 -1.6678 -0.2540
   67SAPC     P 5564   0.359  -0.323   6.479  0.7254 -0.1032 -0.3555
   67SAPC   O13 5565   0.236  -0.356   6.402 -0.0655  0.3748  0.2848
   67SAPC   O14 5566   0.475  -0.412   6.468 -0.0753 -0.0149  0.6963
   67SAPC   O12 5567   0.402  -0.176   6.436 -0.4163  0.3823  0.5251
   67SAPC   O11 5568   0.319  -0.295   6.634 -0.4460 -0.1161  0.2320
   67SAPC    C1 5569   0.409  -0.246   6.723  0.9639 -0.0468  0.1242
   67SAPC    HA 5570   0.442  -0.322   6.796  0.6233 -0.9595 -0.6661
   67SAPC    HB 5571   0.509  -0.215   6.684  1.6803 -0.9893  1.1980
   67SAPC    C2 5572   0.333  -0.134   6.807 -0.2390 -0.1109  0.3372
   67SAPC    HS 5573   0.353  -0.037   6.758  1.9786 -0.5281  0.3648
   67SAPC   O21 5574   0.379  -0.141   6.942 -0.0276 -0.1195 -0.3285
   67SAPC   C21 5575   0.504  -0.091   6.953 -0.1760 -0.1769  0.0488
   67SAPC   O22 5576   0.566  -0.027   6.872  0.2821 -0.0970  0.4988
   67SAPC   C22 5577   0.561  -0.134   7.084 -0.4568  0.0717 -0.4907
   67SAPC   H2R 5578   0.496  -0.103   7.168  1.0051  2.3379 -0.1760
   67SAPC   H2S 5579   0.557  -0.245   7.074  2.0499  0.0870 -2.0690
   67SAPC    C3 5580   0.180  -0.140   6.801  0.7477 -0.2395  0.0559
   67SAPC    HX 5581   0.147  -0.243   6.825  1.7620 -1.1351 -2.1916
   67SAPC    HY 5582   0.150  -0.138   6.694 -0.4220 -0.6759  0.3781
   67SAPC   O31 5583   0.112  -0.043   6.885 -0.1950  0.6340 -0.6894
   67SAPC   C31 5584   0.118   0.087   6.837 -0.5840 -0.2004  0.4318
   67SAPC   O32 5585   0.162   0.119   6.730 -0.1957 -0.0436 -0.0060
   67SAPC   C32 5586   0.069   0.189   6.925  0.0231  0.0567 -0.6077
   67SAPC   H2X 5587  -0.015   0.153   6.988 -0.4660  1.3314 -0.5036
   67SAPC   H2Y 5588   0.028   0.267   6.857  1.4083  0.7415 -0.6716
   67SAPC   C23 5589   0.697  -0.103   7.121 -0.3587 -0.0658  0.7990
   67SAPC   H3R 5590   0.774  -0.111   7.041 -0.4819  2.3650  0.3951
   67SAPC   H3S 5591   0.734  -0.183   7.189  0.0884  1.5616  2.5080
   67SAPC   C24 5592   0.726   0.033   7.188  0.0538 -0.0446  0.3537
   67SAPC   H4R 5593   0.658   0.028   7.275  0.4809 -1.1081  0.6339
   67SAPC   H4S 5594   0.686   0.117   7.128  1.1129 -0.6601 -1.2713
   67SAPC   C25 5595   0.858   0.072   7.229  0.0935  0.5760  0.2799
   67SAPC   H5R 5596   0.921   0.124   7.155  3.5704 -0.9003  2.0561
   67SAPC   C26 5597   0.910   0.052   7.351 -0.6597 -0.0514  0.0986
   67SAPC   H6R 5598   1.012   0.089   7.368 -0.1552 -0.8896 -1.0562
   67SAPC   C27 5599   0.842  -0.010   7.467  0.1177 -0.3473  0.3137
   67SAPC   H7R 5600   0.868  -0.118   7.471  1.8153 -0.0023 -0.9687
   67SAPC   H7S 5601   0.731  -0.003   7.462  0.2325  1.2398 -0.4478
   67SAPC   C28 5602   0.874   0.055   7.601  0.5220 -0.5670  0.0093
   67SAPC   H8R 5603   0.885   0.164   7.603 -4.9839  0.1522 -0.8850
   67SAPC   C29 5604   0.891  -0.017   7.712  0.0796 -0.0483  0.0967
   67SAPC   H9R 5605   0.938   0.035   7.797 -3.0672  0.1319  1.8016
   67SAPC  C210 5606   0.865  -0.164   7.716  0.0418  0.6303 -0.1811
   67SAPC  H10R 5607   0.927  -0.214   7.638 -0.2574  1.0783 -0.7161
   67SAPC  H10S 5608   0.762  -0.198   7.690 -0.5083  0.7449  1.8076
   67SAPC  C211 5609   0.890  -0.226   7.848 -0.7833  0.1435 -0.1498
   67SAPC  H11R 5610   0.924  -0.153   7.924 -0.0265  0.2951 -0.6343
   67SAPC  C212 5611   0.863  -0.354   7.887 -0.5307 -0.6485  0.5052
   67SAPC  H12R 5612   0.872  -0.371   7.995  3.0285 -0.1647  0.3291
   67SAPC  C213 5613   0.818  -0.468   7.790  0.3774 -0.2728 -0.6228
   67SAPC  H13R 5614   0.817  -0.435   7.684 -3.9231  2.1831  0.0740
   67SAPC  H13S 5615   0.710  -0.490   7.805  0.5006 -0.7640 -0.4462
   67SAPC  C214 5616   0.910  -0.590   7.804  0.3404 -0.3449  0.1694
   67SAPC  H14R 5617   0.990  -0.595   7.728 -0.6061 -1.6364 -0.7435
   67SAPC  C215 5618   0.914  -0.680   7.905  0.0434  1.1627  0.1212
   67SAPC  H15R 5619   0.991  -0.759   7.896  0.2356  1.2946  0.5797
   67SAPC  C216 5620   0.830  -0.687   8.032  0.3303 -0.3365  0.3531
   67SAPC  H16R 5621   0.751  -0.609   8.026  1.5998  1.1357  2.1250
   67SAPC  H16S 5622   0.897  -0.672   8.119 -0.2910  1.0160  0.6008
   67SAPC  C217 5623   0.752  -0.821   8.058  0.4347 -0.1516 -0.6233
   67SAPC  H17R 5624   0.670  -0.801   8.130  1.3267  2.3294 -0.2362
   67SAPC  H17S 5625   0.817  -0.904   8.093  1.8976  0.1339 -2.5736
   67SAPC  C218 5626   0.692  -0.883   7.933  1.0102  0.6452  0.2173
   67SAPC  H18R 5627   0.773  -0.919   7.865  1.8170  0.1126  1.4262
   67SAPC  H18S 5628   0.623  -0.812   7.883  0.0334  0.9289  1.9097
   67SAPC  C219 5629   0.599  -1.010   7.954 -0.0070  0.2943 -0.4194
   67SAPC  H19R 5630   0.512  -0.987   8.019 -0.5993 -1.0155 -0.7269
   67SAPC  H19S 5631   0.651  -1.094   8.004 -1.2360 -0.7110 -0.7932
   67SAPC  C220 5632   0.537  -1.063   7.827 -0.2642 -0.0316  0.4349
   67SAPC  H20R 5633   0.509  -1.169   7.846 -0.5634 -0.1953 -0.8682
   67SAPC  H20S 5634   0.615  -1.057   7.747 -0.1806 -0.4738  0.4766
   67SAPC  H20T 5635   0.451  -1.005   7.789 -0.1075  0.2121  0.4557
   67SAPC   C33 5636   0.177   0.240   7.017 -0.2099  0.0100  0.0574
   67SAPC   H3X 5637   0.182   0.350   7.029  0.1597  0.2523 -2.0981
   67SAPC   H3Y 5638   0.278   0.210   6.981 -0.2240 -1.2129  0.9975
   67SAPC   C34 5639   0.156   0.166   7.156 -0.1635 -0.0508 -0.3280
   67SAPC   H4X 5640   0.142   0.056   7.152  2.0099 -0.3647 -0.0248
   67SAPC   H4Y 5641   0.065   0.203   7.207  0.3184 -0.1094  0.5925
   67SAPC   C35 5642   0.277   0.161   7.254  0.2971  0.7998  0.4583
   67SAPC   H5X 5643   0.314   0.264   7.271  1.4447  0.4834 -0.0927
   67SAPC   H5Y 5644   0.367   0.108   7.215 -0.2465 -0.3352  0.7138
   67SAPC   C36 5645   0.250   0.094   7.390  0.5997 -0.0141 -0.3665
   67SAPC   H6X 5646   0.176   0.011   7.392  1.5332 -0.8192  1.2188
   67SAPC   H6Y 5647   0.197   0.163   7.460  0.2569 -0.8113  0.1643
   67SAPC   C37 5648   0.375   0.042   7.457 -0.0135 -0.0615  0.3533
   67SAPC   H7X 5649   0.456   0.116   7.440 -2.0020  2.0369 -0.1720
   67SAPC   H7Y 5650   0.400  -0.055   7.409 -0.9844 -0.1911  0.1039
   67SAPC   C38 5651   0.357   0.007   7.603  0.2715 -0.5888  0.0303
   67SAPC   H8X 5652   0.273  -0.064   7.624 -2.9081  2.9337 -0.2419
   67SAPC   H8Y 5653   0.329   0.104   7.649 -0.9529  0.0555 -1.9938
   67SAPC   C39 5654   0.493  -0.043   7.661 -0.1123 -0.4679  0.0017
   67SAPC   H9X 5655   0.563   0.044   7.660 -0.9982  0.2503  0.0745
   67SAPC   H9Y 5656   0.538  -0.119   7.594  0.4590 -1.3093  1.3308
   67SAPC  C310 5657   0.489  -0.087   7.809  0.3639 -0.2075 -0.2860
   67SAPC  H10X 5658   0.593  -0.112   7.839  0.6144 -0.3019 -1.2099
   67SAPC  H10Y 5659   0.431  -0.180   7.828 -2.0008  1.7623  2.5596
   67SAPC  C311 5660   0.456   0.033   7.908  0.1977  0.0002 -0.7291
   67SAPC  H11X 5661   0.356   0.072   7.879  0.4279  0.3972 -0.9975
   67SAPC  H11Y 5662   0.532   0.108   7.878 -1.0326  0.7994 -1.9577
   67SAPC  C312 5663   0.455  -0.003   8.056 -0.4530  0.5966  0.2239
   67SAPC  H12X 5664   0.562  -0.021   8.079 -0.5605  0.7897  0.8613
   67SAPC  H12Y 5665   0.400  -0.099   8.064 -0.6531  0.5713 -1.2330
   67SAPC  C313 5666   0.393   0.107   8.138  0.4177 -0.3310 -0.0340
   67SAPC  H13X 5667   0.348   0.066   8.230 -0.3493 -0.5239 -0.4913
   67SAPC  H13Y 5668   0.300   0.146   8.091 -0.0526  0.4729  1.5224
   67SAPC  C314 5669   0.487   0.222   8.167 -0.2556  0.0244  0.4080
   67SAPC  H14X 5670   0.491   0.294   8.083  2.4872  0.3579  0.7745
   67SAPC  H14Y 5671   0.583   0.167   8.179  0.1645  0.9727  1.4905
   67SAPC  C315 5672   0.470   0.294   8.303  0.9441 -0.1504 -0.1149
   67SAPC  H15X 5673   0.497   0.226   8.387  0.7445 -0.1637 -0.0607
   67SAPC  H15Y 5674   0.366   0.329   8.321  0.1951 -2.7562  0.9682
   67SAPC  C316 5675   0.555   0.423   8.326  0.0957  0.1701  0.1748
   67SAPC  H16X 5676   0.525   0.497   8.248 -1.1744 -0.9247 -0.3914
   67SAPC  H16Y 5677   0.659   0.395   8.297  0.9953  1.8613  1.6966
   67SAPC  C317 5678   0.541   0.490   8.467  0.0547  0.4293  0.4049
   67SAPC  H17X 5679   0.434   0.508   8.488  0.0597 -2.3790  3.1522
   67SAPC  H17Y 5680   0.590   0.590   8.458 -1.5156  1.2239  0.6575
   67SAPC  C318 5681   0.593   0.403   8.580 -0.2857 -0.5105 -0.3354
   67SAPC  H18X 5682   0.500   0.360   8.624  0.2972 -1.8440 -0.3824
   67SAPC  H18Y 5683   0.635   0.466   8.661 -2.3504  1.4495 -0.7383
   67SAPC  H18Z 5684   0.666   0.325   8.552 -0.0778 -0.4659  0.0810
   68SAPC     N 5685   5.929   6.312   5.890 -0.8536  0.0482 -0.2654
   68SAPC   C12 5686   5.844   6.413   5.963 -0.3242 -0.2004 -0.5270
   68SAPC  H12A 5687   5.818   6.491   5.893 -3.2005 -0.8022 -0.2163
   68SAPC  H12B 5688   5.906   6.461   6.037 -0.6493 -0.8774  0.2055
   68SAPC   C13 5689   5.858   6.274   5.768  0.2701 -0.1424  0.1816
   68SAPC  H13A 5690   5.839   6.364   5.711  0.4550 -0.0336  0.2897
   68SAPC  H13B 5691   5.927   6.219   5.705 -0.6006 -0.3742 -0.5841
   68SAPC  H13C 5692   5.762   6.227   5.784 -1.1002  2.4175 -0.3692
   68SAPC   C14 5693   6.072   6.361   5.862 -0.0700 -0.5476 -0.5046
   68SAPC  H14A 5694   6.118   6.386   5.956  1.8504  0.4299 -1.6731
   68SAPC  H14B 5695   6.127   6.291   5.800 -0.4097  0.6493 -2.2011
   68SAPC  H14C 5696   6.056   6.449   5.802 -0.4519  1.3526  2.3000
   68SAPC   C15 5697   5.949   6.193   5.978  0.5670  0.4327  0.8620
   68SAPC  H15A 5698   5.989   6.113   5.917  1.7706 -0.2391  2.5079
   68SAPC  H15B 5699   6.009   6.206   6.067  2.6598  0.0845 -0.4642
   68SAPC  H15C 5700   5.854   6.169   6.024 -0.5130  0.2656 -1.3415
   68SAPC   C11 5701   5.711   6.366   6.024 -0.1901 -0.2851  0.9555
   68SAPC  H11A 5702   5.655   6.344   5.931  1.0415 -0.2219  0.2037
   68SAPC  H11B 5703   5.666   6.453   6.076 -0.2074  0.4902 -0.3386
   68SAPC     P 5704   5.594   6.229   6.199  0.0456 -0.0822 -0.0629
   68SAPC   O13 5705   5.607   6.323   6.313 -0.0064 -0.3076 -0.2253
   68SAPC   O14 5706   5.472   6.225   6.121 -0.4257 -0.3261 -0.0148
   68SAPC   O12 5707   5.713   6.242   6.102 -0.1861 -0.3735  0.0945
   68SAPC   O11 5708   5.613   6.081   6.262  0.3092  0.0845  0.1970
   68SAPC    C1 5709   5.745   6.040   6.277 -0.2029 -0.5398 -0.3592
   68SAPC    HA 5710   5.768   5.965   6.199 -5.1149 -0.5092 -2.0343
   68SAPC    HB 5711   5.820   6.121   6.272 -2.3345  1.3816 -2.1320
   68SAPC    C2 5712   5.785   5.979   6.412 -0.0994 -0.4006 -0.2063
   68SAPC    HS 5713   5.896   5.977   6.413  0.0403  2.1986 -2.9801
   68SAPC   O21 5714   5.723   5.852   6.440 -0.8301 -0.1450  0.0054
   68SAPC   C21 5715   5.788   5.754   6.377  0.0677 -0.0325 -1.0477
   68SAPC   O22 5716   5.892   5.766   6.313  0.3678 -0.5144 -0.3850
   68SAPC   C22 5717   5.712   5.626   6.397 -0.8536  0.5094 -0.0623
   68SAPC   H2R 5718   5.644   5.632   6.485  0.4493  1.2161  0.9085
   68SAPC   H2S 5719   5.662   5.603   6.301 -0.6126  2.7817 -0.7609
   68SAPC    C3 5720   5.740   6.075   6.528 -0.4573  0.0123 -0.4526
   68SAPC    HX 5721   5.633   6.097   6.508 -0.8298 -2.3838 -1.2642
   68SAPC    HY 5722   5.802   6.166   6.511  0.1159 -0.5205 -1.2309
   68SAPC   O31 5723   5.759   6.024   6.662  0.4778 -0.7302  0.0420
   68SAPC   C31 5724   5.881   6.037   6.714 -0.4639  0.0587 -0.0389
   68SAPC   O32 5725   5.987   6.073   6.654  0.0869 -0.3438  0.0723
   68SAPC   C32 5726   5.870   6.011   6.865  0.2479  0.1677 -0.2119
   68SAPC   H2X 5727   5.824   5.911   6.879 -2.2132  1.2004 -0.7909
   68SAPC   H2Y 5728   5.814   6.100   6.901  0.2014 -0.0847  0.3563
   68SAPC   C23 5729   5.802   5.501   6.414  0.3692  0.0121 -0.2571
   68SAPC   H3R 5730   5.885   5.494   6.341  0.5629 -2.6175  0.1887
   68SAPC   H3S 5731   5.751   5.403   6.406 -0.5936  0.4493  0.4793
   68SAPC   C24 5732   5.868   5.500   6.554 -0.5429  0.6594  0.7257
   68SAPC   H4R 5733   5.923   5.592   6.584  0.3279  0.3710  0.0416
   68SAPC   H4S 5734   5.950   5.425   6.563 -0.5175  0.8219  1.8151
   68SAPC   C25 5735   5.762   5.463   6.658 -0.0855  0.5366 -0.5318
   68SAPC   H5R 5736   5.659   5.456   6.621 -0.4986  0.0494  0.6703
   68SAPC   C26 5737   5.786   5.447   6.789 -0.5061 -0.2107 -0.3266
   68SAPC   H6R 5738   5.696   5.439   6.852  0.0731 -0.3486  0.4902
   68SAPC   C27 5739   5.925   5.467   6.843 -1.0494  0.2649  0.0351
   68SAPC   H7R 5740   6.002   5.489   6.766 -1.2767 -0.8694 -0.5344
   68SAPC   H7S 5741   5.960   5.367   6.874  0.6887  0.6476 -0.6406
   68SAPC   C28 5742   5.944   5.560   6.960  0.0006 -0.4968 -0.0377
   68SAPC   H8R 5743   5.978   5.657   6.922  0.8010 -0.5559  0.5065
   68SAPC   C29 5744   5.954   5.534   7.092  0.6430 -0.8343 -0.4775
   68SAPC   H9R 5745   5.966   5.625   7.152 -0.2537  0.0763 -1.6489
   68SAPC  C210 5746   5.931   5.410   7.169 -0.1067  0.3553  0.2307
   68SAPC  H10R 5747   6.025   5.351   7.171  0.3629  1.0474 -0.9969
   68SAPC  H10S 5748   5.855   5.346   7.119  0.2681 -1.0233  1.3941
   68SAPC  C211 5749   5.903   5.420   7.319 -0.3794 -0.3833 -0.3273
   68SAPC  H11R 5750   5.977   5.371   7.384 -1.1533 -0.6666  0.3595
   68SAPC  C212 5751   5.787   5.462   7.369  0.1630  0.0635  0.2387
   68SAPC  H12R 5752   5.773   5.467   7.478 -1.1028 -2.6914  0.2570
   68SAPC  C213 5753   5.680   5.532   7.288 -0.3816  0.2893 -0.1180
   68SAPC  H13R 5754   5.584   5.511   7.338  0.3870 -0.1798  1.1924
   68SAPC  H13S 5755   5.669   5.483   7.189 -1.9725  3.0850 -1.3707
   68SAPC  C214 5756   5.696   5.681   7.280  0.4278 -0.1213  1.0172
   68SAPC  H14R 5757   5.756   5.728   7.359 -0.5101 -0.0123  1.6788
   68SAPC  C215 5758   5.642   5.749   7.181 -0.3074 -0.0886  0.8585
   68SAPC  H15R 5759   5.623   5.857   7.186 -1.0581 -0.1813  0.2317
   68SAPC  C216 5760   5.567   5.682   7.067  0.2618 -0.0848  0.3124
   68SAPC  H16R 5761   5.471   5.633   7.093  1.1790 -2.0578  0.0976
   68SAPC  H16S 5762   5.625   5.595   7.029  1.0344  0.4922  0.1547
   68SAPC  C217 5763   5.536   5.784   6.953  0.3150  0.4657  0.7428
   68SAPC  H17R 5764   5.629   5.818   6.903  0.5394  1.0774  1.5625
   68SAPC  H17S 5765   5.486   5.879   6.980  1.8210  2.1035 -2.1026
   68SAPC  C218 5766   5.449   5.732   6.843 -0.0235 -0.3749 -0.4300
   68SAPC  H18R 5767   5.345   5.728   6.883  0.4668 -0.4926  0.8570
   68SAPC  H18S 5768   5.483   5.628   6.825  0.5894 -0.2852  0.1643
   68SAPC  C219 5769   5.462   5.818   6.722 -0.6535 -0.1994 -0.4483
   68SAPC  H19R 5770   5.562   5.801   6.677 -0.4465  0.6093 -0.2959
   68SAPC  H19S 5771   5.464   5.927   6.746 -0.6301  0.1391 -1.9592
   68SAPC  C220 5772   5.364   5.788   6.613  1.0063 -0.0433  0.2476
   68SAPC  H20R 5773   5.262   5.777   6.657  1.3086 -0.4924  0.8540
   68SAPC  H20S 5774   5.379   5.688   6.567 -0.6433  1.1403 -2.9951
   68SAPC  H20T 5775   5.367   5.859   6.528 -0.4911 -0.3263 -0.0540
   68SAPC   C33 5776   6.010   6.006   6.933  0.4253 -0.2401 -0.1065
   68SAPC   H3X 5777   6.046   6.110   6.936 -1.1719  0.3051  1.0669
   68SAPC   H3Y 5778   6.069   5.932   6.875  0.5144 -1.7873  1.8974
   68SAPC   C34 5779   6.009   5.955   7.076 -0.2444 -0.2316 -1.1062
   68SAPC   H4X 5780   6.110   5.915   7.100 -0.5330 -0.6684 -0.6118
   68SAPC   H4Y 5781   5.935   5.874   7.091 -1.3846  0.6390 -1.9231
   68SAPC   C35 5782   5.968   6.067   7.174 -0.5630  0.1766  0.1008
   68SAPC   H5X 5783   5.893   6.134   7.127 -0.9191  0.5753  1.2139
   68SAPC   H5Y 5784   6.052   6.132   7.204 -0.3830 -0.2444  0.5227
   68SAPC   C36 5785   5.898   6.003   7.300  0.2400  0.3209 -0.1584
   68SAPC   H6X 5786   5.952   5.911   7.334 -0.6629 -0.3551 -0.5233
   68SAPC   H6Y 5787   5.796   5.976   7.265  0.2536 -0.3354  0.2825
   68SAPC   C37 5788   5.890   6.099   7.422 -0.9736 -0.2310  0.3466
   68SAPC   H7X 5789   5.839   6.191   7.389 -0.3920 -0.1000 -0.2021
   68SAPC   H7Y 5790   5.994   6.130   7.447 -1.7240  1.4914  1.3563
   68SAPC   C38 5791   5.815   6.030   7.536  0.7018 -0.3906 -0.6798
   68SAPC   H8X 5792   5.851   5.926   7.556  0.5815 -0.4199 -0.6091
   68SAPC   H8Y 5793   5.710   6.011   7.503 -0.0344 -1.4112  2.1565
   68SAPC   C39 5794   5.806   6.114   7.664 -0.5326  0.1058  0.0553
   68SAPC   H9X 5795   5.744   6.205   7.647  0.7658  1.0329  0.2453
   68SAPC   H9Y 5796   5.903   6.142   7.711 -0.5368 -2.1433  1.4685
   68SAPC  C310 5797   5.732   6.023   7.761 -0.6815 -0.0460 -1.0698
   68SAPC  H10X 5798   5.763   5.916   7.752 -0.6513 -0.1292 -0.0425
   68SAPC  H10Y 5799   5.627   6.022   7.727 -1.5433 -1.6789  1.4710
   68SAPC  C311 5800   5.746   6.070   7.905  0.2202 -0.6423 -0.0627
   68SAPC  H11X 5801   5.691   6.167   7.915  0.9620  0.0175 -2.2760
   68SAPC  H11Y 5802   5.853   6.085   7.932  1.0313 -2.9056 -1.8782
   68SAPC  C312 5803   5.689   5.963   8.000 -0.1544 -0.6477 -0.2064
   68SAPC  H12X 5804   5.740   5.867   7.975 -0.2809 -0.9647  0.7483
   68SAPC  H12Y 5805   5.588   5.948   7.958  0.1653  1.2013 -1.7204
   68SAPC  C313 5806   5.690   5.991   8.150  0.0294  0.3802  0.6433
   68SAPC  H13X 5807   5.660   6.097   8.164 -0.0757  0.6892 -1.7265
   68SAPC  H13Y 5808   5.792   5.975   8.189 -0.7160 -0.0782  2.4399
   68SAPC  C314 5809   5.597   5.904   8.230  0.2651 -0.8166 -0.8445
   68SAPC  H14X 5810   5.598   5.794   8.218 -0.1432 -1.0232  0.8472
   68SAPC  H14Y 5811   5.492   5.934   8.210  0.2757  1.3553  2.0242
   68SAPC  C315 5812   5.623   5.933   8.373 -0.6559  0.2611  0.2179
   68SAPC  H15X 5813   5.601   6.035   8.413 -3.0375  0.0624 -0.5332
   68SAPC  H15Y 5814   5.732   5.917   8.392 -0.1709 -0.4678 -2.9963
   68SAPC  C316 5815   5.539   5.850   8.469 -0.2283 -0.0466 -0.1407
   68SAPC  H16X 5816   5.578   5.861   8.573 -0.4871  0.3834 -0.0894
   68SAPC  H16Y 5817   5.560   5.744   8.444 -0.6482 -0.3428  0.7176
   68SAPC  C317 5818   5.391   5.872   8.470  0.1287 -0.1203  0.4166
   68SAPC  H17X 5819   5.352   5.869   8.367  0.0902 -0.1973  0.4332
   68SAPC  H17Y 5820   5.374   5.975   8.508  0.6556 -0.2210  0.9436
   68SAPC  C318 5821   5.304   5.773   8.548  1.1825  0.3326  0.0408
   68SAPC  H18X 5822   5.324   5.770   8.657  0.2810  0.0834  0.2010
   68SAPC  H18Y 5823   5.320   5.672   8.504  0.4140 -0.2235  1.0371
   68SAPC  H18Z 5824   5.198   5.799   8.529  0.9741 -1.3217 -1.1884
   69SLPC     N 5825   1.984   3.738  11.154 -0.9928  0.5038 -0.0156
   69SLPC   C13 5826   1.915   3.754  11.288 -0.6177 -0.0196 -0.3464
   69SLPC  H13A 5827   1.817   3.799  11.291 -0.6198 -0.0362 -0.1525
   69SLPC  H13B 5828   1.897   3.657  11.332 -0.3155  0.4598  0.8528
   69SLPC  H13C 5829   1.985   3.797  11.359  0.4586 -0.7582 -0.9392
   69SLPC   C14 5830   1.903   3.662  11.060  0.2458 -0.4125 -0.2613
   69SLPC  H14A 5831   1.955   3.653  10.966 -0.0684 -1.0013 -0.3844
   69SLPC  H14B 5832   1.888   3.559  11.087 -0.0090 -0.3908 -0.3186
   69SLPC  H14C 5833   1.812   3.717  11.038 -1.1422 -1.1766  3.1626
   69SLPC   C15 5834   2.106   3.655  11.174  0.4869 -0.5348  0.3082
   69SLPC  H15A 5835   2.158   3.660  11.079  0.8000  0.2268  0.5154
   69SLPC  H15B 5836   2.181   3.697  11.238 -0.3822  1.8050 -0.1604
   69SLPC  H15C 5837   2.089   3.554  11.208 -2.4313 -0.0682  0.3640
   69SLPC   C12 5838   2.015   3.876  11.101 -0.3646 -0.8862 -0.4709
   69SLPC  H12A 5839   2.060   3.875  11.003 -0.9445  0.7335 -0.7679
   69SLPC  H12B 5840   2.099   3.909  11.160 -1.4658 -0.8497  1.0890
   69SLPC   C11 5841   1.904   3.979  11.074  0.8845 -0.5079  0.4067
   69SLPC  H11A 5842   1.864   4.001  11.175 -1.5405 -1.7393 -0.2533
   69SLPC  H11B 5843   1.820   3.938  11.013  1.8755  0.9684 -2.0710
   69SLPC     P 5844   2.032   4.209  11.079 -0.1826  0.3140  0.3639
   69SLPC   O13 5845   1.924   4.300  11.132  0.7405  0.3922  0.5998
   69SLPC   O14 5846   2.147   4.166  11.164  0.7532  0.7052  0.3453
   69SLPC   O12 5847   1.970   4.083  11.004  0.0048  0.0636  0.3158
   69SLPC   O11 5848   2.101   4.283  10.956  0.4612 -0.9039 -0.5749
   69SLPC    C1 5849   2.172   4.230  10.848 -0.8909 -1.4054 -0.1734
   69SLPC    HA 5850   2.276   4.271  10.845 -1.0829 -0.9739 -3.5674
   69SLPC    HB 5851   2.165   4.119  10.847  0.6372 -1.5120 -2.2134
   69SLPC    C2 5852   2.103   4.275  10.716 -0.1456 -0.1900 -0.3247
   69SLPC    HS 5853   2.151   4.240  10.622 -0.1675  0.5285 -0.6122
   69SLPC   O21 5854   2.098   4.420  10.716  0.4400  0.7747  0.1983
   69SLPC   C21 5855   2.148   4.486  10.612 -0.3412 -0.1256  0.1772
   69SLPC   O22 5856   2.243   4.449  10.546  0.6372  0.4694  0.1550
   69SLPC   C22 5857   2.067   4.616  10.590  0.1013  0.4409  0.1059
   69SLPC   H2R 5858   1.956   4.613  10.588  0.1342 -2.4389 -0.4093
   69SLPC   H2S 5859   2.088   4.688  10.672  0.8011  0.5434 -0.1665
   69SLPC    C3 5860   1.950   4.221  10.723  0.1939 -0.5658  0.1696
   69SLPC    HX 5861   1.903   4.239  10.822 -2.4117  2.4608 -1.5135
   69SLPC    HY 5862   1.958   4.111  10.709 -0.3166 -0.5223 -0.5243
   69SLPC   O31 5863   1.861   4.274  10.618  0.2578 -0.2773  0.5639
   69SLPC   C31 5864   1.903   4.246  10.487  0.0716  0.0061  0.1383
   69SLPC   O32 5865   2.005   4.188  10.460  0.3064  0.6363 -0.1875
   69SLPC   C32 5866   1.799   4.306  10.392  0.2909 -0.3329 -0.0723
   69SLPC   H2X 5867   1.755   4.392  10.446 -0.1329  0.4484 -1.6283
   69SLPC   H2Y 5868   1.713   4.236  10.383  0.6220 -0.5896 -1.2897
   69SLPC   C23 5869   2.119   4.683  10.461 -0.0304  0.2113 -0.0910
   69SLPC   H3R 5870   2.228   4.699  10.473  0.2833 -1.1978 -0.8714
   69SLPC   H3S 5871   2.067   4.780  10.453 -1.9780 -1.0382 -4.2104
   69SLPC   C24 5872   2.092   4.595  10.339 -0.4793  0.4361  0.5401
   69SLPC   H4R 5873   1.982   4.585  10.346 -0.4883  0.9022  1.0497
   69SLPC   H4S 5874   2.133   4.493  10.356 -0.7828  0.5469  1.9411
   69SLPC   C25 5875   2.139   4.659  10.205 -0.7205  0.8088  0.0289
   69SLPC   H5R 5876   2.238   4.710  10.209 -0.6603  0.6263  0.9501
   69SLPC   H5S 5877   2.076   4.749  10.186 -1.1791 -0.0136 -2.5651
   69SLPC   C26 5878   2.140   4.560  10.087 -0.3134  0.5171 -0.2189
   69SLPC   H6R 5879   2.038   4.518  10.098  0.6250 -1.4717  1.2958
   69SLPC   H6S 5880   2.221   4.485  10.100  0.0783  0.8284 -0.8153
   69SLPC   C27 5881   2.151   4.626   9.946  0.0899  0.0894 -0.3170
   69SLPC   H7R 5882   2.189   4.557   9.868  0.1523 -0.8669  0.5514
   69SLPC   H7S 5883   2.230   4.703   9.964  0.3496  0.0386 -1.2319
   69SLPC   C28 5884   2.024   4.694   9.901  0.3085  0.7500 -0.3574
   69SLPC   H8R 5885   2.069   4.760   9.824  1.9491 -0.0873 -0.1270
   69SLPC   H8S 5886   1.981   4.770   9.971 -0.6634  2.2210 -2.5107
   69SLPC   C29 5887   1.921   4.602   9.848  0.0025  0.7692  0.4224
   69SLPC   H9R 5888   1.870   4.539   9.922 -0.9481  0.2993 -0.6107
   69SLPC  C210 5889   1.895   4.579   9.714 -0.0202  0.2690  0.1956
   69SLPC  H10R 5890   1.810   4.515   9.685 -0.9991  1.2323  0.8746
   69SLPC  C211 5891   1.967   4.648   9.602 -0.1891 -0.1826 -0.3879
   69SLPC  H11R 5892   1.992   4.575   9.522 -2.6096 -0.4582 -0.9561
   69SLPC  H11S 5893   2.056   4.703   9.637 -0.2757  0.5630 -1.3049
   69SLPC  C212 5894   1.888   4.754   9.537  0.1520  0.2254  0.0682
   69SLPC  H12R 5895   1.864   4.840   9.602 -2.6406  0.2182 -0.8567
   69SLPC  C213 5896   1.825   4.747   9.416  0.4780 -0.4918 -0.0222
   69SLPC  H13R 5897   1.761   4.833   9.391  0.0766 -0.6539  0.4473
   69SLPC  C214 5898   1.826   4.634   9.318 -0.2687 -1.1148  0.5565
   69SLPC  H14R 5899   1.720   4.623   9.285 -0.3380 -0.0814  0.4157
   69SLPC  H14S 5900   1.849   4.534   9.361  1.7357 -0.1856  1.6985
   69SLPC  C215 5901   1.911   4.677   9.193  0.0890 -0.3443 -0.2384
   69SLPC  H15R 5902   1.934   4.583   9.139 -3.2313 -1.0046 -0.5627
   69SLPC  H15S 5903   2.009   4.718   9.227 -0.3922 -0.2818  1.1217
   69SLPC  C216 5904   1.838   4.775   9.098  0.1729 -0.1857 -0.4345
   69SLPC  H16R 5905   1.819   4.877   9.139  1.4466 -0.6618  1.4226
   69SLPC  H16S 5906   1.747   4.724   9.061  1.0382 -1.5513 -0.6937
   69SLPC  C217 5907   1.932   4.797   8.972  0.0867  0.2355 -0.5271
   69SLPC  H17R 5908   1.867   4.835   8.890 -1.2725  1.4565  1.0745
   69SLPC  H17S 5909   1.977   4.705   8.928 -0.4048  0.7846 -2.2178
   69SLPC  C218 5910   2.033   4.908   8.998 -0.1625  0.2585  0.7188
   69SLPC  H18R 5911   2.103   4.918   8.912  1.5915 -0.3972  2.0370
   69SLPC  H18S 5912   2.093   4.885   9.089 -0.3293  1.7577  1.2266
   69SLPC  H18T 5913   1.980   5.003   9.020 -1.0013 -0.0329 -0.0369
   69SLPC   C33 5914   1.843   4.336  10.251 -0.0737 -0.4745 -1.2340
   69SLPC   H3X 5915   1.947   4.376  10.257 -0.0628 -0.9255  2.0757
   69SLPC   H3Y 5916   1.778   4.411  10.200 -0.6943 -0.0619  0.1338
   69SLPC   C34 5917   1.839   4.210  10.169 -0.0422  0.0312 -0.3032
   69SLPC   H4X 5918   1.737   4.167  10.174  0.2377 -0.5245  0.8634
   69SLPC   H4Y 5919   1.899   4.136  10.228  0.4250  2.2507  2.1009
   69SLPC   C35 5920   1.894   4.232  10.024 -0.4892  0.6305  0.0329
   69SLPC   H5X 5921   1.972   4.311  10.021 -1.6936  1.8210 -1.0121
   69SLPC   H5Y 5922   1.817   4.274   9.955  0.7833 -0.7951 -2.3019
   69SLPC   C36 5923   1.955   4.102   9.961 -0.2140 -0.0216 -0.3902
   69SLPC   H6X 5924   1.870   4.032   9.943  1.2080 -1.6758 -0.8487
   69SLPC   H6Y 5925   2.024   4.049  10.030 -2.2214 -1.1419  0.8408
   69SLPC   C37 5926   2.025   4.137   9.826 -0.0618  0.4215  0.3072
   69SLPC   H7X 5927   2.077   4.045   9.795 -2.0559 -1.0039  1.1024
   69SLPC   H7Y 5928   2.105   4.211   9.851 -0.6752  0.7492  1.3345
   69SLPC   C38 5929   1.925   4.187   9.721 -0.6124 -0.5016 -0.2116
   69SLPC   H8X 5930   1.866   4.278   9.745  1.3234  0.8576 -0.4506
   69SLPC   H8Y 5931   1.855   4.113   9.678 -0.7797 -0.2551 -0.3681
   69SLPC   C39 5932   2.008   4.234   9.600 -0.3252 -0.1109 -0.2557
   69SLPC   H9X 5933   2.055   4.330   9.630  0.3010  0.1197 -1.9302
   69SLPC   H9Y 5934   1.939   4.257   9.516 -0.6359 -1.8416 -0.4953
   69SLPC  C310 5935   2.096   4.127   9.534  0.2282  0.1264  0.1272
   69SLPC  H10X 5936   2.043   4.029   9.537 -1.1236  0.7430 -2.0798
   69SLPC  H10Y 5937   2.182   4.108   9.601  1.4893  0.2183 -1.4191
   69SLPC  C311 5938   2.142   4.147   9.389  0.6306 -0.0664 -0.2120
   69SLPC  H11X 5939   2.179   4.048   9.355 -2.3634 -0.7067 -1.8634
   69SLPC  H11Y 5940   2.221   4.224   9.387  1.1182 -0.5153  1.2192
   69SLPC  C312 5941   2.023   4.176   9.289 -0.1437  0.2464 -0.9625
   69SLPC  H12X 5942   1.972   4.271   9.317  2.5076  1.1902  0.7421
   69SLPC  H12Y 5943   1.948   4.094   9.281  1.0103 -0.6789 -2.3878
   69SLPC  C313 5944   2.072   4.178   9.145 -0.7112 -0.2068  1.1255
   69SLPC  H13X 5945   2.072   4.077   9.100  1.9681  0.4567 -0.4820
   69SLPC  H13Y 5946   2.179   4.207   9.144 -0.6899 -0.2928 -0.3809
   69SLPC  C314 5947   1.999   4.280   9.061 -0.5550 -0.4855 -0.3799
   69SLPC  H14X 5948   2.034   4.380   9.094 -1.4557 -0.3205  0.1143
   69SLPC  H14Y 5949   1.889   4.284   9.080 -0.5144  2.1204 -0.5027
   69SLPC  C315 5950   2.032   4.268   8.913  0.0581 -0.3609 -0.0400
   69SLPC  H15X 5951   1.977   4.182   8.869 -1.8409  1.1457 -0.7182
   69SLPC  H15Y 5952   2.140   4.253   8.897  0.4491  1.4337  0.7432
   69SLPC  C316 5953   1.984   4.392   8.835 -0.0910 -0.8377 -0.2252
   69SLPC  H16X 5954   2.026   4.486   8.876  0.8718 -0.5388 -1.8517
   69SLPC  H16Y 5955   1.874   4.400   8.844 -0.0291 -0.9425  0.7425
   69SLPC  C317 5956   2.016   4.384   8.686  0.4284  0.9286 -0.3146
   69SLPC  H17X 5957   1.935   4.337   8.627 -2.1453  3.0190  1.4013
   69SLPC  H17Y 5958   2.103   4.318   8.666  0.8213  2.4430 -3.9617
   69SLPC  C318 5959   2.038   4.521   8.616 -0.2393 -0.0390  0.3838
   69SLPC  H18X 5960   1.967   4.604   8.633 -1.4844 -0.9971 -0.0178
   69SLPC  H18Y 5961   2.035   4.504   8.506 -0.4656 -3.2034  0.8162
   69SLPC  H18Z 5962   2.127   4.576   8.653  0.9033 -0.6729 -1.3524
   70SLPC     N 5963   2.985   2.294  11.277 -0.0820  0.8128  0.5304
   70SLPC   C13 5964   2.850   2.355  11.251  0.6186 -0.0787 -0.0642
   70SLPC  H13A 5965   2.812   2.299  11.167 -0.4714  0.7012 -0.1106
   70SLPC  H13B 5966   2.783   2.346  11.336 -2.5898  1.8976 -2.2471
   70SLPC  H13C 5967   2.861   2.459  11.226  0.3343  0.1429  0.7004
   70SLPC   C14 5968   2.973   2.147  11.312 -0.1671 -0.7608  0.1810
   70SLPC  H14A 5969   2.952   2.089  11.223 -0.5742 -0.0073 -0.2231
   70SLPC  H14B 5970   3.067   2.117  11.355 -0.8761  0.1812  2.4806
   70SLPC  H14C 5971   2.888   2.139  11.378  0.0163  0.1994  0.5538
   70SLPC   C15 5972   3.053   2.353  11.395  0.2091 -0.4205 -0.6439
   70SLPC  H15A 5973   3.006   2.322  11.487  0.6342  0.5311 -0.1085
   70SLPC  H15B 5974   3.146   2.298  11.403 -0.9232 -2.5717 -1.7492
   70SLPC  H15C 5975   3.056   2.461  11.396  0.1519 -0.4250  0.1158
   70SLPC   C12 5976   3.078   2.311  11.156 -0.3894  0.3068 -0.2052
   70SLPC  H12A 5977   3.173   2.263  11.170 -0.2805  0.4125 -0.5831
   70SLPC  H12B 5978   3.099   2.415  11.136 -3.7553  0.9095 -0.9999
   70SLPC   C11 5979   3.030   2.248  11.023 -0.9379  0.6169  0.0889
   70SLPC  H11A 5980   3.107   2.277  10.948  0.3913 -2.0309  0.3691
   70SLPC  H11B 5981   2.935   2.301  10.999 -0.7199  0.1040 -2.0867
   70SLPC     P 5982   3.149   2.017  11.030  0.2213 -0.1161  0.0313
   70SLPC   O13 5983   3.241   2.074  11.128  0.1452  0.4357 -0.5238
   70SLPC   O14 5984   3.105   1.874  11.041  0.2272 -0.3114  0.1459
   70SLPC   O12 5985   3.015   2.107  11.035 -0.3007  0.2216  0.6838
   70SLPC   O11 5986   3.194   2.042  10.881 -0.3319  0.1300 -0.5282
   70SLPC    C1 5987   3.101   2.031  10.766 -0.6891  0.0306  0.3298
   70SLPC    HA 5988   2.993   2.029  10.792 -0.8462 -2.7827 -0.4146
   70SLPC    HB 5989   3.120   2.114  10.694 -0.2323 -1.3873 -1.2004
   70SLPC    C2 5990   3.132   1.898  10.688 -0.8804  0.0827 -0.0132
   70SLPC    HS 5991   3.126   1.817  10.764  1.9331  1.6946  2.0394
   70SLPC   O21 5992   3.259   1.914  10.623 -0.2081  0.5122  0.0447
   70SLPC   C21 5993   3.323   1.803  10.593 -1.2291  0.7256 -0.2068
   70SLPC   O22 5994   3.304   1.693  10.634  0.3078  0.1860  0.5487
   70SLPC   C22 5995   3.436   1.843  10.494 -0.6596  0.0566 -0.2891
   70SLPC   H2R 5996   3.397   1.926  10.432  1.0224 -1.3463 -3.3814
   70SLPC   H2S 5997   3.516   1.889  10.555 -0.7185 -0.9130  0.5269
   70SLPC    C3 5998   3.027   1.861  10.576  0.0953 -0.6336 -0.1122
   70SLPC    HX 5999   2.932   1.826  10.621  0.6326 -0.6163  1.0502
   70SLPC    HY 6000   3.075   1.774  10.526 -2.4645 -2.0679 -0.1600
   70SLPC   O31 6001   2.995   1.967  10.480 -0.0061 -0.3591  0.1365
   70SLPC   C31 6002   3.049   1.972  10.358 -0.2076 -0.0685 -0.2367
   70SLPC   O32 6003   3.121   1.892  10.308 -0.3719  0.1788  0.6761
   70SLPC   C32 6004   3.005   2.111  10.297  0.2474 -0.1707  0.0294
   70SLPC   H2X 6005   3.078   2.141  10.219 -1.0830  0.5154 -0.9792
   70SLPC   H2Y 6006   3.025   2.189  10.374 -0.1438 -0.7456  0.7155
   70SLPC   C23 6007   3.488   1.737  10.401  0.4362  0.3634 -0.0454
   70SLPC   H3R 6008   3.521   1.656  10.469  1.4279  0.2218 -0.6839
   70SLPC   H3S 6009   3.574   1.768  10.338  0.0128  0.0875 -0.7626
   70SLPC   C24 6010   3.390   1.685  10.301 -0.4295  0.5560  0.3436
   70SLPC   H4R 6011   3.353   1.766  10.234 -3.1176  0.4555  1.6233
   70SLPC   H4S 6012   3.299   1.638  10.345 -0.6163 -0.3311 -0.9676
   70SLPC   C25 6013   3.453   1.574  10.208 -0.6009  0.6224  0.8145
   70SLPC   H5R 6014   3.496   1.489  10.265  0.8488 -0.3990 -1.6704
   70SLPC   H5S 6015   3.542   1.622  10.162  0.0124  0.9286  2.3085
   70SLPC   C26 6016   3.343   1.528  10.100 -0.0125  0.4380  0.4924
   70SLPC   H6R 6017   3.301   1.612  10.040  1.6342  1.6911  1.0257
   70SLPC   H6S 6018   3.258   1.484  10.155  0.6262 -1.7938 -0.2809
   70SLPC   C27 6019   3.396   1.423  10.001 -0.7819  0.2252 -0.8102
   70SLPC   H7R 6020   3.444   1.339  10.056 -1.7049 -0.0027 -0.3534
   70SLPC   H7S 6021   3.473   1.482   9.946 -1.1796 -0.7171 -2.4147
   70SLPC   C28 6022   3.286   1.369   9.912 -0.2091 -0.8333 -0.7253
   70SLPC   H8R 6023   3.246   1.455   9.854 -1.6707  0.3463  1.9562
   70SLPC   H8S 6024   3.191   1.346   9.965  0.2226 -2.0445 -0.4592
   70SLPC   C29 6025   3.311   1.246   9.834 -0.4783 -0.5342  0.2861
   70SLPC   H9R 6026   3.279   1.153   9.884  1.6440 -3.1636 -3.0395
   70SLPC  C210 6027   3.354   1.236   9.706 -0.2139 -0.7448 -0.0023
   70SLPC  H10R 6028   3.361   1.137   9.660  2.2809 -1.0654  1.0017
   70SLPC  C211 6029   3.401   1.351   9.617 -0.0708 -0.9388  0.8730
   70SLPC  H11R 6030   3.493   1.321   9.562  0.5864 -0.9249  1.9403
   70SLPC  H11S 6031   3.443   1.435   9.676 -2.7253  3.2694 -2.9725
   70SLPC  C212 6032   3.295   1.402   9.524  0.2727  0.0034 -0.5863
   70SLPC  H12R 6033   3.232   1.484   9.563  0.2803  0.3491 -1.2940
   70SLPC  C213 6034   3.273   1.376   9.394 -0.3580 -0.0590  0.0990
   70SLPC  H13R 6035   3.169   1.398   9.364 -0.8334 -1.1502  0.8974
   70SLPC  C214 6036   3.354   1.267   9.321  0.8797  0.3622  0.5816
   70SLPC  H14R 6037   3.300   1.170   9.315  0.0045  0.8382  0.7527
   70SLPC  H14S 6038   3.453   1.259   9.371  1.2136  1.3780  0.0767
   70SLPC  C215 6039   3.379   1.299   9.165  0.0385  0.2932  0.0801
   70SLPC  H15R 6040   3.468   1.237   9.139  0.3934 -0.0551  2.0270
   70SLPC  H15S 6041   3.395   1.409   9.151 -0.6997  0.4724  0.6259
   70SLPC  C216 6042   3.252   1.264   9.072 -0.4427  0.3749 -0.0965
   70SLPC  H16R 6043   3.158   1.315   9.102 -1.6389 -1.5928 -0.4203
   70SLPC  H16S 6044   3.251   1.154   9.084  1.7935  0.3848  0.5335
   70SLPC  C217 6045   3.261   1.299   8.919  0.1163 -0.8826 -0.2612
   70SLPC  H17R 6046   3.163   1.278   8.872 -1.0142  1.7885  0.8222
   70SLPC  H17S 6047   3.337   1.227   8.881 -0.0710 -1.0067 -0.3997
   70SLPC  C218 6048   3.299   1.438   8.870  1.0480  0.1803  0.2391
   70SLPC  H18R 6049   3.314   1.440   8.760  2.5877 -3.7256  0.3219
   70SLPC  H18S 6050   3.391   1.474   8.922  0.5351  1.7606  0.0747
   70SLPC  H18T 6051   3.222   1.511   8.904  2.0342  0.3260  2.2097
   70SLPC   C33 6052   2.857   2.096  10.259  0.9587 -0.2177 -0.2212
   70SLPC   H3X 6053   2.803   2.192  10.247  1.1773  0.0854  1.1699
   70SLPC   H3Y 6054   2.800   2.041  10.337  2.5633 -0.9065  0.4831
   70SLPC   C34 6055   2.855   2.033  10.120  0.3836  0.3589 -0.3352
   70SLPC   H4X 6056   2.898   1.931  10.130  0.2308  0.3712  0.4686
   70SLPC   H4Y 6057   2.913   2.096  10.048 -0.4525  2.2380  0.6153
   70SLPC   C35 6058   2.712   2.022  10.062  0.2763 -1.0494  0.0513
   70SLPC   H5X 6059   2.656   2.116  10.045 -0.1205 -1.2602  0.1826
   70SLPC   H5Y 6060   2.653   1.969  10.140 -1.3631  0.5552 -0.0717
   70SLPC   C36 6061   2.701   1.946   9.929 -0.1116  0.5060 -0.3264
   70SLPC   H6X 6062   2.597   1.910   9.911  0.5730 -1.2117 -1.0098
   70SLPC   H6Y 6063   2.759   1.851   9.933 -1.8166 -0.5091  0.5730
   70SLPC   C37 6064   2.743   2.027   9.807  0.1636  0.2561 -0.0189
   70SLPC   H7X 6065   2.851   2.047   9.825 -0.3820  1.7884  1.7292
   70SLPC   H7Y 6066   2.697   2.128   9.800 -1.6220 -0.4918  0.7112
   70SLPC   C38 6067   2.718   1.964   9.673 -0.4513  0.4543 -0.0061
   70SLPC   H8X 6068   2.617   1.918   9.680  0.2544 -0.9975  0.8879
   70SLPC   H8Y 6069   2.797   1.887   9.658 -1.5563 -0.7732  0.4061
   70SLPC   C39 6070   2.735   2.056   9.554 -0.4337  0.1106 -0.5380
   70SLPC   H9X 6071   2.832   2.107   9.571 -0.2972 -0.5166  0.5676
   70SLPC   H9Y 6072   2.650   2.128   9.553  0.1462  0.8259  0.9380
   70SLPC  C310 6073   2.733   1.979   9.424  0.3652  0.3049 -0.1032
   70SLPC  H10X 6074   2.649   1.907   9.419 -0.3409  1.0360  1.0956
   70SLPC  H10Y 6075   2.826   1.929   9.389  0.4913  0.5716 -0.1453
   70SLPC  C311 6076   2.721   2.083   9.315 -0.0360  0.3294 -0.1719
   70SLPC  H11X 6077   2.806   2.153   9.329  1.2806 -0.7702 -2.3729
   70SLPC  H11Y 6078   2.630   2.144   9.329 -0.3239  0.3420 -2.0196
   70SLPC  C312 6079   2.734   2.016   9.185 -0.7412 -0.2310  1.1013
   70SLPC  H12X 6080   2.642   1.954   9.177 -1.8217  1.3686  0.8202
   70SLPC  H12Y 6081   2.828   1.957   9.184 -0.0433  0.8756 -0.6654
   70SLPC  C313 6082   2.737   2.116   9.068 -0.9996 -0.7954 -0.4058
   70SLPC  H13X 6083   2.828   2.175   9.091 -0.4135 -1.6699 -0.4417
   70SLPC  H13Y 6084   2.643   2.174   9.081  0.0183  0.7088  0.3647
   70SLPC  C314 6085   2.765   2.058   8.927  0.1347  0.9008 -0.6606
   70SLPC  H14X 6086   2.669   2.009   8.901 -0.2234  0.6025  1.1728
   70SLPC  H14Y 6087   2.837   1.980   8.956 -1.4947  0.1095  1.3785
   70SLPC  C315 6088   2.807   2.160   8.828  0.6583  0.4366 -0.1033
   70SLPC  H15X 6089   2.906   2.202   8.857  2.7783 -2.4988 -2.7450
   70SLPC  H15Y 6090   2.742   2.247   8.849 -0.0355 -0.4708  1.5532
   70SLPC  C316 6091   2.803   2.132   8.680  0.2599  1.3631  0.6811
   70SLPC  H16X 6092   2.702   2.133   8.634  0.5929 -2.4074 -0.3017
   70SLPC  H16Y 6093   2.837   2.026   8.676 -0.5419  1.0727  1.4211
   70SLPC  C317 6094   2.894   2.231   8.604 -0.5667 -0.0173 -0.2055
   70SLPC  H17X 6095   2.907   2.206   8.497  3.3177  1.0845 -0.0550
   70SLPC  H17Y 6096   2.997   2.220   8.644 -0.8544 -0.7621  0.3652
   70SLPC  C318 6097   2.846   2.368   8.628 -0.1446  0.1608  0.5006
   70SLPC  H18X 6098   2.857   2.398   8.735 -1.0025  0.9644  0.3611
   70SLPC  H18Y 6099   2.739   2.378   8.600  0.1832  2.3804 -0.0598
   70SLPC  H18Z 6100   2.911   2.431   8.564  2.0057 -2.3400  0.1397
   71SLPC     N 6101   3.294   0.177  10.874  0.5857 -0.0402  0.2240
   71SLPC   C13 6102   3.284   0.085  10.759  0.0699  0.0300  0.0404
   71SLPC  H13A 6103   3.377   0.063  10.710  0.8432  0.6556  1.1896
   71SLPC  H13B 6104   3.229  -0.001  10.793 -0.9131  1.1492  1.3636
   71SLPC  H13C 6105   3.230   0.128  10.676  2.2235  1.7568 -0.5328
   71SLPC   C14 6106   3.370   0.109  10.991 -0.1492  0.1125 -0.3447
   71SLPC  H14A 6107   3.300   0.038  11.033  2.1433 -1.1285  1.4598
   71SLPC  H14B 6108   3.456   0.053  10.957  0.9275  1.9106 -0.6623
   71SLPC  H14C 6109   3.394   0.171  11.076 -0.8776  1.7923 -1.3286
   71SLPC   C15 6110   3.154   0.210  10.919  0.0981  0.3748 -0.5246
   71SLPC  H15A 6111   3.106   0.119  10.952  1.3586 -0.0014  0.2763
   71SLPC  H15B 6112   3.146   0.285  10.997 -0.2856  0.0296 -0.2316
   71SLPC  H15C 6113   3.089   0.240  10.838 -3.8301  1.0292  2.6870
   71SLPC   C12 6114   3.365   0.306  10.839 -0.5282 -0.2386 -0.2449
   71SLPC  H12A 6115   3.470   0.286  10.825  0.7820  3.5165  3.1752
   71SLPC  H12B 6116   3.361   0.376  10.922  3.1790  0.6261 -0.7265
   71SLPC   C11 6117   3.308   0.378  10.718 -0.5941  0.5562  0.0865
   71SLPC  H11A 6118   3.298   0.307  10.633 -0.1065  0.3920  0.1604
   71SLPC  H11B 6119   3.381   0.456  10.685 -0.0785 -0.0908 -0.3256
   71SLPC     P 6120   3.129   0.543  10.637 -0.2229 -0.0836 -0.1235
   71SLPC   O13 6121   2.986   0.515  10.616 -0.3000 -0.2076 -0.4378
   71SLPC   O14 6122   3.161   0.684  10.660 -0.1043 -0.0564 -0.5065
   71SLPC   O12 6123   3.186   0.446  10.750 -0.1588  0.3364 -0.0579
   71SLPC   O11 6124   3.199   0.501  10.502 -0.0999 -0.0097 -0.1811
   71SLPC    C1 6125   3.206   0.582  10.385 -0.7076 -0.2066  0.1854
   71SLPC    HA 6126   3.141   0.670  10.403 -1.6654 -0.4046 -2.1013
   71SLPC    HB 6127   3.309   0.619  10.372 -1.0215  0.6016 -0.0331
   71SLPC    C2 6128   3.166   0.500  10.258 -0.7352  0.1389 -0.0337
   71SLPC    HS 6129   3.150   0.567  10.172  1.7448 -1.2731 -1.6378
   71SLPC   O21 6130   3.052   0.409  10.274  0.1631 -0.7467  0.5488
   71SLPC   C21 6131   2.939   0.478  10.285 -0.4002 -0.5454 -0.4252
   71SLPC   O22 6132   2.926   0.597  10.268  0.3674 -1.0631 -0.0477
   71SLPC   C22 6133   2.829   0.383  10.334 -0.0993  0.2913  0.3419
   71SLPC   H2R 6134   2.847   0.282  10.291  1.5382  0.1734  1.2944
   71SLPC   H2S 6135   2.844   0.368  10.443  0.5138  1.4350  0.4218
   71SLPC    C3 6136   3.284   0.409  10.228 -0.6821  0.7113 -0.0133
   71SLPC    HX 6137   3.320   0.357  10.319  0.7912 -1.3514 -1.7197
   71SLPC    HY 6138   3.376   0.470  10.212 -1.7323  2.9232  2.0682
   71SLPC   O31 6139   3.266   0.319  10.118  0.3860 -0.2644  0.4208
   71SLPC   C31 6140   3.220   0.197  10.156  0.0942 -0.0512  0.2679
   71SLPC   O32 6141   3.216   0.154  10.266  0.3524 -0.2309  0.2648
   71SLPC   C32 6142   3.189   0.121  10.024 -0.1250 -0.5599 -0.7496
   71SLPC   H2X 6143   3.276   0.063   9.987 -2.5549 -5.0566  0.2260
   71SLPC   H2Y 6144   3.157   0.197   9.950 -0.7061 -1.2236 -1.1851
   71SLPC   C23 6145   2.688   0.427  10.302  0.2340  0.6484  0.3302
   71SLPC   H3R 6146   2.675   0.535  10.326  4.2484  0.9788  1.4011
   71SLPC   H3S 6147   2.628   0.390  10.388 -0.0733  0.0111 -0.1530
   71SLPC   C24 6148   2.631   0.373  10.169  0.2942  0.2737  0.8898
   71SLPC   H4R 6149   2.520   0.371  10.168  0.3082 -0.5517 -1.3056
   71SLPC   H4S 6150   2.662   0.266  10.164  3.1935  0.8858  3.8006
   71SLPC   C25 6151   2.667   0.462  10.048  0.1545  0.2318  0.4557
   71SLPC   H5R 6152   2.773   0.450  10.018 -0.4132 -1.0488 -1.1043
   71SLPC   H5S 6153   2.648   0.568  10.075 -1.1632  0.0281  0.3614
   71SLPC   C26 6154   2.575   0.424   9.920  0.1766 -0.2208 -0.3752
   71SLPC   H6R 6155   2.471   0.453   9.944  0.0749 -1.2366  0.4303
   71SLPC   H6S 6156   2.564   0.315   9.905  0.5649 -0.3372  0.1501
   71SLPC   C27 6157   2.621   0.498   9.796  1.1494 -0.0565 -0.5200
   71SLPC   H7R 6158   2.707   0.448   9.746  0.0435 -0.9637 -1.5717
   71SLPC   H7S 6159   2.636   0.604   9.825  0.0574 -0.5563  1.9922
   71SLPC   C28 6160   2.508   0.491   9.696 -0.2075 -0.0621 -0.0233
   71SLPC   H8R 6161   2.529   0.580   9.633  1.2643 -0.4929 -0.1667
   71SLPC   H8S 6162   2.411   0.519   9.740 -0.7996  0.1618 -1.4457
   71SLPC   C29 6163   2.495   0.371   9.604  0.6667  0.0753  0.4057
   71SLPC   H9R 6164   2.455   0.284   9.658  0.2632 -0.0406 -0.0810
   71SLPC  C210 6165   2.549   0.361   9.484 -0.3442 -0.1736 -0.2868
   71SLPC  H10R 6166   2.527   0.270   9.427 -0.4326 -0.5063  0.2725
   71SLPC  C211 6167   2.632   0.460   9.402  0.3718 -0.1664  0.1718
   71SLPC  H11R 6168   2.688   0.410   9.321 -0.1973  0.1465 -0.4167
   71SLPC  H11S 6169   2.707   0.516   9.463 -0.3395  1.4368 -0.3884
   71SLPC  C212 6170   2.549   0.562   9.333  0.5278 -0.2979  0.6872
   71SLPC  H12R 6171   2.509   0.639   9.402 -0.7391 -0.5989  0.3144
   71SLPC  C213 6172   2.512   0.575   9.202 -0.1564 -0.0008  0.8687
   71SLPC  H13R 6173   2.442   0.656   9.177 -0.1816 -0.1413  0.4865
   71SLPC  C214 6174   2.538   0.481   9.084  0.1845 -0.3981  0.2493
   71SLPC  H14R 6175   2.446   0.466   9.024  0.5628  0.7693 -0.6498
   71SLPC  H14S 6176   2.582   0.382   9.107 -0.4069 -1.1599 -1.8337
   71SLPC  C215 6177   2.631   0.573   8.991  0.6363 -0.3922  1.1991
   71SLPC  H15R 6178   2.729   0.599   9.035  0.3360  0.4567  1.3646
   71SLPC  H15S 6179   2.578   0.669   8.970  2.1722  0.5883  1.7749
   71SLPC  C216 6180   2.656   0.494   8.860  0.2179 -0.4203  0.1914
   71SLPC  H16R 6181   2.565   0.456   8.810 -0.0541 -0.9618  1.0856
   71SLPC  H16S 6182   2.702   0.393   8.874 -1.2617 -1.4549 -2.0660
   71SLPC  C217 6183   2.739   0.568   8.752  0.2472 -0.1204  0.2153
   71SLPC  H17R 6184   2.817   0.632   8.798 -0.0616 -0.6198  1.4732
   71SLPC  H17S 6185   2.664   0.630   8.699 -1.1405 -0.5945  1.5718
   71SLPC  C218 6186   2.806   0.479   8.650 -0.2529  0.3034 -1.2720
   71SLPC  H18R 6187   2.853   0.544   8.574  0.7448  2.2621  0.9408
   71SLPC  H18S 6188   2.733   0.406   8.609  0.8583 -0.7560 -1.3685
   71SLPC  H18T 6189   2.875   0.417   8.711  1.5661  2.2316 -1.3020
   71SLPC   C33 6190   3.057   0.037  10.046 -0.2075  0.2120 -0.4103
   71SLPC   H3X 6191   3.070  -0.021  10.140  0.6227  1.0591  0.0090
   71SLPC   H3Y 6192   3.050  -0.041   9.967 -2.9371 -1.0518  1.0171
   71SLPC   C34 6193   2.922   0.119  10.050  0.2096  0.4566  0.3057
   71SLPC   H4X 6194   2.948   0.222  10.082  0.5501 -0.1276  1.9464
   71SLPC   H4Y 6195   2.850   0.074  10.122 -2.3253  0.6332 -2.0426
   71SLPC   C35 6196   2.854   0.127   9.908  0.0569  0.5600 -0.1396
   71SLPC   H5X 6197   2.763   0.189   9.925 -0.8926 -1.0293  0.6977
   71SLPC   H5Y 6198   2.817   0.028   9.873 -2.3374  1.7445 -1.1523
   71SLPC   C36 6199   2.938   0.182   9.795  0.4282 -0.1856  0.0243
   71SLPC   H6X 6200   3.041   0.140   9.803  0.4821 -0.5369 -2.2803
   71SLPC   H6Y 6201   2.937   0.293   9.803 -0.9017 -0.2358  0.7381
   71SLPC   C37 6202   2.866   0.142   9.667  0.6221  0.0920  0.5346
   71SLPC   H7X 6203   2.780   0.212   9.667 -0.6348 -1.4190  2.0181
   71SLPC   H7Y 6204   2.835   0.036   9.665 -1.6897  0.7591 -1.5373
   71SLPC   C38 6205   2.944   0.171   9.538  0.5285  0.1101 -0.5569
   71SLPC   H8X 6206   2.904   0.111   9.454  1.0400  0.4306 -1.0303
   71SLPC   H8Y 6207   3.047   0.135   9.552  0.3045  0.3869  2.0600
   71SLPC   C39 6208   2.947   0.328   9.514  0.3687  1.0758 -0.6715
   71SLPC   H9X 6209   2.993   0.358   9.611  0.3015 -1.2089  0.1242
   71SLPC   H9Y 6210   2.849   0.379   9.503 -0.2380  0.1133  0.1414
   71SLPC  C310 6211   3.043   0.363   9.402  0.4643 -0.3965  0.4866
   71SLPC  H10X 6212   3.141   0.313   9.422  0.0961 -1.0568  0.6661
   71SLPC  H10Y 6213   3.043   0.474   9.412 -2.2513 -0.4844  1.9356
   71SLPC  C311 6214   2.989   0.317   9.269 -0.0028  0.7892 -0.0654
   71SLPC  H11X 6215   2.908   0.386   9.237 -1.1959  0.0223  1.2563
   71SLPC  H11Y 6216   2.953   0.213   9.270  0.7728  0.5140  0.3470
   71SLPC  C312 6217   3.092   0.329   9.161 -0.0869  0.5350  0.7269
   71SLPC  H12X 6218   3.172   0.254   9.180 -1.7534 -1.2180  0.9877
   71SLPC  H12Y 6219   3.153   0.422   9.164  0.8959 -0.1185  2.0161
   71SLPC  C313 6220   3.038   0.320   9.018  0.1140 -0.3701 -0.0544
   71SLPC  H13X 6221   2.964   0.402   9.003 -0.2806 -0.9293 -1.2723
   71SLPC  H13Y 6222   2.975   0.228   9.014 -0.2982 -0.2206  2.4298
   71SLPC  C314 6223   3.142   0.335   8.912  0.0898  0.0343 -0.5982
   71SLPC  H14X 6224   3.242   0.362   8.953 -1.1281  5.0038 -0.5920
   71SLPC  H14Y 6225   3.118   0.432   8.862 -1.6731  0.1827  0.5018
   71SLPC  C315 6226   3.151   0.219   8.806  0.2565  0.8335 -0.2346
   71SLPC  H15X 6227   3.064   0.212   8.738  1.5828 -1.2048 -1.7842
   71SLPC  H15Y 6228   3.140   0.121   8.857  0.8824  0.8091 -0.1415
   71SLPC  C316 6229   3.288   0.235   8.737  0.2495 -0.2802 -0.1099
   71SLPC  H16X 6230   3.362   0.242   8.819 -0.1399 -0.3723  0.2445
   71SLPC  H16Y 6231   3.298   0.326   8.674 -0.3608 -0.2906 -0.2325
   71SLPC  C317 6232   3.327   0.111   8.661  0.1185 -0.4155 -0.2979
   71SLPC  H17X 6233   3.233   0.053   8.647 -0.0689  0.1515 -1.4436
   71SLPC  H17Y 6234   3.393   0.052   8.728 -0.0667 -0.8412 -0.4870
   71SLPC  C318 6235   3.406   0.156   8.539 -0.1654 -0.2056 -0.5905
   71SLPC  H18X 6236   3.486   0.225   8.574  0.6195  0.3402 -3.3409
   71SLPC  H18Y 6237   3.335   0.199   8.465 -3.0966 -4.0741 -0.2052
   71SLPC  H18Z 6238   3.457   0.066   8.498 -1.8576 -0.5817 -1.9126
   72SLPC     N 6239   3.891   5.348  11.045 -0.1211 -0.6165 -0.2221
   72SLPC   C13 6240   3.998   5.333  10.941 -0.2084  0.7734  0.6463
   72SLPC  H13A 6241   4.036   5.428  10.908  2.3523 -0.5307 -0.3244
   72SLPC  H13B 6242   4.090   5.290  10.978  0.3199  1.8540  0.6052
   72SLPC  H13C 6243   3.961   5.293  10.848  2.4699 -1.5394  0.4994
   72SLPC   C14 6244   3.943   5.444  11.154  0.5636 -0.3308  0.7470
   72SLPC  H14A 6245   3.860   5.485  11.210  0.6803  0.3840  0.3953
   72SLPC  H14B 6246   4.007   5.390  11.223  1.1840 -2.7983 -1.6886
   72SLPC  H14C 6247   4.001   5.522  11.106  0.3053  0.4519  1.6956
   72SLPC   C15 6248   3.869   5.219  11.120 -0.1108 -0.2335 -0.0548
   72SLPC  H15A 6249   3.965   5.181  11.152 -1.4584 -4.3329 -0.5428
   72SLPC  H15B 6250   3.803   5.230  11.204 -0.7100  2.1567 -0.8088
   72SLPC  H15C 6251   3.819   5.143  11.061 -0.8929  0.3944 -0.1941
   72SLPC   C12 6252   3.764   5.399  10.984 -0.0739  0.6044 -0.4339
   72SLPC  H12A 6253   3.691   5.415  11.062  0.2289  0.6325 -0.1544
   72SLPC  H12B 6254   3.730   5.319  10.919  1.5539 -0.2800 -0.2041
   72SLPC   C11 6255   3.765   5.522  10.887 -0.1467  0.1482 -1.1156
   72SLPC  H11A 6256   3.773   5.605  10.960  1.0218 -1.1410  0.2708
   72SLPC  H11B 6257   3.660   5.523  10.852 -0.7463 -2.1002  0.4806
   72SLPC     P 6258   3.840   5.492  10.637 -0.2918  0.1654 -0.1771
   72SLPC   O13 6259   3.890   5.606  10.555 -0.0359 -0.2938 -0.1391
   72SLPC   O14 6260   3.908   5.365  10.612 -0.4281  0.2938 -0.0828
   72SLPC   O12 6261   3.869   5.529  10.792  0.2407  0.1300  0.5241
   72SLPC   O11 6262   3.680   5.463  10.627 -0.2741 -0.4268 -0.4350
   72SLPC    C1 6263   3.627   5.341  10.571 -0.1416  0.9360 -0.0089
   72SLPC    HA 6264   3.667   5.247  10.615 -1.7422 -0.3132 -1.1776
   72SLPC    HB 6265   3.520   5.332  10.600  0.4737  0.1068  2.1464
   72SLPC    C2 6266   3.621   5.339  10.417 -0.3860 -0.2619  0.5543
   72SLPC    HS 6267   3.724   5.354  10.378 -1.0373  1.1377 -0.6741
   72SLPC   O21 6268   3.531   5.439  10.375 -0.1432  0.1010 -0.1697
   72SLPC   C21 6269   3.582   5.507  10.274 -0.0963  0.4914  0.1253
   72SLPC   O22 6270   3.684   5.482  10.214 -0.2835  0.0662 -0.3976
   72SLPC   C22 6271   3.497   5.632  10.240 -0.6885 -0.0648  0.4602
   72SLPC   H2R 6272   3.387   5.615  10.246 -0.7356 -0.0874 -0.4230
   72SLPC   H2S 6273   3.506   5.706  10.323  0.7011 -0.8803  1.0540
   72SLPC    C3 6274   3.569   5.203  10.368  0.2260  0.2890 -1.2814
   72SLPC    HX 6275   3.462   5.191  10.395  1.1275 -0.4192  2.3327
   72SLPC    HY 6276   3.625   5.121  10.419 -2.8338 -1.2645 -0.3117
   72SLPC   O31 6277   3.580   5.176  10.230  0.4197 -0.3928 -0.3856
   72SLPC   C31 6278   3.693   5.126  10.187 -0.1416  0.8293 -0.2339
   72SLPC   O32 6279   3.779   5.076  10.257  0.1628  0.1850 -0.2955
   72SLPC   C32 6280   3.679   5.117  10.038  0.3294  0.5129 -0.4363
   72SLPC   H2X 6281   3.575   5.091  10.008  0.6280 -1.9314  0.4978
   72SLPC   H2Y 6282   3.741   5.029  10.010 -0.7615  0.1664 -1.8149
   72SLPC   C23 6283   3.531   5.702  10.110  0.0864 -0.9560  0.1209
   72SLPC   H3R 6284   3.638   5.721  10.086 -0.7107  3.4453 -0.4214
   72SLPC   H3S 6285   3.485   5.803  10.103 -0.2577 -1.0509  1.0129
   72SLPC   C24 6286   3.461   5.646   9.985 -0.8025  0.2820  0.3527
   72SLPC   H4R 6287   3.350   5.638   9.987 -0.6589 -1.6927  1.0561
   72SLPC   H4S 6288   3.504   5.545   9.969 -0.6476  0.2045  1.2297
   72SLPC   C25 6289   3.476   5.736   9.859  0.4190  0.5131 -0.4028
   72SLPC   H5R 6290   3.579   5.775   9.853  0.5408  0.4703  1.0487
   72SLPC   H5S 6291   3.420   5.829   9.882  3.2352  2.2740 -0.4423
   72SLPC   C26 6292   3.438   5.670   9.727  0.4883  0.5731  0.4415
   72SLPC   H6R 6293   3.329   5.681   9.708  0.7407  0.4567 -1.1569
   72SLPC   H6S 6294   3.461   5.561   9.728 -0.5260  0.3620  2.1604
   72SLPC   C27 6295   3.521   5.730   9.618  0.1656 -0.3297  0.4209
   72SLPC   H7R 6296   3.631   5.731   9.636  0.1814  0.4114  0.3031
   72SLPC   H7S 6297   3.502   5.839   9.622 -1.1973 -0.5630  0.6605
   72SLPC   C28 6298   3.495   5.673   9.480 -0.2033  0.4978 -0.5741
   72SLPC   H8R 6299   3.386   5.689   9.464 -0.4527  1.8703  2.1969
   72SLPC   H8S 6300   3.508   5.564   9.502  2.4855  0.4477 -2.2378
   72SLPC   C29 6301   3.595   5.718   9.372  0.0211 -1.2976 -0.0914
   72SLPC   H9R 6302   3.697   5.728   9.412 -0.6570  2.3187  0.9163
   72SLPC  C210 6303   3.565   5.757   9.248 -0.8025  0.4427  0.7848
   72SLPC  H10R 6304   3.654   5.802   9.201 -1.3727  0.5367 -0.2338
   72SLPC  C211 6305   3.424   5.766   9.195 -0.0463  0.9091  0.4919
   72SLPC  H11R 6306   3.363   5.816   9.273 -3.1646  0.0095 -1.2617
   72SLPC  H11S 6307   3.385   5.664   9.176 -1.4745  1.4418  0.5248
   72SLPC  C212 6308   3.400   5.861   9.082  0.0061  0.3456 -0.3863
   72SLPC  H12R 6309   3.342   5.949   9.113  0.0689 -0.1542  1.1631
   72SLPC  C213 6310   3.467   5.859   8.964 -0.4176  0.0198  0.1973
   72SLPC  H13R 6311   3.437   5.932   8.887  1.4241 -0.0747 -0.6448
   72SLPC  C214 6312   3.570   5.758   8.925  0.1815 -0.0003  0.0200
   72SLPC  H14R 6313   3.547   5.714   8.825  1.4390  0.1541 -0.3500
   72SLPC  H14S 6314   3.568   5.670   8.993  1.4759  0.1636  0.2851
   72SLPC  C215 6315   3.703   5.834   8.915 -0.4690 -0.2169  0.0032
   72SLPC  H15R 6316   3.786   5.759   8.910 -0.8045 -0.5493 -0.5668
   72SLPC  H15S 6317   3.724   5.886   9.011  0.5882 -1.2988  0.3803
   72SLPC  C216 6318   3.718   5.928   8.796  0.0649  0.3154 -0.2167
   72SLPC  H16R 6319   3.815   5.981   8.798 -0.7147  1.8961 -2.4244
   72SLPC  H16S 6320   3.639   6.006   8.794 -0.2101  0.0981  1.2392
   72SLPC  C217 6321   3.712   5.850   8.660 -0.3452  0.3232 -0.0778
   72SLPC  H17R 6322   3.609   5.807   8.663 -0.3341  0.3668  2.9488
   72SLPC  H17S 6323   3.792   5.773   8.661 -1.5381 -0.9393  1.5682
   72SLPC  C218 6324   3.734   5.927   8.538 -0.2610  0.0180 -0.3585
   72SLPC  H18R 6325   3.641   5.985   8.521  0.4808  1.7428  1.2777
   72SLPC  H18S 6326   3.745   5.870   8.443 -0.4985  0.9283 -0.9458
   72SLPC  H18T 6327   3.818   6.000   8.544  0.8559 -1.2386 -0.5336
   72SLPC   C33 6328   3.719   5.240   9.957 -0.2245  0.2756 -0.2270
   72SLPC   H3X 6329   3.822   5.270   9.984  0.5767 -2.1544 -0.4785
   72SLPC   H3Y 6330   3.646   5.322   9.979  0.3101  1.0401 -1.2059
   72SLPC   C34 6331   3.738   5.199   9.807  0.6489 -0.2474  0.4602
   72SLPC   H4X 6332   3.646   5.145   9.776  0.1325  1.1291 -0.4511
   72SLPC   H4Y 6333   3.822   5.127   9.804 -1.6893 -2.9743 -1.8353
   72SLPC   C35 6334   3.779   5.313   9.710  0.2911  0.9382 -0.3704
   72SLPC   H5X 6335   3.886   5.341   9.716  0.6906 -0.0683 -2.5279
   72SLPC   H5Y 6336   3.713   5.400   9.733 -1.3587 -0.0313 -1.3320
   72SLPC   C36 6337   3.740   5.272   9.570  0.0874  0.0125  0.5222
   72SLPC   H6X 6338   3.631   5.258   9.558 -0.0057  1.2876 -0.2732
   72SLPC   H6Y 6339   3.767   5.165   9.558  0.4257  0.2047 -0.4932
   72SLPC   C37 6340   3.797   5.357   9.453 -0.6030 -0.4148  0.0176
   72SLPC   H7X 6341   3.898   5.394   9.478 -1.2937  0.8692  0.9666
   72SLPC   H7Y 6342   3.736   5.449   9.456 -0.2449 -0.1837  0.2240
   72SLPC   C38 6343   3.797   5.285   9.320  0.0854 -0.2080 -0.1409
   72SLPC   H8X 6344   3.818   5.179   9.347 -0.2632 -0.5296 -1.1234
   72SLPC   H8Y 6345   3.879   5.319   9.255 -0.7568  0.0734 -1.0615
   72SLPC   C39 6346   3.668   5.284   9.234 -0.5500 -0.2148 -0.0504
   72SLPC   H9X 6347   3.652   5.387   9.196 -1.4659 -0.2784  0.1376
   72SLPC   H9Y 6348   3.591   5.274   9.314  0.1554  2.5593  1.0514
   72SLPC  C310 6349   3.670   5.189   9.116 -0.6824  0.0797 -0.6797
   72SLPC  H10X 6350   3.562   5.184   9.088 -0.9966 -1.1249  0.6980
   72SLPC  H10Y 6351   3.698   5.090   9.159 -1.8593 -0.7929 -1.8624
   72SLPC  C311 6352   3.774   5.235   9.014 -0.2741 -0.1521  0.2846
   72SLPC  H11X 6353   3.844   5.150   8.999  0.9068  0.8576 -0.0091
   72SLPC  H11Y 6354   3.829   5.318   9.063  0.5918  0.2467 -1.3125
   72SLPC  C312 6355   3.713   5.284   8.874  0.1007 -0.3176  1.2636
   72SLPC  H12X 6356   3.650   5.367   8.910 -0.1585 -0.6868  1.6646
   72SLPC  H12Y 6357   3.639   5.218   8.824 -0.1308  0.9837 -0.1496
   72SLPC  C313 6358   3.820   5.330   8.771  0.7197  0.0452 -0.3082
   72SLPC  H13X 6359   3.869   5.256   8.706 -1.3208 -1.2774 -0.3907
   72SLPC  H13Y 6360   3.911   5.360   8.827  0.9738 -1.1255 -0.0890
   72SLPC  C314 6361   3.770   5.455   8.683 -0.7953  0.0081 -0.7768
   72SLPC  H14X 6362   3.863   5.491   8.635 -0.6391  1.1059  0.3491
   72SLPC  H14Y 6363   3.720   5.527   8.751 -0.2966 -1.5589  1.2990
   72SLPC  C315 6364   3.689   5.416   8.557  0.4110 -0.6724 -0.1528
   72SLPC  H15X 6365   3.593   5.387   8.605  1.5555 -0.4637  2.3324
   72SLPC  H15Y 6366   3.743   5.335   8.503  1.7642 -1.5295  2.4026
   72SLPC  C316 6367   3.663   5.531   8.464  0.7555 -0.4601  1.1048
   72SLPC  H16X 6368   3.757   5.562   8.414 -0.2128  2.4947  0.9945
   72SLPC  H16Y 6369   3.631   5.627   8.509 -0.5919 -0.6574  0.5753
   72SLPC  C317 6370   3.558   5.495   8.353 -0.0083  0.4853 -0.3206
   72SLPC  H17X 6371   3.492   5.425   8.410 -0.5078  1.0888 -0.1544
   72SLPC  H17Y 6372   3.591   5.425   8.274 -0.4628  0.4748 -0.5035
   72SLPC  C318 6373   3.498   5.618   8.299  0.2909 -0.5328  0.2567
   72SLPC  H18X 6374   3.569   5.700   8.276 -0.6722  0.9409  2.3971
   72SLPC  H18Y 6375   3.428   5.668   8.369 -2.0534 -0.3375 -2.1355
   72SLPC  H18Z 6376   3.433   5.586   8.214  0.3807 -2.1158  0.7629
   73SLPC     N 6377   3.654   4.397  10.877  0.2920  0.1977 -0.1500
   73SLPC   C13 6378   3.633   4.523  10.799 -0.1239 -0.4441  0.4613
   73SLPC  H13A 6379   3.624   4.496  10.694 -1.0749 -0.1497  0.4668
   73SLPC  H13B 6380   3.550   4.585  10.828  1.0653  1.2012  0.3743
   73SLPC  H13C 6381   3.726   4.578  10.801  0.6047 -1.6948  1.6467
   73SLPC   C14 6382   3.561   4.288  10.822 -0.4368 -0.0605  0.4327
   73SLPC  H14A 6383   3.557   4.283  10.714  1.5260 -1.5354  0.4043
   73SLPC  H14B 6384   3.598   4.196  10.865  0.2657 -0.5260 -1.1074
   73SLPC  H14C 6385   3.455   4.293  10.845 -0.5794 -2.4626  0.4406
   73SLPC   C15 6386   3.603   4.418  11.019 -0.2133 -0.2333 -0.1876
   73SLPC  H15A 6387   3.629   4.333  11.082 -0.3051  0.6498  1.0609
   73SLPC  H15B 6388   3.633   4.511  11.064 -0.1266  0.1612 -1.0731
   73SLPC  H15C 6389   3.495   4.427  11.018 -0.1493  1.0566  1.7174
   73SLPC   C12 6390   3.793   4.354  10.862 -0.7408 -0.6680  0.4607
   73SLPC  H12A 6391   3.861   4.428  10.902 -0.3096 -0.5015 -0.5763
   73SLPC  H12B 6392   3.824   4.339  10.760 -3.9727  1.6540 -0.9346
   73SLPC   C11 6393   3.833   4.220  10.925 -0.0269 -0.8836 -0.0949
   73SLPC  H11A 6394   3.805   4.207  11.032  1.0591  0.5752  0.3804
   73SLPC  H11B 6395   3.944   4.217  10.920 -0.0387  0.0588 -0.9193
   73SLPC     P 6396   3.777   3.974  10.889  0.0653  0.4310 -0.4675
   73SLPC   O13 6397   3.917   3.923  10.883  0.0908 -0.6538  0.0982
   73SLPC   O14 6398   3.698   3.976  11.017 -0.1498 -0.5233 -0.3817
   73SLPC   O12 6399   3.780   4.114  10.834 -0.0555  0.7726 -0.3621
   73SLPC   O11 6400   3.699   3.888  10.786  0.2603 -0.3784  0.1098
   73SLPC    C1 6401   3.618   3.946  10.684 -0.6260  0.0093  0.0274
   73SLPC    HA 6402   3.519   3.896  10.682 -0.9187  0.5916 -2.2038
   73SLPC    HB 6403   3.605   4.056  10.685 -2.5666 -0.2087  1.5183
   73SLPC    C2 6404   3.687   3.923  10.544  0.2238  0.4711 -1.1297
   73SLPC    HS 6405   3.766   4.002  10.540 -0.5365  1.2100 -1.7633
   73SLPC   O21 6406   3.588   3.947  10.447 -0.0967  0.2349  0.4833
   73SLPC   C21 6407   3.549   4.070  10.415  0.0686  0.4858  0.2170
   73SLPC   O22 6408   3.612   4.172  10.434 -0.3213 -0.2110  0.3813
   73SLPC   C22 6409   3.407   4.064  10.371  0.2332 -0.2874  0.1336
   73SLPC   H2R 6410   3.350   3.990  10.430  0.4085 -1.7049 -1.4544
   73SLPC   H2S 6411   3.372   4.169  10.383  0.8694 -0.4665  4.4094
   73SLPC    C3 6412   3.744   3.774  10.530  0.0688  0.2415  0.0368
   73SLPC    HX 6413   3.670   3.710  10.582 -0.4240  0.0499 -0.9020
   73SLPC    HY 6414   3.843   3.768  10.581  0.4224 -0.7881 -0.7389
   73SLPC   O31 6415   3.761   3.730  10.394  0.0907  0.4723  0.0108
   73SLPC   C31 6416   3.867   3.772  10.332  0.4876 -0.4316 -1.0072
   73SLPC   O32 6417   3.959   3.836  10.383  0.0283  0.1845  0.6347
   73SLPC   C32 6418   3.864   3.723  10.190  0.6831  0.4360 -0.0968
   73SLPC   H2X 6419   3.806   3.628  10.191 -1.1951  1.5729  2.1425
   73SLPC   H2Y 6420   3.966   3.714  10.145  1.4731  0.0718  1.7521
   73SLPC   C23 6421   3.402   4.032  10.216  0.0513  0.6299 -1.0906
   73SLPC   H3R 6422   3.300   3.998  10.190 -0.3784 -0.1293  1.4439
   73SLPC   H3S 6423   3.475   3.950  10.195  0.3885  0.6590 -0.0750
   73SLPC   C24 6424   3.436   4.158  10.131 -0.0803 -0.3993 -0.0951
   73SLPC   H4R 6425   3.515   4.204  10.194  0.1716 -3.1960  1.7279
   73SLPC   H4S 6426   3.347   4.223  10.119 -0.6589 -0.8326  1.6343
   73SLPC   C25 6427   3.472   4.135   9.982 -0.2017  0.1329  0.2364
   73SLPC   H5R 6428   3.386   4.096   9.923  2.3559 -2.7306 -1.7953
   73SLPC   H5S 6429   3.553   4.059   9.988 -0.1721  0.1645  0.2337
   73SLPC   C26 6430   3.515   4.273   9.910  0.5376  0.7163  0.0561
   73SLPC   H6R 6431   3.596   4.328   9.963  1.6467  1.6621 -2.5347
   73SLPC   H6S 6432   3.424   4.337   9.908  0.5366  0.6979 -2.0287
   73SLPC   C27 6433   3.559   4.244   9.767  0.1056 -0.1054  0.0631
   73SLPC   H7R 6434   3.475   4.194   9.713  1.1059 -0.7950 -0.8866
   73SLPC   H7S 6435   3.644   4.172   9.763 -0.7439 -1.0597 -1.4900
   73SLPC   C28 6436   3.585   4.370   9.687  0.4186  0.3176  0.0333
   73SLPC   H8R 6437   3.624   4.345   9.585 -1.7595  0.4406 -0.8475
   73SLPC   H8S 6438   3.668   4.427   9.734  0.1015  0.5724  0.2800
   73SLPC   C29 6439   3.453   4.444   9.661 -0.6857 -0.1935  0.1567
   73SLPC   H9R 6440   3.400   4.479   9.751 -0.1099  1.2998 -0.0799
   73SLPC  C210 6441   3.397   4.468   9.540 -0.4524 -0.2312 -0.3036
   73SLPC  H10R 6442   3.308   4.532   9.539 -0.5848 -0.4182 -0.4794
   73SLPC  C211 6443   3.452   4.424   9.405 -0.4068 -0.5305  0.0162
   73SLPC  H11R 6444   3.364   4.427   9.338 -0.4004  3.6710  0.1027
   73SLPC  H11S 6445   3.484   4.318   9.414  2.1448  0.2879  0.8996
   73SLPC  C212 6446   3.556   4.516   9.349  0.7097 -0.2881 -0.0689
   73SLPC  H12R 6447   3.623   4.560   9.425  1.4426 -2.3402  0.5170
   73SLPC  C213 6448   3.591   4.542   9.222  0.2236 -0.0189  1.0278
   73SLPC  H13R 6449   3.648   4.634   9.202 -0.1614  0.1017  0.4696
   73SLPC  C214 6450   3.525   4.485   9.098 -0.9857  0.0600  0.1100
   73SLPC  H14R 6451   3.480   4.387   9.126  0.6493 -1.0375 -1.0067
   73SLPC  H14S 6452   3.613   4.453   9.038 -0.9529  1.1119 -0.4120
   73SLPC  C215 6453   3.420   4.557   9.008 -0.2143 -0.6635 -0.1971
   73SLPC  H15R 6454   3.335   4.565   9.079  0.3071 -0.9703  0.4688
   73SLPC  H15S 6455   3.415   4.492   8.918  2.2483 -1.6923  0.3841
   73SLPC  C216 6456   3.462   4.704   8.962  0.3302  0.5587 -0.2880
   73SLPC  H16R 6457   3.567   4.691   8.928  0.0342 -2.6770 -0.0891
   73SLPC  H16S 6458   3.472   4.764   9.055  1.9823 -0.7590  0.4134
   73SLPC  C217 6459   3.366   4.781   8.856  0.3160  0.1526 -0.0120
   73SLPC  H17R 6460   3.260   4.786   8.891 -0.1647 -1.5414 -1.1510
   73SLPC  H17S 6461   3.354   4.740   8.754 -1.2535  0.3548  0.0668
   73SLPC  C218 6462   3.427   4.920   8.832 -0.2503 -0.0572 -0.2663
   73SLPC  H18R 6463   3.526   4.915   8.781  0.3421  1.3081  0.7207
   73SLPC  H18S 6464   3.453   4.972   8.926 -0.5526  0.3998 -0.4378
   73SLPC  H18T 6465   3.361   4.977   8.763 -0.1309 -1.8731 -1.9200
   73SLPC   C33 6466   3.800   3.833  10.104  0.4278  0.4501  0.6361
   73SLPC   H3X 6467   3.859   3.926  10.118  0.4483  0.2422  2.0302
   73SLPC   H3Y 6468   3.697   3.860  10.137  0.8873  0.1811  2.3575
   73SLPC   C34 6469   3.796   3.813   9.954  0.2199  0.2594  0.0350
   73SLPC   H4X 6470   3.729   3.889   9.910  0.8174  0.5573 -0.3755
   73SLPC   H4Y 6471   3.751   3.712   9.939  0.0681  0.1246  1.3476
   73SLPC   C35 6472   3.932   3.819   9.889  0.3090 -0.0231 -0.1757
   73SLPC   H5X 6473   4.021   3.779   9.943  0.1546  0.8025  0.6982
   73SLPC   H5Y 6474   3.953   3.928   9.887 -1.0724  0.2587  0.8785
   73SLPC   C36 6475   3.922   3.774   9.742 -0.5772  0.2530 -0.6975
   73SLPC   H6X 6476   3.820   3.803   9.709 -0.9163 -0.0719  0.0562
   73SLPC   H6Y 6477   3.934   3.663   9.743  1.5725  0.4500 -1.8517
   73SLPC   C37 6478   4.031   3.821   9.651  0.6591  0.0917  0.4205
   73SLPC   H7X 6479   4.115   3.748   9.658  1.7520  1.3674  0.9056
   73SLPC   H7Y 6480   4.065   3.914   9.702  0.2154 -0.6147  2.0232
   73SLPC   C38 6481   3.994   3.841   9.501  0.0542  0.0493  0.2280
   73SLPC   H8X 6482   4.081   3.883   9.446 -0.5032 -1.6246 -2.0341
   73SLPC   H8Y 6483   3.913   3.916   9.488 -1.8583 -1.8013  1.1893
   73SLPC   C39 6484   3.940   3.712   9.432 -0.6982 -0.6201  0.4001
   73SLPC   H9X 6485   3.831   3.709   9.455 -0.3128 -2.4398  2.1591
   73SLPC   H9Y 6486   3.983   3.616   9.465  1.2217  0.8148  2.1402
   73SLPC  C310 6487   3.955   3.733   9.279 -0.1863 -0.3747  0.7102
   73SLPC  H10X 6488   4.061   3.757   9.254 -1.0781  2.3121 -0.6588
   73SLPC  H10Y 6489   3.892   3.822   9.257 -0.2405  0.2300  3.0811
   73SLPC  C311 6490   3.903   3.612   9.194 -0.2674  0.7999  0.6623
   73SLPC  H11X 6491   3.803   3.580   9.232  0.0538 -0.8492  0.1458
   73SLPC  H11Y 6492   3.963   3.519   9.201 -0.8795  0.0408 -3.2079
   73SLPC  C312 6493   3.888   3.657   9.047 -0.3476 -0.0204  0.1297
   73SLPC  H12X 6494   3.978   3.695   8.995 -0.7440 -0.4297 -0.8693
   73SLPC  H12Y 6495   3.816   3.741   9.047  0.5636  0.7636 -0.2363
   73SLPC  C313 6496   3.831   3.549   8.951 -0.3845 -0.1608 -0.3031
   73SLPC  H13X 6497   3.803   3.593   8.853 -0.7303  0.0254 -0.1201
   73SLPC  H13Y 6498   3.746   3.509   9.010  0.4487  2.3719  2.7928
   73SLPC  C314 6499   3.919   3.420   8.932 -0.2225 -0.4221 -0.6825
   73SLPC  H14X 6500   3.872   3.347   8.862  2.1966 -0.7761 -1.9798
   73SLPC  H14Y 6501   3.927   3.369   9.031  0.9748  0.6027 -0.2350
   73SLPC  C315 6502   4.069   3.439   8.888 -0.1271 -0.0995 -0.5788
   73SLPC  H15X 6503   4.118   3.515   8.953  1.6306  1.4728 -3.6223
   73SLPC  H15Y 6504   4.064   3.475   8.783 -3.1210 -0.2953 -0.5517
   73SLPC  C316 6505   4.156   3.314   8.899  0.0169  0.1524 -0.5955
   73SLPC  H16X 6506   4.119   3.237   8.969 -2.4382  0.8722 -1.0733
   73SLPC  H16Y 6507   4.251   3.350   8.944  0.2506 -1.4182  0.2076
   73SLPC  C317 6508   4.182   3.246   8.767  0.2471  0.6603 -0.9581
   73SLPC  H17X 6509   4.198   3.329   8.695  0.7226  2.1094  0.7610
   73SLPC  H17Y 6510   4.093   3.190   8.731 -0.8698  0.4457  1.9526
   73SLPC  C318 6511   4.293   3.145   8.775 -0.0820 -0.0398 -0.6662
   73SLPC  H18X 6512   4.298   3.093   8.677  2.9989 -0.5721 -0.2564
   73SLPC  H18Y 6513   4.282   3.070   8.856  0.6409  0.7047  0.1248
   73SLPC  H18Z 6514   4.397   3.180   8.788 -0.4182  1.3310 -1.5383
   74SLPC     N 6515   4.286   5.516  10.532  0.4968  0.3722 -0.2890
   74SLPC   C13 6516   4.220   5.652  10.521 -0.5200  0.1434  0.4750
   74SLPC  H13A 6517   4.210   5.686  10.419 -2.2264  2.6004  1.4033
   74SLPC  H13B 6518   4.123   5.649  10.570 -1.1521 -0.5395 -0.8000
   74SLPC  H13C 6519   4.281   5.732  10.561  0.9571 -0.2652 -0.9142
   74SLPC   C14 6520   4.187   5.407  10.499 -0.3813 -0.4275  0.0093
   74SLPC  H14A 6521   4.162   5.416  10.394 -0.4046 -1.6320 -0.0971
   74SLPC  H14B 6522   4.227   5.308  10.516 -1.2026 -0.5149  1.6051
   74SLPC  H14C 6523   4.096   5.409  10.557 -0.1696  0.6985  0.3055
   74SLPC   C15 6524   4.325   5.491  10.675 -0.3981 -0.1846 -0.6818
   74SLPC  H15A 6525   4.369   5.393  10.685  1.3101  0.7343  1.1038
   74SLPC  H15B 6526   4.403   5.550  10.720 -0.7203 -0.8039  0.6979
   74SLPC  H15C 6527   4.239   5.475  10.738 -2.7357  2.1891 -3.1581
   74SLPC   C12 6528   4.405   5.518  10.431 -0.6425  0.8400 -0.2159
   74SLPC  H12A 6529   4.366   5.520  10.330  1.3067  2.8205 -0.9650
   74SLPC  H12B 6530   4.456   5.422  10.436 -0.1880  1.0348 -1.0189
   74SLPC   C11 6531   4.517   5.626  10.445 -0.2655  0.2071  0.1478
   74SLPC  H11A 6532   4.485   5.733  10.447 -0.4876  0.1479 -0.2663
   74SLPC  H11B 6533   4.577   5.615  10.352 -4.9644  0.2554 -3.0303
   74SLPC     P 6534   4.689   5.462  10.568 -0.2369  0.4260 -1.0337
   74SLPC   O13 6535   4.789   5.471  10.676 -0.0914  0.3384 -0.3958
   74SLPC   O14 6536   4.597   5.341  10.577  0.0251  0.1971  0.1309
   74SLPC   O12 6537   4.604   5.597  10.561  0.4673 -0.1570  0.6045
   74SLPC   O11 6538   4.762   5.450  10.430  0.1611 -0.2871  0.1260
   74SLPC    C1 6539   4.888   5.505  10.401  0.6110  0.2960  0.0917
   74SLPC    HA 6540   4.876   5.616  10.410  3.3210  0.7221 -1.0027
   74SLPC    HB 6541   4.967   5.477  10.475  1.6991  2.1446 -0.3338
   74SLPC    C2 6542   4.915   5.480  10.253 -0.1525  0.1031  0.2201
   74SLPC    HS 6543   4.948   5.374  10.243 -0.3594  0.1952 -1.6057
   74SLPC   O21 6544   5.017   5.574  10.218  0.0995 -0.3225  0.1293
   74SLPC   C21 6545   5.140   5.533  10.252 -0.2013  0.1439  0.0571
   74SLPC   O22 6546   5.163   5.428  10.307  0.0105  0.0144 -0.4694
   74SLPC   C22 6547   5.238   5.643  10.212 -0.2058  0.4171  0.5330
   74SLPC   H2R 6548   5.174   5.723  10.170 -3.5964 -2.2663  0.3701
   74SLPC   H2S 6549   5.272   5.672  10.314 -1.9965  1.1659  0.9245
   74SLPC    C3 6550   4.785   5.493  10.164 -0.2752 -0.3772 -0.6208
   74SLPC    HX 6551   4.734   5.587  10.193  0.5108 -0.2154  0.2651
   74SLPC    HY 6552   4.730   5.400  10.191 -2.8321  0.5980 -2.2978
   74SLPC   O31 6553   4.821   5.487  10.022 -0.1591 -0.3754 -0.4490
   74SLPC   C31 6554   4.713   5.483   9.946 -0.4906 -0.5040  0.0554
   74SLPC   O32 6555   4.594   5.485   9.982 -0.2836  0.2926  0.3524
   74SLPC   C32 6556   4.757   5.447   9.795  0.4036 -0.2049 -0.0534
   74SLPC   H2X 6557   4.821   5.356   9.799  1.1634  0.3743  1.4756
   74SLPC   H2Y 6558   4.826   5.527   9.760 -1.2292  1.4493  0.4797
   74SLPC   C23 6559   5.356   5.585  10.125 -0.4893  0.0458 -0.0957
   74SLPC   H3R 6560   5.426   5.511  10.170 -1.0473  0.8082  2.0455
   74SLPC   H3S 6561   5.424   5.672  10.110  0.2238  0.0543  2.9776
   74SLPC   C24 6562   5.297   5.532   9.992  0.3526 -0.4667 -1.1572
   74SLPC   H4R 6563   5.273   5.425  10.009  2.5581 -0.6779  0.9522
   74SLPC   H4S 6564   5.379   5.544   9.918 -0.0828 -0.6607 -1.6716
   74SLPC   C25 6565   5.185   5.613   9.930  0.0440 -0.5724 -0.0614
   74SLPC   H5R 6566   5.216   5.718   9.910 -3.9629  0.8883  0.9240
   74SLPC   H5S 6567   5.084   5.620   9.976 -0.8624  0.1531 -2.0763
   74SLPC   C26 6568   5.137   5.556   9.792 -0.1556 -0.1273 -0.8440
   74SLPC   H6R 6569   5.057   5.623   9.754  1.7074  2.5643 -0.1510
   74SLPC   H6S 6570   5.088   5.460   9.823 -1.2979  1.1136  1.3171
   74SLPC   C27 6571   5.254   5.536   9.694 -0.6206  0.3277 -0.0356
   74SLPC   H7R 6572   5.305   5.443   9.727 -3.2891 -1.0447  0.4199
   74SLPC   H7S 6573   5.325   5.620   9.703 -0.1073  0.3306 -3.3532
   74SLPC   C28 6574   5.211   5.526   9.543  0.4571 -0.7268 -0.0992
   74SLPC   H8R 6575   5.152   5.615   9.512 -1.8050 -2.0160  0.3675
   74SLPC   H8S 6576   5.143   5.439   9.532  0.3629 -0.7758  0.8662
   74SLPC   C29 6577   5.321   5.491   9.442  0.2157 -0.3670 -0.0816
   74SLPC   H9R 6578   5.343   5.383   9.440 -1.8738 -0.8069 -0.4124
   74SLPC  C210 6579   5.381   5.575   9.364  0.4249 -0.4248  0.1192
   74SLPC  H10R 6580   5.464   5.542   9.300 -0.4474  0.6739 -1.6117
   74SLPC  C211 6581   5.372   5.727   9.350  0.1037  0.3744  0.0419
   74SLPC  H11R 6582   5.452   5.760   9.280  3.2233 -0.6998  2.9269
   74SLPC  H11S 6583   5.388   5.779   9.448  2.9836 -0.6747  0.1888
   74SLPC  C212 6584   5.241   5.782   9.295 -0.9708  0.5019  0.4313
   74SLPC  H12R 6585   5.161   5.706   9.291 -0.4032 -0.1145  0.6537
   74SLPC  C213 6586   5.224   5.911   9.254  0.3346  0.7125  0.0675
   74SLPC  H13R 6587   5.129   5.926   9.202  0.2297 -1.1853 -0.3220
   74SLPC  C214 6588   5.319   6.030   9.263  0.0959  0.0005  0.4853
   74SLPC  H14R 6589   5.418   6.012   9.311 -0.6610  1.2477  2.5925
   74SLPC  H14S 6590   5.278   6.109   9.329  0.9139  0.4356  0.4812
   74SLPC  C215 6591   5.349   6.101   9.126  0.3528  0.5703  0.2866
   74SLPC  H15R 6592   5.375   6.206   9.148  2.2904  0.4421 -1.1977
   74SLPC  H15S 6593   5.254   6.111   9.070  0.5527 -0.8868 -0.3572
   74SLPC  C216 6594   5.453   6.030   9.042 -0.5440 -0.2277  0.9616
   74SLPC  H16R 6595   5.433   5.921   9.052 -1.2565 -0.3526 -1.3379
   74SLPC  H16S 6596   5.546   6.036   9.102  3.3696 -0.5116 -4.6359
   74SLPC  C217 6597   5.476   6.080   8.900  0.2839 -0.1932  0.0984
   74SLPC  H17R 6598   5.559   6.024   8.852  1.5033  0.7193  1.1369
   74SLPC  H17S 6599   5.497   6.189   8.902 -1.7708  0.2190  0.7019
   74SLPC  C218 6600   5.354   6.065   8.803  0.4663  0.2248 -0.1496
   74SLPC  H18R 6601   5.328   5.959   8.783  1.2305 -0.8447  3.9545
   74SLPC  H18S 6602   5.363   6.119   8.707  1.9812 -1.8591 -1.2353
   74SLPC  H18T 6603   5.263   6.115   8.842  1.1546  0.7571  0.7751
   74SLPC   C33 6604   4.641   5.448   9.697  0.3638  0.8944 -0.8045
   74SLPC   H3X 6605   4.582   5.542   9.711 -0.5964 -0.0444  1.6378
   74SLPC   H3Y 6606   4.564   5.370   9.715  1.3350 -0.0363 -0.7065
   74SLPC   C34 6607   4.691   5.456   9.555 -0.2892  0.3399 -0.1299
   74SLPC   H4X 6608   4.762   5.540   9.544  0.3043  0.1572  2.1257
   74SLPC   H4Y 6609   4.599   5.477   9.497 -0.9846 -1.8875  0.0868
   74SLPC   C35 6610   4.745   5.325   9.495 -0.2721  0.2025 -0.5927
   74SLPC   H5X 6611   4.682   5.244   9.539  2.5716 -2.0392 -0.5253
   74SLPC   H5Y 6612   4.851   5.312   9.524 -0.1139  0.1814 -1.1866
   74SLPC   C36 6613   4.746   5.324   9.344  0.6310 -0.0925 -0.5534
   74SLPC   H6X 6614   4.639   5.329   9.314  0.8409  0.9156 -1.1435
   74SLPC   H6Y 6615   4.776   5.226   9.302 -1.4936 -1.5640  1.2406
   74SLPC   C37 6616   4.827   5.443   9.285  0.5489 -0.5969  0.2234
   74SLPC   H7X 6617   4.930   5.446   9.325 -0.2668 -0.6462  2.3984
   74SLPC   H7Y 6618   4.783   5.542   9.309  0.2734 -0.4558 -0.8125
   74SLPC   C38 6619   4.844   5.421   9.130 -0.3496  0.8370  0.2470
   74SLPC   H8X 6620   4.919   5.342   9.109 -0.1613  1.3217 -0.9634
   74SLPC   H8Y 6621   4.905   5.508   9.097 -1.2032  1.8877  1.3925
   74SLPC   C39 6622   4.720   5.404   9.044  0.3046 -0.4478 -0.3555
   74SLPC   H9X 6623   4.633   5.468   9.070  1.6979  0.9812  0.8900
   74SLPC   H9Y 6624   4.696   5.298   9.068 -0.7258  0.4410  2.7553
   74SLPC  C310 6625   4.754   5.434   8.897 -0.5292 -0.1477  0.2470
   74SLPC  H10X 6626   4.835   5.367   8.859  0.9782  0.8052  1.7516
   74SLPC  H10Y 6627   4.809   5.530   8.893  0.4673 -0.6426  1.9472
   74SLPC  C311 6628   4.637   5.438   8.802  0.0781  0.4166 -0.1733
   74SLPC  H11X 6629   4.573   5.518   8.843  0.5487  1.5015 -1.5245
   74SLPC  H11Y 6630   4.575   5.346   8.805  2.6580 -1.3492  1.7974
   74SLPC  C312 6631   4.677   5.462   8.656 -0.7843 -0.8989  0.2322
   74SLPC  H12X 6632   4.578   5.460   8.606 -0.5322 -1.3596 -0.2485
   74SLPC  H12Y 6633   4.732   5.374   8.618  3.3224  1.2290  1.0073
   74SLPC  C313 6634   4.744   5.600   8.632 -0.1079  0.7305  0.3637
   74SLPC  H13X 6635   4.838   5.601   8.691 -1.9644 -0.2627  3.4591
   74SLPC  H13Y 6636   4.689   5.690   8.668 -0.5501  1.6311 -2.4464
   74SLPC  C314 6637   4.782   5.630   8.486 -0.2806 -0.1760  0.2304
   74SLPC  H14X 6638   4.696   5.625   8.415 -2.1094  0.2574  2.3759
   74SLPC  H14Y 6639   4.858   5.550   8.472 -0.4005 -0.7346  2.5809
   74SLPC  C315 6640   4.858   5.761   8.445  0.5423 -0.1976  0.0353
   74SLPC  H15X 6641   4.962   5.761   8.485  0.6878  1.2383 -0.3148
   74SLPC  H15Y 6642   4.807   5.845   8.497 -0.9737 -0.6261 -0.7307
   74SLPC  C316 6643   4.858   5.789   8.300 -1.1275 -0.0872 -0.7601
   74SLPC  H16X 6644   4.763   5.763   8.248 -1.9392  3.5730 -1.2505
   74SLPC  H16Y 6645   4.944   5.742   8.248 -1.0663  1.8228 -2.4329
   74SLPC  C317 6646   4.864   5.939   8.280 -0.6878 -1.1169 -0.1244
   74SLPC  H17X 6647   4.804   5.997   8.353  2.0106  0.2880  1.0387
   74SLPC  H17Y 6648   4.810   5.949   8.183 -1.3209  3.3507  0.5593
   74SLPC  C318 6649   5.006   6.003   8.263 -0.1758 -0.1961 -0.0243
   74SLPC  H18X 6650   5.012   6.088   8.192 -0.3470  0.7732  1.1010
   74SLPC  H18Y 6651   5.077   5.923   8.235  0.8824  0.6081  0.3150
   74SLPC  H18Z 6652   5.048   6.039   8.360  0.0899 -1.1650  0.2223
   75SLPC     N 6653   3.545   2.403   6.437 -0.5687  0.2838 -0.2613
   75SLPC   C13 6654   3.586   2.445   6.297 -0.1747 -0.4990  0.5371
   75SLPC  H13A 6655   3.524   2.524   6.255  2.1599 -0.2934 -2.7473
   75SLPC  H13B 6656   3.684   2.490   6.293 -0.7383  0.6632 -0.9418
   75SLPC  H13C 6657   3.589   2.362   6.228  1.1086 -0.3669  0.4201
   75SLPC   C14 6658   3.421   2.315   6.432  0.0396  0.0475 -0.0512
   75SLPC  H14A 6659   3.404   2.286   6.535  1.9281 -2.4312 -0.3812
   75SLPC  H14B 6660   3.335   2.366   6.393 -0.7315 -1.9339 -1.0339
   75SLPC  H14C 6661   3.446   2.224   6.378  1.3069  0.0666  0.4920
   75SLPC   C15 6662   3.525   2.533   6.517 -0.1530  0.7431  0.8081
   75SLPC  H15A 6663   3.613   2.593   6.505 -0.4615  0.9873 -0.3154
   75SLPC  H15B 6664   3.433   2.585   6.495 -0.0769  0.0195 -1.4668
   75SLPC  H15C 6665   3.513   2.497   6.618  1.3987  0.3862  0.8790
   75SLPC   C12 6666   3.652   2.321   6.505 -0.0011  0.1391  0.1280
   75SLPC  H12A 6667   3.744   2.375   6.491  0.4873 -0.6163  0.3506
   75SLPC  H12B 6668   3.659   2.234   6.441  0.0845 -0.0417  0.3779
   75SLPC   C11 6669   3.623   2.278   6.649 -0.4979 -0.6811  0.2996
   75SLPC  H11A 6670   3.587   2.365   6.707  4.2261  3.0039 -1.8789
   75SLPC  H11B 6671   3.718   2.244   6.696 -0.8882  1.2501  2.5619
   75SLPC     P 6672   3.570   2.023   6.617  0.0117  0.2316 -0.1783
   75SLPC   O13 6673   3.447   1.939   6.627  0.2044 -0.0054  0.8104
   75SLPC   O14 6674   3.648   2.019   6.492  0.3866  0.2219 -0.2816
   75SLPC   O12 6675   3.527   2.175   6.654  0.0543 -0.2824  0.1118
   75SLPC   O11 6676   3.675   1.981   6.729  0.2481 -0.1771  0.6682
   75SLPC    C1 6677   3.641   1.989   6.869  1.3429  0.6681 -0.4126
   75SLPC    HA 6678   3.736   2.016   6.920  3.2499 -0.6111 -3.1627
   75SLPC    HB 6679   3.555   2.059   6.877  0.0847 -0.7323 -1.3713
   75SLPC    C2 6680   3.593   1.857   6.942 -0.3281 -0.1672 -0.3851
   75SLPC    HS 6681   3.483   1.844   6.940 -0.3754 -1.0128  3.3342
   75SLPC   O21 6682   3.641   1.860   7.078 -0.1591  0.5769  0.3255
   75SLPC   C21 6683   3.579   1.933   7.170  0.7444 -0.3456  0.2980
   75SLPC   O22 6684   3.478   1.998   7.157 -0.1394  0.7657  0.3524
   75SLPC   C22 6685   3.663   1.929   7.305  0.0912 -0.3189 -0.0014
   75SLPC   H2R 6686   3.772   1.941   7.287  0.4918 -0.1156  2.4134
   75SLPC   H2S 6687   3.627   2.023   7.352  0.3731  0.3387 -1.0684
   75SLPC    C3 6688   3.651   1.732   6.874 -0.3359  0.2303  0.4027
   75SLPC    HX 6689   3.760   1.733   6.894  0.0427  4.0899 -1.4505
   75SLPC    HY 6690   3.624   1.733   6.766 -0.0801 -0.2815  0.3313
   75SLPC   O31 6691   3.598   1.614   6.932 -0.5427  0.4011  0.2116
   75SLPC   C31 6692   3.479   1.576   6.886  0.0652 -0.3669  0.3454
   75SLPC   O32 6693   3.414   1.624   6.796 -0.3142 -0.2811  1.1219
   75SLPC   C32 6694   3.444   1.438   6.963  0.0629  0.0223 -0.3032
   75SLPC   H2X 6695   3.531   1.369   6.956  1.1899  1.5477 -1.6636
   75SLPC   H2Y 6696   3.353   1.395   6.916  0.2684  0.8665 -1.4891
   75SLPC   C23 6697   3.635   1.809   7.388  0.0926  0.3133  0.3654
   75SLPC   H3R 6698   3.638   1.710   7.338 -1.5403 -0.6263  2.0392
   75SLPC   H3S 6699   3.532   1.822   7.426  0.0459 -1.7041  0.9527
   75SLPC   C24 6700   3.738   1.793   7.510 -0.1789 -0.2063 -0.1927
   75SLPC   H4R 6701   3.833   1.760   7.464  0.2668 -0.8344  1.1732
   75SLPC   H4S 6702   3.692   1.715   7.575 -1.4350  0.7121  0.0566
   75SLPC   C25 6703   3.742   1.911   7.600 -0.1462 -1.1634  0.0745
   75SLPC   H5R 6704   3.648   1.965   7.623 -0.8089 -1.5709 -1.5891
   75SLPC   H5S 6705   3.807   1.983   7.546  0.4738 -2.3505 -0.7864
   75SLPC   C26 6706   3.816   1.889   7.732  0.3831 -0.3011 -0.0213
   75SLPC   H6R 6707   3.920   1.927   7.728  0.0422  0.8579  1.6054
   75SLPC   H6S 6708   3.828   1.780   7.746  1.4595 -0.0169  1.3564
   75SLPC   C27 6709   3.734   1.926   7.860  1.0633 -0.4916  0.4688
   75SLPC   H7R 6710   3.647   1.858   7.854  0.1492  0.8007 -1.6156
   75SLPC   H7S 6711   3.707   2.034   7.852 -0.3450 -0.6162  3.0737
   75SLPC   C28 6712   3.807   1.913   7.994  0.0716  0.7081  0.9500
   75SLPC   H8R 6713   3.888   1.988   7.983 -0.1680  0.9414  0.7621
   75SLPC   H8S 6714   3.852   1.812   8.001  1.0272  0.8664 -1.8739
   75SLPC   C29 6715   3.725   1.934   8.115 -0.2136  0.0993 -0.2069
   75SLPC   H9R 6716   3.617   1.923   8.097 -0.2301 -3.1403  1.5576
   75SLPC  C210 6717   3.767   1.976   8.236  0.1870  0.2713 -0.2079
   75SLPC  H10R 6718   3.697   2.004   8.316  2.5378 -0.2526  2.1273
   75SLPC  C211 6719   3.907   2.009   8.273 -0.0383 -0.1643  0.6033
   75SLPC  H11R 6720   3.919   2.102   8.333  0.3195 -0.7287  1.4230
   75SLPC  H11S 6721   3.968   2.043   8.188 -0.1667  0.7796  0.8871
   75SLPC  C212 6722   3.975   1.888   8.340  0.1220  0.1994 -0.1911
   75SLPC  H12R 6723   4.012   1.807   8.276  0.3632 -0.2811  0.5514
   75SLPC  C213 6724   3.986   1.869   8.476  0.0273 -0.6550  0.5141
   75SLPC  H13R 6725   4.051   1.786   8.506 -1.3923 -1.2424  2.0511
   75SLPC  C214 6726   3.914   1.958   8.573 -0.3485 -0.6004 -0.0117
   75SLPC  H14R 6727   3.894   1.914   8.673 -0.3262  0.4063  0.4463
   75SLPC  H14S 6728   3.812   1.988   8.540  0.0896 -1.8100 -2.5430
   75SLPC  C215 6729   3.992   2.088   8.610  0.4675 -0.4612 -0.3017
   75SLPC  H15R 6730   3.925   2.159   8.662  0.6628 -0.1537 -0.4662
   75SLPC  H15S 6731   4.036   2.133   8.518 -1.2698  0.1442 -0.8655
   75SLPC  C216 6732   4.106   2.064   8.709 -0.1625  0.3962 -0.0857
   75SLPC  H16R 6733   4.064   2.001   8.790 -1.8933 -0.5014 -1.6242
   75SLPC  H16S 6734   4.141   2.162   8.747 -0.3827  0.6101 -0.4340
   75SLPC  C217 6735   4.235   1.986   8.649  0.1516 -0.2467 -0.1044
   75SLPC  H17R 6736   4.281   2.048   8.569  0.9331  0.5349  0.9359
   75SLPC  H17S 6737   4.203   1.893   8.597  2.2277 -1.4677  0.7219
   75SLPC  C218 6738   4.344   1.950   8.750  0.5784  0.0952  0.4523
   75SLPC  H18R 6739   4.401   2.029   8.804 -1.4935  0.8717  1.5404
   75SLPC  H18S 6740   4.413   1.878   8.701  0.5037 -1.2807  2.2886
   75SLPC  H18T 6741   4.305   1.882   8.828  1.5077  0.4543  1.2493
   75SLPC   C33 6742   3.427   1.461   7.117 -0.9037  1.0072  0.0589
   75SLPC   H3X 6743   3.440   1.360   7.162 -0.3791  1.4086  0.8356
   75SLPC   H3Y 6744   3.507   1.526   7.159  1.3952 -2.4437  1.2822
   75SLPC   C34 6745   3.290   1.524   7.141 -0.2515 -0.0147  0.0155
   75SLPC   H4X 6746   3.222   1.484   7.063  3.0349 -0.1306 -2.8956
   75SLPC   H4Y 6747   3.314   1.631   7.120  0.6727 -0.3910 -0.8481
   75SLPC   C35 6748   3.236   1.492   7.282  1.0036 -0.1021 -0.2113
   75SLPC   H5X 6749   3.231   1.381   7.288  0.6640 -0.0424  0.6781
   75SLPC   H5Y 6750   3.131   1.528   7.286  2.0960  3.1295  1.9150
   75SLPC   C36 6751   3.323   1.565   7.385 -0.3148 -0.2097  0.3795
   75SLPC   H6X 6752   3.337   1.673   7.362 -2.6472 -0.1801 -0.9764
   75SLPC   H6Y 6753   3.422   1.515   7.394 -0.6157 -0.8120  0.3423
   75SLPC   C37 6754   3.263   1.556   7.524 -0.3658 -0.0743 -0.2112
   75SLPC   H7X 6755   3.220   1.457   7.549  0.9292 -0.0888  2.1186
   75SLPC   H7Y 6756   3.176   1.625   7.516  0.7925  1.3713 -0.4227
   75SLPC   C38 6757   3.356   1.594   7.637 -0.0753 -0.2229 -0.1292
   75SLPC   H8X 6758   3.380   1.702   7.636 -0.0077 -0.2114  1.5122
   75SLPC   H8Y 6759   3.454   1.543   7.622 -0.0219  0.0768 -0.8204
   75SLPC   C39 6760   3.292   1.559   7.773 -0.2859 -0.4340  0.1240
   75SLPC   H9X 6761   3.266   1.451   7.769 -0.1146 -0.4304 -1.2479
   75SLPC   H9Y 6762   3.199   1.616   7.794 -1.2203 -1.7516 -0.3563
   75SLPC  C310 6763   3.393   1.573   7.890 -0.1462 -0.2043  0.1213
   75SLPC  H10X 6764   3.402   1.682   7.913 -0.0213 -0.3777  0.9246
   75SLPC  H10Y 6765   3.492   1.541   7.852 -0.6716 -0.5019 -1.0026
   75SLPC  C311 6766   3.346   1.502   8.014 -0.1263 -0.5634  0.5282
   75SLPC  H11X 6767   3.313   1.397   8.001 -1.6203 -0.0381 -0.1093
   75SLPC  H11Y 6768   3.263   1.566   8.054  0.7465  1.5331 -0.9055
   75SLPC  C312 6769   3.447   1.509   8.133  0.1390 -0.1062  0.4428
   75SLPC  H12X 6770   3.486   1.613   8.132  1.2448 -0.5177 -1.3514
   75SLPC  H12Y 6771   3.531   1.437   8.126  0.3979  0.0404  1.7922
   75SLPC  C313 6772   3.398   1.483   8.274  0.3952  0.7338  0.1717
   75SLPC  H13X 6773   3.347   1.569   8.323 -0.8191 -0.4536  1.0221
   75SLPC  H13Y 6774   3.479   1.486   8.350  1.1244  1.0314 -0.6005
   75SLPC  C314 6775   3.308   1.355   8.291  0.5379 -0.2142 -0.0736
   75SLPC  H14X 6776   3.341   1.280   8.216 -2.2953 -0.7911 -0.7833
   75SLPC  H14Y 6777   3.201   1.374   8.272  0.3420 -0.9838  0.2294
   75SLPC  C315 6778   3.307   1.295   8.429 -0.1397 -0.0160  0.3459
   75SLPC  H15X 6779   3.222   1.231   8.459  0.2512 -2.2818 -3.0951
   75SLPC  H15Y 6780   3.307   1.381   8.499  0.3431 -0.4771  0.9160
   75SLPC  C316 6781   3.433   1.210   8.469 -0.8913 -0.4578 -0.0971
   75SLPC  H16X 6782   3.461   1.241   8.572  1.3464  1.4483 -1.2475
   75SLPC  H16Y 6783   3.522   1.230   8.407  0.0341 -0.7976  1.1100
   75SLPC  C317 6784   3.398   1.059   8.453 -0.1034 -0.6690  0.2185
   75SLPC  H17X 6785   3.377   1.036   8.347 -3.8146 -3.4906  1.4428
   75SLPC  H17Y 6786   3.298   1.045   8.500 -0.5273  0.7027 -0.2685
   75SLPC  C318 6787   3.508   0.976   8.516 -1.2487 -0.4044 -0.2582
   75SLPC  H18X 6788   3.598   0.982   8.452 -0.4502 -0.9049  0.8151
   75SLPC  H18Y 6789   3.479   0.869   8.527 -0.2110 -0.8535 -1.6661
   75SLPC  H18Z 6790   3.541   1.013   8.615 -0.5367  0.3407 -0.7693
   76SLPC     N 6791   6.245   0.209   6.099 -0.4490  0.1275  0.4157
   76SLPC   C13 6792   6.341   0.313   6.165 -0.9294  0.2103  0.0145
   76SLPC  H13A 6793   6.337   0.298   6.272 -1.5701 -2.2584 -0.3389
   76SLPC  H13B 6794   6.443   0.315   6.131 -1.2917 -1.5161 -1.1975
   76SLPC  H13C 6795   6.300   0.413   6.152  0.3283  1.0125  1.9628
   76SLPC   C14 6796   6.306   0.072   6.126  0.1391 -0.5266  0.1674
   76SLPC  H14A 6797   6.404   0.062   6.082 -0.8361 -1.3307 -1.8980
   76SLPC  H14B 6798   6.307   0.061   6.233 -2.0843 -0.0683  0.2447
   76SLPC  H14C 6799   6.239   0.000   6.081 -0.4912 -0.5458  1.1184
   76SLPC   C15 6800   6.242   0.227   5.951 -0.1753  0.2750 -0.3247
   76SLPC  H15A 6801   6.338   0.201   5.909  0.0520  0.4486  0.0868
   76SLPC  H15B 6802   6.164   0.164   5.910  1.3182 -1.4131 -0.6665
   76SLPC  H15C 6803   6.220   0.329   5.925 -3.3631 -0.3657 -0.2517
   76SLPC   C12 6804   6.106   0.213   6.165  0.0621  0.0035 -0.0511
   76SLPC  H12A 6805   6.105   0.209   6.273 -0.1577 -0.3599 -0.0649
   76SLPC  H12B 6806   6.049   0.126   6.135  0.7585 -0.1072 -1.0764
   76SLPC   C11 6807   6.012   0.331   6.119  0.2482  0.0443 -0.2692
   76SLPC  H11A 6808   5.965   0.316   6.020  0.1233 -1.2521 -0.0231
   76SLPC  H11B 6809   6.054   0.434   6.114 -1.8364  1.0920  2.2210
   76SLPC     P 6810   5.782   0.247   6.209  0.1528 -0.2488 -0.0892
   76SLPC   O13 6811   5.678   0.311   6.126  0.5665  0.3450 -0.1438
   76SLPC   O14 6812   5.824   0.111   6.176  0.0923 -0.0142  0.5314
   76SLPC   O12 6813   5.918   0.333   6.219 -0.1685 -0.6809  0.4094
   76SLPC   O11 6814   5.730   0.243   6.356 -0.6423 -0.3154 -0.0078
   76SLPC    C1 6815   5.795   0.179   6.468  0.1823  0.8328  0.4882
   76SLPC    HA 6816   5.761   0.075   6.488 -0.2594  0.7965 -0.4655
   76SLPC    HB 6817   5.902   0.154   6.450 -0.4120 -2.2611  0.8841
   76SLPC    C2 6818   5.781   0.258   6.599  0.0116  0.5689 -0.2164
   76SLPC    HS 6819   5.856   0.340   6.600  1.9226 -1.0935 -1.9606
   76SLPC   O21 6820   5.802   0.166   6.709 -0.2956  0.0043  0.0109
   76SLPC   C21 6821   5.927   0.146   6.753  0.2002  0.0282 -0.2750
   76SLPC   O22 6822   6.028   0.188   6.695 -0.2659 -0.3041  0.0922
   76SLPC   C22 6823   5.916   0.047   6.865  0.2081 -0.9185  0.1505
   76SLPC   H2R 6824   5.825  -0.015   6.849 -0.4106  0.0562 -0.1799
   76SLPC   H2S 6825   6.008  -0.016   6.859  0.7243 -0.0502 -1.6275
   76SLPC    C3 6826   5.633   0.320   6.607  0.0271  0.6307  0.0852
   76SLPC    HX 6827   5.565   0.260   6.543  0.3032 -1.1331  1.3977
   76SLPC    HY 6828   5.634   0.421   6.560 -0.5119 -0.0136 -1.3288
   76SLPC   O31 6829   5.602   0.337   6.747 -0.0656  0.0449 -0.2873
   76SLPC   C31 6830   5.516   0.250   6.798 -0.3863  0.3397 -0.2942
   76SLPC   O32 6831   5.455   0.167   6.736  0.8877  0.0926 -0.4336
   76SLPC   C32 6832   5.504   0.273   6.950 -0.4738  0.2927  0.0170
   76SLPC   H2X 6833   5.466   0.375   6.972  0.8829  0.4094  1.9831
   76SLPC   H2Y 6834   5.610   0.265   6.983  0.1648  2.2018 -1.4154
   76SLPC   C23 6835   5.912   0.134   6.998 -0.2460  0.2540  0.4740
   76SLPC   H3R 6836   5.815   0.188   7.006 -0.3292 -0.3347  4.5640
   76SLPC   H3S 6837   5.993   0.210   7.007  1.2175 -0.8374 -2.6071
   76SLPC   C24 6838   5.895   0.052   7.129 -0.3524  0.8379  0.2407
   76SLPC   H4R 6839   5.996   0.008   7.142 -0.5383  1.0876  2.6667
   76SLPC   H4S 6840   5.822  -0.031   7.115  0.2130  0.8320 -3.3410
   76SLPC   C25 6841   5.861   0.139   7.249 -0.0777 -0.6678 -0.2016
   76SLPC   H5R 6842   5.763   0.189   7.239  0.2846  0.4816  1.6043
   76SLPC   H5S 6843   5.929   0.227   7.254 -0.1895 -0.5087 -1.3104
   76SLPC   C26 6844   5.882   0.066   7.379  0.0989  0.3446 -0.1218
   76SLPC   H6R 6845   5.989   0.042   7.395  0.4068  2.2664  0.7824
   76SLPC   H6S 6846   5.829  -0.031   7.374  1.8239 -0.9491  4.3608
   76SLPC   C27 6847   5.819   0.151   7.491 -0.1595  0.2222  0.0276
   76SLPC   H7R 6848   5.713   0.120   7.507 -1.2059  2.5591 -1.8844
   76SLPC   H7S 6849   5.812   0.257   7.457  3.0976 -0.2129 -2.1884
   76SLPC   C28 6850   5.904   0.167   7.618  0.1401  0.2463  0.6373
   76SLPC   H8R 6851   6.005   0.194   7.579  1.2688 -0.5385  2.9345
   76SLPC   H8S 6852   5.867   0.248   7.684  0.7863  2.6920 -1.9002
   76SLPC   C29 6853   5.900   0.036   7.687 -0.8109  0.2782 -0.0931
   76SLPC   H9R 6854   5.883  -0.053   7.625  0.4553  0.3976 -0.6206
   76SLPC  C210 6855   5.928   0.012   7.817  0.3378 -0.1847 -0.0496
   76SLPC  H10R 6856   5.907  -0.087   7.861 -2.4187  0.6076  0.5381
   76SLPC  C211 6857   5.970   0.120   7.917 -0.3001 -0.3734 -0.2650
   76SLPC  H11R 6858   6.034   0.204   7.882  0.4823 -0.7341  0.2785
   76SLPC  H11S 6859   6.043   0.079   7.991  1.3300 -0.8511 -2.0988
   76SLPC  C212 6860   5.841   0.169   7.984  0.0733 -0.6881 -0.1807
   76SLPC  H12R 6861   5.774   0.227   7.919  0.0491 -0.5411 -0.0230
   76SLPC  C213 6862   5.790   0.148   8.102 -0.1353  0.3232  0.6046
   76SLPC  H13R 6863   5.697   0.198   8.133  0.7665  1.1499  2.0933
   76SLPC  C214 6864   5.839   0.062   8.213  0.4443 -0.2906 -0.0823
   76SLPC  H14R 6865   5.805   0.092   8.315 -1.2201 -2.1230 -0.0597
   76SLPC  H14S 6866   5.947   0.077   8.233 -0.3333  1.3308  3.3072
   76SLPC  C215 6867   5.787  -0.079   8.194 -0.1537  0.3039  0.3297
   76SLPC  H15R 6868   5.783  -0.116   8.090 -0.0080 -0.4751  0.5940
   76SLPC  H15S 6869   5.682  -0.084   8.230 -0.8263 -0.9907 -1.7520
   76SLPC  C216 6870   5.881  -0.181   8.272  0.0314 -0.2938 -0.4043
   76SLPC  H16R 6871   5.871  -0.155   8.380 -0.9342  2.5626 -1.1381
   76SLPC  H16S 6872   5.982  -0.157   8.233 -1.4731 -0.8855 -4.9626
   76SLPC  C217 6873   5.857  -0.334   8.232  0.1866 -0.0462 -0.8602
   76SLPC  H17R 6874   5.765  -0.360   8.289 -1.0087  3.1388 -1.1973
   76SLPC  H17S 6875   5.942  -0.389   8.279  0.6534  1.3560 -0.0208
   76SLPC  C218 6876   5.847  -0.371   8.086 -0.1486  0.0423  0.3932
   76SLPC  H18R 6877   5.742  -0.348   8.057 -0.4980 -0.0548  1.5563
   76SLPC  H18S 6878   5.859  -0.482   8.080  1.3410  0.2298 -0.2622
   76SLPC  H18T 6879   5.925  -0.318   8.028 -1.5076  1.8131  0.1469
   76SLPC   C33 6880   5.414   0.174   7.031  0.0225  0.1193  0.0726
   76SLPC   H3X 6881   5.465   0.075   7.030  0.7416  0.4803 -1.9700
   76SLPC   H3Y 6882   5.313   0.157   6.989  0.9906  0.5724 -2.5639
   76SLPC   C34 6883   5.419   0.207   7.175  0.1430  0.1356  0.0691
   76SLPC   H4X 6884   5.347   0.292   7.185  1.2882  1.1311  0.0339
   76SLPC   H4Y 6885   5.519   0.233   7.215  1.3281 -0.9528 -2.0929
   76SLPC   C35 6886   5.378   0.085   7.267 -1.2720 -0.6117 -0.0223
   76SLPC   H5X 6887   5.462   0.013   7.262  0.7204  1.7052 -0.4038
   76SLPC   H5Y 6888   5.295   0.031   7.215 -2.5198  0.8290  0.4470
   76SLPC   C36 6889   5.324   0.123   7.406 -0.2001  0.6780  0.4648
   76SLPC   H6X 6890   5.242   0.054   7.436 -0.0654 -0.4831 -1.7714
   76SLPC   H6Y 6891   5.294   0.230   7.414  2.4561  1.6873 -2.1916
   76SLPC   C37 6892   5.441   0.114   7.510  0.8119 -0.4398  0.8247
   76SLPC   H7X 6893   5.500   0.192   7.457 -1.1170 -0.5419 -1.5685
   76SLPC   H7Y 6894   5.481   0.010   7.508  2.3820  0.1386  1.5783
   76SLPC   C38 6895   5.400   0.154   7.652 -0.7230 -0.1185  0.0587
   76SLPC   H8X 6896   5.320   0.086   7.688 -0.3376  0.2712  1.6625
   76SLPC   H8Y 6897   5.360   0.258   7.653 -0.2240  0.0746 -0.1778
   76SLPC   C39 6898   5.510   0.173   7.761  0.1929 -0.2634 -0.4026
   76SLPC   H9X 6899   5.577   0.255   7.727 -0.3840  0.5794  0.4471
   76SLPC   H9Y 6900   5.568   0.079   7.772  1.4290  0.4279 -1.0390
   76SLPC  C310 6901   5.464   0.221   7.908  0.4119  0.1625  0.1836
   76SLPC  H10X 6902   5.407   0.314   7.886 -0.1103 -0.2151 -0.0765
   76SLPC  H10Y 6903   5.560   0.248   7.956  0.8205 -1.4872  0.3031
   76SLPC  C311 6904   5.385   0.112   7.970  0.2254  1.2454  0.2297
   76SLPC  H11X 6905   5.450   0.023   7.989  1.2907  1.8576 -0.4909
   76SLPC  H11Y 6906   5.309   0.074   7.899 -0.5507 -1.0471  2.1890
   76SLPC  C312 6907   5.297   0.142   8.092 -1.0744 -0.2956 -0.2789
   76SLPC  H12X 6908   5.251   0.049   8.131 -0.5995 -0.8863 -1.1056
   76SLPC  H12Y 6909   5.212   0.206   8.060 -0.2464 -0.6162 -3.2372
   76SLPC  C313 6910   5.371   0.212   8.214  0.4987  0.4381 -0.1575
   76SLPC  H13X 6911   5.447   0.288   8.185  0.9060 -0.2815 -1.0055
   76SLPC  H13Y 6912   5.428   0.133   8.268 -0.2494  0.9937  1.4807
   76SLPC  C314 6913   5.282   0.279   8.319 -0.3677  0.1005 -0.3323
   76SLPC  H14X 6914   5.338   0.295   8.414  0.3331 -1.6121 -0.4300
   76SLPC  H14Y 6915   5.198   0.212   8.350 -0.6733  0.5737 -0.1284
   76SLPC  C315 6916   5.217   0.415   8.273  0.2529  0.2709 -0.5450
   76SLPC  H15X 6917   5.149   0.396   8.188  0.6861 -0.2141 -0.7880
   76SLPC  H15Y 6918   5.299   0.487   8.249  1.0446  0.0123  1.2612
   76SLPC  C316 6919   5.155   0.490   8.390  0.1495  0.0571 -0.1120
   76SLPC  H16X 6920   5.152   0.598   8.364  2.2284  0.2451  0.2892
   76SLPC  H16Y 6921   5.225   0.473   8.475 -0.6394  1.2820  0.8084
   76SLPC  C317 6922   5.018   0.429   8.427  0.3465 -0.1891 -0.4739
   76SLPC  H17X 6923   5.005   0.425   8.538  2.3021  0.0021 -0.2240
   76SLPC  H17Y 6924   5.018   0.321   8.404 -1.3308 -0.7007  1.6651
   76SLPC  C318 6925   4.902   0.496   8.354  0.5298  0.4621  0.5893
   76SLPC  H18X 6926   4.803   0.503   8.404 -0.7684  2.3740 -2.1107
   76SLPC  H18Y 6927   4.892   0.445   8.255 -4.4711  0.3741  1.0234
   76SLPC  H18Z 6928   4.941   0.600   8.352 -1.1869  1.1045 -0.5986
   77SLPC     N 6929   0.945   6.062   6.071  0.5148  0.0871 -0.4885
   77SLPC   C13 6930   0.956   6.210   6.047 -0.1360  0.0486  0.2740
   77SLPC  H13A 6931   0.860   6.254   6.027 -0.1553  0.9640  2.2616
   77SLPC  H13B 6932   1.010   6.266   6.122  0.6478  0.3048 -0.4699
   77SLPC  H13C 6933   1.018   6.220   5.959  0.6148 -0.6073  0.7235
   77SLPC   C14 6934   1.083   6.011   6.058  0.3382  0.0090 -0.4908
   77SLPC  H14A 6935   1.087   5.904   6.069  0.8819  0.2715  2.3236
   77SLPC  H14B 6936   1.117   6.035   5.958 -1.7481 -0.3084 -1.3005
   77SLPC  H14C 6937   1.150   6.070   6.119  0.5298 -0.2317 -0.4669
   77SLPC   C15 6938   0.863   6.010   5.955  0.4300  0.2414 -0.5636
   77SLPC  H15A 6939   0.895   6.068   5.869  2.5773 -0.1038 -0.0202
   77SLPC  H15B 6940   0.883   5.906   5.936  1.8532  0.1540  1.3809
   77SLPC  H15C 6941   0.759   6.014   5.986 -0.0402 -1.7264 -1.7769
   77SLPC   C12 6942   0.886   6.021   6.204 -0.1823 -0.5081  0.1157
   77SLPC  H12A 6943   0.879   5.913   6.199 -0.3174 -0.5033  0.2002
   77SLPC  H12B 6944   0.783   6.054   6.205 -0.0722 -0.1712  1.8144
   77SLPC   C11 6945   0.948   6.071   6.339  0.5333 -0.2466 -0.7592
   77SLPC  H11A 6946   1.047   6.022   6.351  0.9451  0.6981 -0.2701
   77SLPC  H11B 6947   0.882   6.025   6.416 -0.5697  2.2595 -0.1616
   77SLPC     P 6948   1.047   6.306   6.407 -0.2508  0.2383  0.1262
   77SLPC   O13 6949   1.139   6.320   6.293 -0.4334  0.1236  0.4443
   77SLPC   O14 6950   0.990   6.430   6.457 -0.1326 -0.4768 -0.3202
   77SLPC   O12 6951   0.933   6.209   6.353  0.4805  1.0325 -0.1871
   77SLPC   O11 6952   1.116   6.230   6.534  0.2275  0.0064  0.5330
   77SLPC    C1 6953   1.022   6.184   6.639 -0.1587  0.9790  0.2451
   77SLPC    HA 6954   0.914   6.203   6.618 -0.7749 -1.2287  1.2761
   77SLPC    HB 6955   1.037   6.074   6.647 -1.8317  0.7147  0.0666
   77SLPC    C2 6956   1.056   6.248   6.779  0.6176  0.4613  1.1161
   77SLPC    HS 6957   1.089   6.353   6.765 -2.2313  1.7680  3.6593
   77SLPC   O21 6958   1.164   6.172   6.833  0.3825  0.5144  0.5495
   77SLPC   C21 6959   1.234   6.249   6.925  0.2406  0.3731 -0.6142
   77SLPC   O22 6960   1.203   6.360   6.962 -0.1179 -0.5040 -0.0182
   77SLPC   C22 6961   1.338   6.161   6.991  0.0951 -0.1325  0.3075
   77SLPC   H2R 6962   1.293   6.060   6.999  3.2101 -1.4996  1.5180
   77SLPC   H2S 6963   1.424   6.154   6.921 -1.5836 -0.3567 -1.7837
   77SLPC    C3 6964   0.922   6.234   6.859  0.0627 -0.9829  0.2684
   77SLPC    HX 6965   0.872   6.137   6.835 -0.5491 -1.0291  1.6983
   77SLPC    HY 6966   0.851   6.311   6.823 -1.1592 -2.1818  0.0434
   77SLPC   O31 6967   0.943   6.228   7.002  0.1453  0.4195 -0.6876
   77SLPC   C31 6968   0.916   6.330   7.083 -0.0286  0.4726  0.5326
   77SLPC   O32 6969   0.873   6.438   7.047 -0.1539 -0.3032  0.1173
   77SLPC   C32 6970   0.963   6.291   7.223  0.2887 -0.3836 -0.3769
   77SLPC   H2X 6971   1.072   6.311   7.218  0.0945  0.6261 -0.5062
   77SLPC   H2Y 6972   0.935   6.188   7.255  0.6874  0.5359  3.1908
   77SLPC   C23 6973   1.386   6.204   7.135  1.2203 -0.0614  0.2114
   77SLPC   H3R 6974   1.307   6.184   7.211  0.0639  2.1704 -0.3450
   77SLPC   H3S 6975   1.406   6.313   7.133 -0.5570  0.2888  0.5708
   77SLPC   C24 6976   1.522   6.140   7.173 -0.2327 -0.0745 -0.3246
   77SLPC   H4R 6977   1.579   6.113   7.081  1.4482 -1.9546  1.2012
   77SLPC   H4S 6978   1.506   6.037   7.212  1.5798 -1.4598 -3.0390
   77SLPC   C25 6979   1.624   6.234   7.251 -0.2375 -0.4706 -0.2302
   77SLPC   H5R 6980   1.576   6.271   7.343 -0.9120  0.8524 -1.0959
   77SLPC   H5S 6981   1.625   6.320   7.181 -0.4965 -0.2815 -0.0023
   77SLPC   C26 6982   1.751   6.157   7.278 -0.5146 -0.5755  0.3023
   77SLPC   H6R 6983   1.800   6.145   7.179 -1.7923 -1.0137 -0.2830
   77SLPC   H6S 6984   1.738   6.052   7.311 -1.9916  0.1242  2.0153
   77SLPC   C27 6985   1.846   6.231   7.375  0.1470  1.1576 -0.0206
   77SLPC   H7R 6986   1.944   6.181   7.386  0.0259  0.6557 -1.1786
   77SLPC   H7S 6987   1.797   6.232   7.475 -0.1401 -1.0212 -0.1075
   77SLPC   C28 6988   1.870   6.377   7.335 -0.3277  0.4979 -0.1348
   77SLPC   H8R 6989   1.771   6.426   7.325 -1.5085 -2.0501 -1.2394
   77SLPC   H8S 6990   1.909   6.371   7.231  1.7104  0.2206  0.6176
   77SLPC   C29 6991   1.972   6.447   7.424 -0.1344  0.0796 -0.4224
   77SLPC   H9R 6992   2.065   6.389   7.440  0.7658  1.8896  1.1155
   77SLPC  C210 6993   1.967   6.572   7.483 -0.2822  0.0768  0.2451
   77SLPC  H10R 6994   2.046   6.611   7.549  1.3401 -1.2204 -0.8785
   77SLPC  C211 6995   1.861   6.677   7.460  0.5642  0.3896  0.1644
   77SLPC  H11R 6996   1.808   6.659   7.365 -1.1540  4.3782  0.2581
   77SLPC  H11S 6997   1.906   6.777   7.441  0.3879  0.1669 -1.4269
   77SLPC  C212 6998   1.751   6.692   7.565 -0.2342 -0.8730  0.4079
   77SLPC  H12R 6999   1.656   6.640   7.546 -0.2057 -1.7283  2.5530
   77SLPC  C213 7000   1.763   6.772   7.669  0.1213  0.7544 -0.0319
   77SLPC  H13R 7001   1.675   6.783   7.734 -0.2164 -0.3004 -0.3139
   77SLPC  C214 7002   1.875   6.852   7.717 -0.4319  0.2367 -0.1076
   77SLPC  H14R 7003   1.893   6.928   7.637 -0.8181  0.0083 -0.4110
   77SLPC  H14S 7004   1.969   6.793   7.719 -1.1105 -0.8205  0.8281
   77SLPC  C215 7005   1.859   6.926   7.853 -0.7527 -0.1340  0.2524
   77SLPC  H15R 7006   1.752   6.951   7.868 -1.7041 -4.4389  1.3060
   77SLPC  H15S 7007   1.921   7.016   7.872 -2.3312  0.8650  0.8191
   77SLPC  C216 7008   1.890   6.827   7.970 -0.1382 -0.0352  0.0414
   77SLPC  H16R 7009   1.840   6.872   8.059 -1.2771  0.4803 -0.8490
   77SLPC  H16S 7010   1.998   6.824   7.993 -0.2101 -1.1997  0.2259
   77SLPC  C217 7011   1.841   6.688   7.961  0.0333 -0.4623 -0.1203
   77SLPC  H17R 7012   1.903   6.633   7.888  0.9787  1.5533 -0.8744
   77SLPC  H17S 7013   1.735   6.681   7.927 -0.0898 -0.1224  0.1858
   77SLPC  C218 7014   1.845   6.613   8.101  0.1292  0.3198  0.2309
   77SLPC  H18R 7015   1.949   6.608   8.140 -0.3934 -2.1572  1.4305
   77SLPC  H18S 7016   1.820   6.506   8.088 -1.0586  0.8597 -2.1717
   77SLPC  H18T 7017   1.776   6.670   8.167 -0.4863 -1.1733  0.9041
   77SLPC   C33 7018   0.915   6.393   7.325 -0.1773  0.4907  0.1901
   77SLPC   H3X 7019   0.933   6.499   7.299 -0.1181  0.4276 -0.0290
   77SLPC   H3Y 7020   0.971   6.377   7.419  0.4457 -2.9924 -0.6805
   77SLPC   C34 7021   0.763   6.365   7.367 -0.5487  0.0994  0.9231
   77SLPC   H4X 7022   0.699   6.381   7.277 -0.5513  0.1829  0.9396
   77SLPC   H4Y 7023   0.739   6.451   7.432  0.5330  0.9747  0.1923
   77SLPC   C35 7024   0.741   6.226   7.426  0.0302  0.6146 -0.3463
   77SLPC   H5X 7025   0.803   6.217   7.518 -1.6458 -1.3624  0.5990
   77SLPC   H5Y 7026   0.780   6.148   7.357 -0.0771  0.7696 -0.5844
   77SLPC   C36 7027   0.599   6.186   7.466  0.2238  0.3053  0.0118
   77SLPC   H6X 7028   0.531   6.207   7.380  1.1386 -0.3598 -0.8904
   77SLPC   H6Y 7029   0.573   6.249   7.553 -2.6951 -1.9321  0.8403
   77SLPC   C37 7030   0.563   6.041   7.502  0.0125 -0.2257  0.1053
   77SLPC   H7X 7031   0.625   6.018   7.591  1.6548  0.9243 -0.7314
   77SLPC   H7Y 7032   0.598   5.970   7.424 -1.7828  1.0718 -1.9209
   77SLPC   C38 7033   0.417   6.014   7.550 -0.0114 -0.4012 -0.2806
   77SLPC   H8X 7034   0.422   5.906   7.577  0.4565  0.2335  2.2295
   77SLPC   H8Y 7035   0.337   6.036   7.477 -0.0592 -2.8581 -1.0225
   77SLPC   C39 7036   0.368   6.111   7.657 -0.5151 -0.0326 -0.3242
   77SLPC   H9X 7037   0.396   6.214   7.628 -2.8215  0.4990 -0.6798
   77SLPC   H9Y 7038   0.425   6.101   7.752 -0.0191 -3.1142 -0.8873
   77SLPC  C310 7039   0.223   6.102   7.683  0.0831  0.9325  0.1212
   77SLPC  H10X 7040   0.193   6.020   7.751  1.4324  0.1507 -0.2035
   77SLPC  H10Y 7041   0.168   6.087   7.587  1.6327  0.5534 -0.7370
   77SLPC  C311 7042   0.163   6.223   7.756 -1.3057 -0.1260  0.6364
   77SLPC  H11X 7043   0.188   6.312   7.694 -1.6354 -0.5616 -0.1183
   77SLPC  H11Y 7044   0.226   6.247   7.845  0.3394  2.3612 -1.1131
   77SLPC  C312 7045   0.016   6.215   7.793  0.2334 -0.1292  0.0751
   77SLPC  H12X 7046  -0.019   6.137   7.864  0.0857  1.5330  1.8782
   77SLPC  H12Y 7047  -0.041   6.192   7.701 -1.1833  0.9416  0.6503
   77SLPC  C313 7048  -0.037   6.349   7.843  0.5362 -0.7846 -0.0476
   77SLPC  H13X 7049  -0.147   6.362   7.843  0.7945  1.8513 -2.3420
   77SLPC  H13Y 7050   0.009   6.433   7.788  0.3281  0.0725  1.0585
   77SLPC  C314 7051   0.010   6.372   7.990 -0.1742  0.6907  0.2642
   77SLPC  H14X 7052   0.000   6.481   8.009 -2.3723  0.3225  1.3937
   77SLPC  H14Y 7053   0.117   6.343   7.992  0.2360  2.2099  1.0247
   77SLPC  C315 7054  -0.067   6.295   8.104  0.2305  0.2935  0.5057
   77SLPC  H15X 7055  -0.055   6.185   8.092  0.2553  0.4711 -1.2366
   77SLPC  H15Y 7056  -0.172   6.320   8.079 -1.0757 -4.9459  0.2797
   77SLPC  C316 7057  -0.041   6.354   8.248 -0.0558  0.4245 -0.1620
   77SLPC  H16X 7058  -0.050   6.465   8.253  0.6652  0.4561  0.3701
   77SLPC  H16Y 7059   0.059   6.343   8.295  0.1888  0.6351 -0.6261
   77SLPC  C317 7060  -0.145   6.313   8.352  0.3398 -0.0682  0.4090
   77SLPC  H17X 7061  -0.145   6.202   8.356  0.5263 -0.2211 -2.3355
   77SLPC  H17Y 7062  -0.241   6.347   8.309  0.0596 -0.3947  0.7822
   77SLPC  C318 7063  -0.129   6.371   8.488  0.2803 -0.1606  0.0755
   77SLPC  H18X 7064  -0.022   6.376   8.517  0.3291  0.5094 -0.2115
   77SLPC  H18Y 7065  -0.179   6.309   8.565  1.0730 -0.6237  0.2155
   77SLPC  H18Z 7066  -0.178   6.471   8.492 -0.3784 -0.5364  1.7408
   78SLPC     N 7067   3.455   0.797   6.104 -0.1251  0.0699 -0.1242
   78SLPC   C13 7068   3.383   0.688   6.023 -0.3833 -0.2426 -0.1817
   78SLPC  H13A 7069   3.457   0.616   5.990  1.3295  0.2607  2.4505
   78SLPC  H13B 7070   3.310   0.628   6.076 -0.0678 -0.1299  0.3831
   78SLPC  H13C 7071   3.340   0.732   5.934  1.5243  2.0100 -0.0384
   78SLPC   C14 7072   3.349   0.911   6.128 -0.5211 -0.5976 -0.0450
   78SLPC  H14A 7073   3.280   0.873   6.201  1.9279 -0.5722  2.3585
   78SLPC  H14B 7074   3.402   1.001   6.155 -1.0673 -0.5175  0.7665
   78SLPC  H14C 7075   3.300   0.930   6.033  1.7991  1.1351 -0.9413
   78SLPC   C15 7076   3.564   0.845   6.021 -0.1648 -0.5866 -0.5768
   78SLPC  H15A 7077   3.636   0.765   6.007 -0.5335 -1.0757  0.2659
   78SLPC  H15B 7078   3.527   0.885   5.928 -1.2024 -0.8658 -0.2915
   78SLPC  H15C 7079   3.620   0.925   6.066  0.2839 -1.4315  0.3981
   78SLPC   C12 7080   3.501   0.737   6.238  0.0010 -0.0083 -0.8225
   78SLPC  H12A 7081   3.578   0.669   6.204  0.0821  1.1096 -2.9605
   78SLPC  H12B 7082   3.424   0.675   6.281 -0.8607 -1.1729 -3.8687
   78SLPC   C11 7083   3.567   0.828   6.342  0.1498 -0.4779 -0.1043
   78SLPC  H11A 7084   3.577   0.780   6.441  1.7873  3.0725  1.5450
   78SLPC  H11B 7085   3.501   0.916   6.359 -0.9357 -1.3547  0.3062
   78SLPC     P 7086   3.814   0.781   6.307 -0.2049  0.3258  0.0277
   78SLPC   O13 7087   3.778   0.636   6.282  0.6221 -0.9608  0.4589
   78SLPC   O14 7088   3.933   0.824   6.219  0.3936  0.2739 -0.0256
   78SLPC   O12 7089   3.683   0.880   6.288 -0.3975  0.1799 -0.3472
   78SLPC   O11 7090   3.868   0.797   6.450  0.1952  0.4485  0.3500
   78SLPC    C1 7091   3.869   0.912   6.528  0.0712  0.0783  0.4333
   78SLPC    HA 7092   3.952   0.979   6.498  0.9302 -0.6355  1.2028
   78SLPC    HB 7093   3.779   0.977   6.515 -1.3763 -1.9246  0.2193
   78SLPC    C2 7094   3.885   0.877   6.673 -0.0102 -0.7117 -0.5749
   78SLPC    HS 7095   3.861   0.966   6.735  0.3274  0.3644 -1.9561
   78SLPC   O21 7096   4.022   0.828   6.685 -0.1814  0.4135  0.6577
   78SLPC   C21 7097   4.074   0.843   6.803  0.2583 -0.3520 -1.2807
   78SLPC   O22 7098   4.025   0.910   6.894 -0.3762 -0.4694 -0.3035
   78SLPC   C22 7099   4.208   0.769   6.811  0.3066 -0.5751  0.1746
   78SLPC   H2R 7100   4.178   0.663   6.800 -0.2022 -0.4990  0.7922
   78SLPC   H2S 7101   4.266   0.784   6.718  2.2439 -0.6427  1.3521
   78SLPC    C3 7102   3.777   0.770   6.728 -0.0410  0.1285  0.8344
   78SLPC    HX 7103   3.779   0.678   6.667 -0.3998  2.0926 -2.2668
   78SLPC    HY 7104   3.680   0.819   6.704  0.1023 -0.6392 -1.3872
   78SLPC   O31 7105   3.790   0.716   6.861  0.1229 -0.1740 -0.3360
   78SLPC   C31 7106   3.740   0.806   6.949 -0.0274  0.2597 -0.3156
   78SLPC   O32 7107   3.685   0.915   6.931 -0.3272 -0.2769  0.2971
   78SLPC   C32 7108   3.768   0.742   7.087  0.0205  1.1031  0.8605
   78SLPC   H2X 7109   3.879   0.750   7.094  0.0030  1.1393  1.0987
   78SLPC   H2Y 7110   3.734   0.637   7.093  1.6894  0.5508  0.9303
   78SLPC   C23 7111   4.282   0.783   6.946  0.6369 -0.2998  0.4752
   78SLPC   H3R 7112   4.258   0.883   6.987 -2.6840  0.0054 -1.9981
   78SLPC   H3S 7113   4.390   0.766   6.927  0.5535  1.4489 -1.7470
   78SLPC   C24 7114   4.227   0.679   7.040  0.6132  0.1955 -0.0177
   78SLPC   H4R 7115   4.262   0.576   7.019  1.6131  0.0752  2.1499
   78SLPC   H4S 7116   4.116   0.678   7.031  0.7522  1.0355 -2.2086
   78SLPC   C25 7117   4.256   0.704   7.191  0.2553 -0.2230 -0.0811
   78SLPC   H5R 7118   4.223   0.808   7.214 -0.1616 -0.7926  2.0197
   78SLPC   H5S 7119   4.363   0.707   7.220 -0.1576 -0.4470  1.5113
   78SLPC   C26 7120   4.176   0.602   7.278  0.0916 -0.0793 -0.1511
   78SLPC   H6R 7121   4.212   0.501   7.250  0.7158  0.6908 -2.2244
   78SLPC   H6S 7122   4.071   0.594   7.244  0.2224  2.0904 -1.0876
   78SLPC   C27 7123   4.188   0.626   7.431 -0.3825 -0.2467 -0.5663
   78SLPC   H7R 7124   4.120   0.556   7.483  1.9780 -0.2984  2.5942
   78SLPC   H7S 7125   4.154   0.728   7.458  2.3028  0.7262 -0.6376
   78SLPC   C28 7126   4.328   0.601   7.477 -0.1505 -0.7176 -0.3601
   78SLPC   H8R 7127   4.379   0.697   7.456 -0.3017  0.0473  2.5642
   78SLPC   H8S 7128   4.379   0.518   7.423 -0.0465 -1.1804  0.4485
   78SLPC   C29 7129   4.335   0.572   7.621  0.5056 -0.7675 -0.5853
   78SLPC   H9R 7130   4.245   0.578   7.684 -0.5459 -0.9698 -2.0345
   78SLPC  C210 7131   4.461   0.538   7.674 -0.0117  0.1614 -0.3251
   78SLPC  H10R 7132   4.458   0.500   7.778  4.9442 -0.8234 -0.4313
   78SLPC  C211 7133   4.594   0.534   7.601 -0.2048  0.6056 -0.0075
   78SLPC  H11R 7134   4.678   0.561   7.669  0.1327 -0.6092  0.0787
   78SLPC  H11S 7135   4.605   0.599   7.512 -0.9421 -1.9461 -2.0283
   78SLPC  C212 7136   4.611   0.397   7.550 -0.0540  0.0671  0.7045
   78SLPC  H12R 7137   4.533   0.325   7.580 -1.2794  0.5410 -1.2338
   78SLPC  C213 7138   4.701   0.347   7.462 -0.3885  0.1212 -0.4338
   78SLPC  H13R 7139   4.694   0.240   7.436 -1.3177  0.1804 -0.4429
   78SLPC  C214 7140   4.823   0.415   7.395  0.9073  0.6711 -0.1572
   78SLPC  H14R 7141   4.916   0.354   7.395  3.3536  4.2292 -1.0657
   78SLPC  H14S 7142   4.837   0.515   7.441  0.2583  0.6218  0.1564
   78SLPC  C215 7143   4.791   0.458   7.253  0.5670  0.3176  0.4877
   78SLPC  H15R 7144   4.843   0.551   7.222  0.1627  0.4415  0.1854
   78SLPC  H15S 7145   4.687   0.493   7.241  0.0651 -1.5512 -0.8849
   78SLPC  C216 7146   4.804   0.342   7.149  0.4149 -0.2946  0.4465
   78SLPC  H16R 7147   4.758   0.254   7.201  0.3421 -1.1055 -0.9620
   78SLPC  H16S 7148   4.910   0.317   7.129  0.7874  1.2270  0.4862
   78SLPC  C217 7149   4.715   0.363   7.022 -0.1876 -0.5274  0.1797
   78SLPC  H17R 7150   4.615   0.406   7.043 -0.1493 -1.0750  1.5624
   78SLPC  H17S 7151   4.699   0.266   6.971 -1.0495  0.3786 -1.2939
   78SLPC  C218 7152   4.773   0.479   6.933  0.0621 -0.3070 -0.1806
   78SLPC  H18R 7153   4.797   0.561   7.003  1.5569 -0.5823 -0.3519
   78SLPC  H18S 7154   4.707   0.518   6.853 -2.8640 -2.2474  1.2148
   78SLPC  H18T 7155   4.865   0.447   6.880  0.5595  1.8503 -0.6399
   78SLPC   C33 7156   3.694   0.828   7.194  0.5490 -0.5788  0.2461
   78SLPC   H3X 7157   3.585   0.806   7.189  1.0522 -2.9388 -1.4006
   78SLPC   H3Y 7158   3.701   0.937   7.176 -1.1230 -0.4783  0.1342
   78SLPC   C34 7159   3.749   0.817   7.335 -0.0719 -0.0721  0.1232
   78SLPC   H4X 7160   3.850   0.856   7.315  0.3833 -0.7349  1.0724
   78SLPC   H4Y 7161   3.764   0.714   7.372  3.7113  0.9054  1.5157
   78SLPC   C35 7162   3.674   0.914   7.430  0.2369 -0.1588 -0.2011
   78SLPC   H5X 7163   3.573   0.875   7.454  1.0329 -2.3864 -0.2691
   78SLPC   H5Y 7164   3.667   1.014   7.384 -0.1117 -0.4780 -0.8505
   78SLPC   C36 7165   3.748   0.929   7.569  0.4635 -0.0500  0.9160
   78SLPC   H6X 7166   3.713   1.001   7.646  2.0008 -0.5512  2.1127
   78SLPC   H6Y 7167   3.847   0.978   7.555  0.4585 -0.3677 -0.3437
   78SLPC   C37 7168   3.779   0.792   7.633 -0.6343  0.2309  0.2108
   78SLPC   H7X 7169   3.871   0.759   7.579 -0.3701  2.1111 -0.5462
   78SLPC   H7Y 7170   3.699   0.720   7.608  0.5486 -0.5217 -1.5304
   78SLPC   C38 7171   3.817   0.792   7.784 -0.4809 -0.5370  0.1814
   78SLPC   H8X 7172   3.743   0.850   7.843  0.2157 -0.2997  0.8274
   78SLPC   H8Y 7173   3.904   0.855   7.810 -0.6269 -0.1438 -0.2904
   78SLPC   C39 7174   3.847   0.649   7.839 -1.0782 -0.7326 -0.1402
   78SLPC   H9X 7175   3.758   0.585   7.825 -0.3405 -2.9046  4.1535
   78SLPC   H9Y 7176   3.858   0.646   7.950  1.2777 -0.0611 -0.3313
   78SLPC  C310 7177   3.971   0.588   7.772  0.1077  0.6484 -0.7311
   78SLPC  H10X 7178   4.051   0.665   7.766  0.4427  0.3574 -0.0332
   78SLPC  H10Y 7179   3.947   0.553   7.669  2.3027  0.0142 -1.0695
   78SLPC  C311 7180   4.023   0.464   7.849 -0.3395  0.2165  0.1893
   78SLPC  H11X 7181   4.095   0.427   7.772 -0.2673 -3.3191  1.8663
   78SLPC  H11Y 7182   3.954   0.378   7.856 -0.4042  0.3546  1.4227
   78SLPC  C312 7183   4.082   0.492   7.989 -0.0161  0.1555 -0.5612
   78SLPC  H12X 7184   4.139   0.402   8.020 -0.2090  0.2635  0.1162
   78SLPC  H12Y 7185   3.999   0.519   8.058  0.7459 -2.2093  1.3743
   78SLPC  C313 7186   4.181   0.604   7.992  0.1679 -0.4009 -1.0638
   78SLPC  H13X 7187   4.137   0.705   7.975 -0.6120 -0.3470  1.0578
   78SLPC  H13Y 7188   4.261   0.582   7.918  1.1042  0.5665 -0.3691
   78SLPC  C314 7189   4.257   0.624   8.120  0.2341  0.1140 -0.0042
   78SLPC  H14X 7190   4.279   0.521   8.153  0.9974 -0.2875 -1.6912
   78SLPC  H14Y 7191   4.198   0.685   8.192 -0.1676 -0.3557  0.0636
   78SLPC  C315 7192   4.392   0.680   8.090  0.3402 -0.2144 -0.3969
   78SLPC  H15X 7193   4.430   0.746   8.171 -1.0122  3.0802 -2.3508
   78SLPC  H15Y 7194   4.387   0.750   8.004 -1.3041  0.0515 -0.0995
   78SLPC  C316 7195   4.499   0.574   8.055 -0.1474 -0.2943  0.7568
   78SLPC  H16X 7196   4.459   0.506   7.976  0.3730 -2.0164  1.9388
   78SLPC  H16Y 7197   4.536   0.520   8.145 -0.3409 -0.1262  0.9356
   78SLPC  C317 7198   4.618   0.646   7.977  0.0388 -0.1492  0.9092
   78SLPC  H17X 7199   4.652   0.733   8.036 -0.7803 -0.4116  1.7718
   78SLPC  H17Y 7200   4.578   0.698   7.887 -0.4902 -1.4192  0.3884
   78SLPC  C318 7201   4.730   0.554   7.944 -0.7506 -0.3385 -0.2889
   78SLPC  H18X 7202   4.795   0.540   8.033  1.0789  0.5617 -1.4528
   78SLPC  H18Y 7203   4.794   0.597   7.864  0.4941  0.3556  1.0476
   78SLPC  H18Z 7204   4.695   0.455   7.911  1.0161 -1.1237  0.1295
   79SLPC     N 7205   0.920   3.204   6.117 -0.7468 -0.4931 -0.4339
   79SLPC   C13 7206   0.951   3.229   5.971  0.9480  0.2679  0.8404
   79SLPC  H13A 7207   0.854   3.226   5.923  1.1719  0.8269  0.3565
   79SLPC  H13B 7208   1.001   3.323   5.958 -0.0769  0.8738  1.2782
   79SLPC  H13C 7209   1.010   3.148   5.929  1.8429  1.3095  0.0481
   79SLPC   C14 7210   0.801   3.291   6.150  0.4273  0.6001  0.2175
   79SLPC  H14A 7211   0.790   3.295   6.258 -1.0479 -1.5630  0.1919
   79SLPC  H14B 7212   0.820   3.393   6.122 -2.1373  0.3603 -2.6191
   79SLPC  H14C 7213   0.712   3.253   6.103  0.7920  0.6816 -0.5319
   79SLPC   C15 7214   1.037   3.242   6.204 -0.0074 -0.0725  0.0766
   79SLPC  H15A 7215   1.066   3.346   6.203 -3.7772  1.0488 -2.3623
   79SLPC  H15B 7216   1.018   3.222   6.309  0.4464 -0.4872  0.0827
   79SLPC  H15C 7217   1.125   3.186   6.179 -0.3490  0.9639 -3.8003
   79SLPC   C12 7218   0.898   3.059   6.140  0.6660  0.6711 -0.3561
   79SLPC  H12A 7219   0.995   3.011   6.133 -1.0592 -2.9156 -0.9804
   79SLPC  H12B 7220   0.843   3.015   6.058 -1.5160 -0.8945  1.8303
   79SLPC   C11 7221   0.844   3.030   6.282 -0.9131  0.1832  0.8779
   79SLPC  H11A 7222   0.734   3.048   6.281 -1.2209 -1.6481 -0.2356
   79SLPC  H11B 7223   0.887   3.098   6.358  0.2818 -1.5776  1.7907
   79SLPC     P 7224   1.017   2.836   6.339 -0.2646  0.4580  0.1846
   79SLPC   O13 7225   1.059   2.715   6.269  0.0173 -0.1914 -0.0856
   79SLPC   O14 7226   1.112   2.950   6.326 -0.5797 -0.1442  0.1506
   79SLPC   O12 7227   0.870   2.887   6.303  0.2131  0.5019  0.5710
   79SLPC   O11 7228   0.991   2.791   6.495 -0.2809  0.1229  0.2436
   79SLPC    C1 7229   0.949   2.896   6.580  0.3550 -0.8632 -0.5978
   79SLPC    HA 7230   1.024   2.977   6.595 -0.3473 -0.4420  0.6834
   79SLPC    HB 7231   0.851   2.936   6.545 -0.2132 -0.6914  1.1467
   79SLPC    C2 7232   0.923   2.842   6.718 -0.1334 -0.4083  0.2871
   79SLPC    HS 7233   0.860   2.907   6.782 -0.3447  1.4532 -1.7360
   79SLPC   O21 7234   1.053   2.812   6.776 -0.5872  0.0215 -0.1208
   79SLPC   C21 7235   1.119   2.912   6.818 -0.1102 -0.0319  0.4355
   79SLPC   O22 7236   1.079   3.026   6.817  0.0324 -0.3412 -0.8784
   79SLPC   C22 7237   1.247   2.867   6.892  0.6843 -0.5563 -0.2848
   79SLPC   H2R 7238   1.304   2.800   6.824 -0.1060 -0.2620 -1.2505
   79SLPC   H2S 7239   1.308   2.959   6.907 -0.1267  0.0967 -0.9098
   79SLPC    C3 7240   0.847   2.711   6.713 -0.0042 -0.1941 -0.0130
   79SLPC    HX 7241   0.900   2.630   6.659  1.0412 -0.2432  1.0828
   79SLPC    HY 7242   0.763   2.733   6.643  1.9269  3.8846 -1.1754
   79SLPC   O31 7243   0.798   2.668   6.849 -0.4302 -0.0307  0.4322
   79SLPC   C31 7244   0.849   2.562   6.904  0.9077  0.3885  0.1995
   79SLPC   O32 7245   0.934   2.487   6.855 -0.4300  0.3838  0.3343
   79SLPC   C32 7246   0.793   2.549   7.046  0.2355 -0.4272 -0.2716
   79SLPC   H2X 7247   0.717   2.469   7.035  0.3480 -0.8724  1.8873
   79SLPC   H2Y 7248   0.749   2.647   7.071  1.3161 -0.2081  0.8227
   79SLPC   C23 7249   1.219   2.787   7.015  0.4241 -0.3296  0.2382
   79SLPC   H3R 7250   1.301   2.714   7.031 -0.2755 -1.0475  0.5687
   79SLPC   H3S 7251   1.128   2.725   7.002  0.0775  0.2200 -0.0010
   79SLPC   C24 7252   1.228   2.881   7.135 -0.2359 -0.0636 -0.1548
   79SLPC   H4R 7253   1.153   2.963   7.126  1.0543  1.1619 -0.0027
   79SLPC   H4S 7254   1.328   2.928   7.144 -0.1507  0.1800 -2.2132
   79SLPC   C25 7255   1.210   2.806   7.270 -0.4164  0.2446  0.0784
   79SLPC   H5R 7256   1.301   2.743   7.281 -1.3381 -1.1534 -0.1967
   79SLPC   H5S 7257   1.116   2.747   7.260  0.5612 -1.0080 -1.9466
   79SLPC   C26 7258   1.195   2.891   7.395 -0.3605 -0.1289 -0.2635
   79SLPC   H6R 7259   1.105   2.952   7.374 -0.5270  0.2971  1.6112
   79SLPC   H6S 7260   1.281   2.960   7.384  0.8736 -1.4475  0.9881
   79SLPC   C27 7261   1.180   2.816   7.522 -0.4947  0.0295 -0.0439
   79SLPC   H7R 7262   1.272   2.758   7.539 -0.1835  0.8135  0.9673
   79SLPC   H7S 7263   1.099   2.744   7.497  0.9938 -1.7976  0.2777
   79SLPC   C28 7264   1.142   2.900   7.646 -0.2715  0.4397  0.9009
   79SLPC   H8R 7265   1.067   2.975   7.614 -1.3391 -0.2303  1.8229
   79SLPC   H8S 7266   1.230   2.961   7.674  0.3921 -1.0862  2.2708
   79SLPC   C29 7267   1.099   2.805   7.752 -0.3654 -0.3156 -0.4479
   79SLPC   H9R 7268   1.008   2.746   7.730  0.2107 -2.1858  2.0244
   79SLPC  C210 7269   1.150   2.782   7.872 -0.2300  0.3850 -0.2847
   79SLPC  H10R 7270   1.100   2.703   7.930 -1.3523 -0.3943 -2.2381
   79SLPC  C211 7271   1.280   2.848   7.925  0.0790 -0.0882  0.7129
   79SLPC  H11R 7272   1.360   2.835   7.849  0.0368  0.4645  0.5652
   79SLPC  H11S 7273   1.326   2.787   8.005 -2.3413 -1.2274  1.2762
   79SLPC  C212 7274   1.277   2.996   7.961  0.2574  0.3967  0.2274
   79SLPC  H12R 7275   1.264   3.055   7.869 -0.4424  0.9561  0.6784
   79SLPC  C213 7276   1.296   3.058   8.077  0.2165 -0.1876 -0.2996
   79SLPC  H13R 7277   1.288   3.168   8.079 -1.3983 -0.3159  1.0925
   79SLPC  C214 7278   1.334   2.987   8.204  0.3326 -0.4440  0.1416
   79SLPC  H14R 7279   1.373   3.062   8.276 -1.2013  0.8290 -0.3229
   79SLPC  H14S 7280   1.414   2.917   8.173  2.1890  3.1149 -3.7070
   79SLPC  C215 7281   1.209   2.906   8.247 -0.0594  0.3115  0.8779
   79SLPC  H15R 7282   1.233   2.872   8.350  0.1154  0.1935  0.7982
   79SLPC  H15S 7283   1.187   2.821   8.179 -2.7179  1.2028  0.5689
   79SLPC  C216 7284   1.074   2.989   8.263  0.1750  0.2608 -0.0546
   79SLPC  H16R 7285   1.042   3.026   8.163 -0.4232  0.3170  0.1558
   79SLPC  H16S 7286   1.083   3.083   8.322 -0.6800 -0.0334  0.5657
   79SLPC  C217 7287   0.959   2.910   8.328 -0.0989 -0.4595  0.0848
   79SLPC  H17R 7288   0.979   2.890   8.435  1.8205  0.3629 -0.0966
   79SLPC  H17S 7289   0.935   2.814   8.278 -0.0016 -0.3376 -0.1985
   79SLPC  C218 7290   0.825   2.983   8.312  0.5141  0.3799  0.2041
   79SLPC  H18R 7291   0.787   2.967   8.209 -2.1464 -2.3396  1.5132
   79SLPC  H18S 7292   0.822   3.091   8.340  0.7040  0.5717 -0.5263
   79SLPC  H18T 7293   0.754   2.931   8.380 -0.9229  1.1078 -0.7128
   79SLPC   C33 7294   0.903   2.512   7.140  0.2111  0.2876  0.1455
   79SLPC   H3X 7295   0.989   2.582   7.134  1.4838 -1.2143  0.4285
   79SLPC   H3Y 7296   0.933   2.406   7.126 -2.3569 -0.5235  0.5021
   79SLPC   C34 7297   0.865   2.532   7.286  0.3251 -0.2195 -0.1303
   79SLPC   H4X 7298   0.762   2.491   7.293  0.4953 -0.8289 -1.1516
   79SLPC   H4Y 7299   0.872   2.635   7.328 -0.0732 -0.9342  1.7407
   79SLPC   C35 7300   0.963   2.447   7.373 -0.0152  0.0719  0.5178
   79SLPC   H5X 7301   1.062   2.496   7.361  0.1567 -0.3640  0.1229
   79SLPC   H5Y 7302   0.970   2.340   7.343  2.7119  0.2648  0.4127
   79SLPC   C36 7303   0.921   2.455   7.518  0.4534 -0.3783 -0.3658
   79SLPC   H6X 7304   0.823   2.405   7.536  0.2736  0.4044  0.8822
   79SLPC   H6Y 7305   0.901   2.563   7.529  2.0412 -0.0089 -1.0386
   79SLPC   C37 7306   1.008   2.404   7.625 -0.4105  0.1244  0.1762
   79SLPC   H7X 7307   1.113   2.439   7.632 -0.5331  0.4880  0.1683
   79SLPC   H7Y 7308   1.027   2.295   7.609 -0.2663 -0.1022  1.7410
   79SLPC   C38 7309   0.940   2.427   7.766 -0.0702  0.0885  0.1538
   79SLPC   H8X 7310   0.836   2.388   7.770 -0.5751  1.1051 -2.2496
   79SLPC   H8Y 7311   0.942   2.537   7.783  0.0788  0.2133 -0.6394
   79SLPC   C39 7312   1.018   2.353   7.876  0.2346  0.6023  0.0668
   79SLPC   H9X 7313   1.110   2.414   7.889 -0.3969  1.6766 -0.4461
   79SLPC   H9Y 7314   1.030   2.246   7.850 -2.2512  0.1768  0.5447
   79SLPC  C310 7315   0.941   2.357   8.018 -0.2827 -0.3206 -0.4280
   79SLPC  H10X 7316   0.997   2.293   8.089  0.8007 -1.1353 -1.9672
   79SLPC  H10Y 7317   0.842   2.310   8.005 -0.2977 -0.2012 -0.7721
   79SLPC  C311 7318   0.929   2.502   8.072  0.3946  0.1218 -0.1093
   79SLPC  H11X 7319   0.881   2.568   7.997 -1.1906 -0.3175  0.4812
   79SLPC  H11Y 7320   1.030   2.540   8.096  1.3471 -2.5150  0.2700
   79SLPC  C312 7321   0.841   2.515   8.195  0.2198  0.3336  0.1774
   79SLPC  H12X 7322   0.738   2.492   8.158  0.4371 -0.5408  0.0964
   79SLPC  H12Y 7323   0.841   2.620   8.232 -2.2319 -0.3749  2.3921
   79SLPC  C313 7324   0.876   2.420   8.309 -0.4450 -0.6983 -0.1947
   79SLPC  H13X 7325   0.861   2.317   8.271  0.0142 -1.0208  0.4976
   79SLPC  H13Y 7326   0.804   2.432   8.393 -0.0585 -2.3556  0.3809
   79SLPC  C314 7327   1.018   2.430   8.350 -0.4816  0.1356 -0.6131
   79SLPC  H14X 7328   1.088   2.436   8.263 -1.1718 -1.4086 -1.2972
   79SLPC  H14Y 7329   1.047   2.335   8.401 -0.2799 -0.3944 -1.6952
   79SLPC  C315 7330   1.050   2.551   8.435  0.2794 -0.1255  0.1496
   79SLPC  H15X 7331   0.966   2.568   8.506 -0.5611  1.5922 -1.1992
   79SLPC  H15Y 7332   1.046   2.643   8.373  1.2525 -0.0888  0.1474
   79SLPC  C316 7333   1.189   2.552   8.510  0.5452 -0.1009 -0.1390
   79SLPC  H16X 7334   1.179   2.477   8.591 -1.1860  1.1018  0.7903
   79SLPC  H16Y 7335   1.212   2.647   8.562 -0.1340 -0.6774  1.2238
   79SLPC  C317 7336   1.314   2.515   8.430 -0.5041  0.1076 -0.6133
   79SLPC  H17X 7337   1.330   2.592   8.351 -3.0378  1.3472  0.0084
   79SLPC  H17Y 7338   1.286   2.420   8.381  0.5684 -0.7478  0.4382
   79SLPC  C318 7339   1.432   2.510   8.520 -0.1073  0.0433  0.3167
   79SLPC  H18X 7340   1.421   2.448   8.611 -0.2711  1.3904  1.2184
   79SLPC  H18Y 7341   1.455   2.603   8.575  1.1060 -0.7026  1.0967
   79SLPC  H18Z 7342   1.525   2.479   8.467  0.2449  2.4376 -0.5472
   80SLPC     N 7343   2.875   1.098   6.304 -0.3343  0.9375  0.1308
   80SLPC   C13 7344   2.931   1.180   6.194 -0.5363 -0.0540  0.2847
   80SLPC  H13A 7345   2.989   1.119   6.126  2.2972  0.9336  1.7505
   80SLPC  H13B 7346   2.858   1.235   6.135  0.1638 -1.0324 -1.5121
   80SLPC  H13C 7347   3.001   1.255   6.229 -1.0856  0.9609 -0.7307
   80SLPC   C14 7348   2.793   1.192   6.399  0.1084 -0.0639  0.3001
   80SLPC  H14A 7349   2.755   1.141   6.486  0.3634 -2.2039 -0.8135
   80SLPC  H14B 7350   2.850   1.280   6.425  1.4367 -1.0517  0.8270
   80SLPC  H14C 7351   2.712   1.226   6.336 -0.2830 -0.1503  0.7528
   80SLPC   C15 7352   2.997   1.042   6.368 -0.2410  0.0782  0.0149
   80SLPC  H15A 7353   2.979   0.992   6.462 -0.7315 -0.5947 -0.4367
   80SLPC  H15B 7354   3.057   0.976   6.306 -0.8840 -2.1348  1.6674
   80SLPC  H15C 7355   3.052   1.131   6.396 -0.4721 -0.1347  1.1867
   80SLPC   C12 7356   2.777   0.997   6.260 -0.4428  0.4585  0.3079
   80SLPC  H12A 7357   2.680   1.036   6.230 -1.2665 -0.8135  1.2788
   80SLPC  H12B 7358   2.749   0.941   6.347  3.0301 -0.0441  1.1564
   80SLPC   C11 7359   2.828   0.898   6.149 -0.2905 -0.3300  0.1922
   80SLPC  H11A 7360   2.851   0.957   6.058 -0.2869 -0.7613 -0.0858
   80SLPC  H11B 7361   2.742   0.836   6.115 -1.0621 -0.4278  2.2341
   80SLPC     P 7362   2.917   0.669   6.253 -0.2658 -0.0263 -0.4588
   80SLPC   O13 7363   2.938   0.571   6.146 -0.0845  0.0244 -0.4432
   80SLPC   O14 7364   2.996   0.657   6.376  0.0465  0.2208  0.1631
   80SLPC   O12 7365   2.939   0.818   6.192  0.3193  0.5009 -0.0785
   80SLPC   O11 7366   2.763   0.663   6.291 -0.0588 -0.1954  0.3793
   80SLPC    C1 7367   2.689   0.540   6.297  0.5888  0.0742 -0.5929
   80SLPC    HA 7368   2.585   0.561   6.262  0.8917  0.8563 -1.0214
   80SLPC    HB 7369   2.720   0.463   6.224 -3.6762 -2.1452 -0.2079
   80SLPC    C2 7370   2.659   0.494   6.444  0.3135 -0.2352 -0.3793
   80SLPC    HS 7371   2.586   0.413   6.427  1.2558 -1.0094 -0.7757
   80SLPC   O21 7372   2.610   0.597   6.538 -0.9544  0.0585  0.1789
   80SLPC   C21 7373   2.480   0.617   6.534 -0.6098 -0.0349  1.4740
   80SLPC   O22 7374   2.404   0.578   6.443 -0.0844 -0.4379  0.0067
   80SLPC   C22 7375   2.442   0.706   6.650 -0.8117  0.8905  0.5069
   80SLPC   H2R 7376   2.462   0.641   6.738  3.0513  0.0741 -0.8750
   80SLPC   H2S 7377   2.519   0.786   6.643  1.2735 -0.9670  1.4992
   80SLPC    C3 7378   2.786   0.425   6.510  0.6285  0.5007 -0.5413
   80SLPC    HX 7379   2.858   0.510   6.513  0.3743  0.7237 -0.7370
   80SLPC    HY 7380   2.832   0.353   6.439 -0.2356 -0.3210 -0.2788
   80SLPC   O31 7381   2.767   0.358   6.635 -0.5671 -0.6848 -0.3108
   80SLPC   C31 7382   2.779   0.417   6.746 -0.1159 -0.6432  0.2610
   80SLPC   O32 7383   2.817   0.532   6.763 -0.3833 -0.1649 -0.6216
   80SLPC   C32 7384   2.762   0.304   6.849  0.1057  0.1073  0.5831
   80SLPC   H2X 7385   2.862   0.268   6.881  1.1702  2.6781  0.2027
   80SLPC   H2Y 7386   2.698   0.223   6.806 -2.6045  2.6664 -0.3918
   80SLPC   C23 7387   2.299   0.756   6.650  0.7980 -0.3733 -0.1973
   80SLPC   H3R 7388   2.275   0.763   6.541  0.3258 -0.7290 -0.1180
   80SLPC   H3S 7389   2.287   0.859   6.689  3.5147 -0.4999  1.0675
   80SLPC   C24 7390   2.203   0.674   6.737 -0.0925 -0.0916 -0.5384
   80SLPC   H4R 7391   2.212   0.566   6.711 -1.7263 -0.5659  0.7298
   80SLPC   H4S 7392   2.099   0.712   6.726  0.3651  0.9848 -1.2119
   80SLPC   C25 7393   2.228   0.690   6.890  0.3731 -0.2094  1.0213
   80SLPC   H5R 7394   2.128   0.676   6.935 -0.1560 -1.5818 -0.5046
   80SLPC   H5S 7395   2.259   0.794   6.916 -1.2800  0.0083  2.2089
   80SLPC   C26 7396   2.313   0.581   6.958 -0.3091  0.2506 -0.5965
   80SLPC   H6R 7397   2.418   0.577   6.924  0.1841 -1.2456  1.0715
   80SLPC   H6S 7398   2.266   0.490   6.916  0.3544  0.2348 -1.3142
   80SLPC   C27 7399   2.297   0.579   7.115 -0.3094  0.0897 -0.0713
   80SLPC   H7R 7400   2.355   0.491   7.149  0.6497  0.2312 -1.2783
   80SLPC   H7S 7401   2.197   0.533   7.127  1.3738 -3.0617  2.8921
   80SLPC   C28 7402   2.336   0.705   7.192 -0.3077 -0.1324  0.1469
   80SLPC   H8R 7403   2.261   0.785   7.172 -2.6497 -2.1093  0.8386
   80SLPC   H8S 7404   2.434   0.739   7.153 -0.9886  0.0706 -1.4395
   80SLPC   C29 7405   2.348   0.684   7.341  0.3561  0.4107 -0.6137
   80SLPC   H9R 7406   2.403   0.594   7.373 -2.3947 -0.5178  1.7758
   80SLPC  C210 7407   2.292   0.759   7.438  0.4846  0.3979 -0.1564
   80SLPC  H10R 7408   2.306   0.724   7.542 -3.1595 -0.5096  0.0843
   80SLPC  C211 7409   2.201   0.880   7.436 -0.3207  0.4181  0.5579
   80SLPC  H11R 7410   2.238   0.959   7.367  3.1786 -1.7338 -0.1578
   80SLPC  H11S 7411   2.197   0.926   7.537  0.0660  0.4388  0.5652
   80SLPC  C212 7412   2.066   0.847   7.386  0.1981  0.5029  0.2141
   80SLPC  H12R 7413   2.064   0.788   7.293  0.8695  1.0449 -0.1434
   80SLPC  C213 7414   1.947   0.884   7.438  0.4685  0.1109  0.1776
   80SLPC  H13R 7415   1.862   0.854   7.375  0.5892 -2.6579  1.2460
   80SLPC  C214 7416   1.924   0.972   7.558  0.0308  0.0800 -0.1788
   80SLPC  H14R 7417   1.841   1.042   7.537 -2.3589 -2.3507  0.9292
   80SLPC  H14S 7418   2.015   1.031   7.582  0.4432 -0.6126 -0.0293
   80SLPC  C215 7419   1.874   0.893   7.677  0.1204 -0.1399  0.2172
   80SLPC  H15R 7420   1.945   0.810   7.699 -0.3659 -0.8568 -0.8919
   80SLPC  H15S 7421   1.772   0.855   7.651 -0.8616  1.8542  1.0770
   80SLPC  C216 7422   1.857   0.983   7.800 -0.4358  0.4287  0.1016
   80SLPC  H16R 7423   1.785   1.064   7.777 -2.2512 -1.8194 -2.3241
   80SLPC  H16S 7424   1.954   1.036   7.813 -1.5345  2.8646 -1.2607
   80SLPC  C217 7425   1.814   0.907   7.931  0.0801  0.5285 -0.5273
   80SLPC  H17R 7426   1.879   0.817   7.944 -0.0224  0.6465  0.8635
   80SLPC  H17S 7427   1.707   0.881   7.942  0.5201 -1.6451 -1.1081
   80SLPC  C218 7428   1.842   0.994   8.065  0.6700 -0.1818  0.3424
   80SLPC  H18R 7429   1.781   0.959   8.151 -2.7162 -0.4909 -2.0886
   80SLPC  H18S 7430   1.818   1.102   8.057  0.1526 -0.3517 -0.3905
   80SLPC  H18T 7431   1.949   0.978   8.090  1.0302 -0.3479 -1.2729
   80SLPC   C33 7432   2.677   0.351   6.969 -0.0847  0.0820  0.2842
   80SLPC   H3X 7433   2.648   0.259   7.024  1.0225 -0.1092  0.5791
   80SLPC   H3Y 7434   2.581   0.402   6.947 -0.3170 -0.1313  0.7946
   80SLPC   C34 7435   2.755   0.441   7.065 -0.0848  0.4719  0.5692
   80SLPC   H4X 7436   2.807   0.518   7.005 -2.0490  0.5845 -1.0509
   80SLPC   H4Y 7437   2.821   0.364   7.111 -0.7599 -0.8961 -0.7234
   80SLPC   C35 7438   2.687   0.501   7.186  0.7912 -0.7645  0.0892
   80SLPC   H5X 7439   2.617   0.421   7.221 -1.7489  0.9337 -0.9572
   80SLPC   H5Y 7440   2.633   0.596   7.165  2.1442  0.0841  0.3823
   80SLPC   C36 7441   2.790   0.525   7.306 -0.3406 -0.1954  0.8969
   80SLPC   H6X 7442   2.855   0.611   7.282  1.1332 -1.1938  1.2457
   80SLPC   H6Y 7443   2.860   0.441   7.327  0.0613 -0.0650  0.0869
   80SLPC   C37 7444   2.714   0.556   7.434  0.3304  0.0036  0.4942
   80SLPC   H7X 7445   2.634   0.485   7.464  0.3449 -0.4803 -0.5842
   80SLPC   H7Y 7446   2.655   0.650   7.428 -0.7460 -0.6493  0.6001
   80SLPC   C38 7447   2.804   0.583   7.565 -0.3549  0.0842  0.4912
   80SLPC   H8X 7448   2.852   0.682   7.547  0.1820 -0.4609 -1.2594
   80SLPC   H8Y 7449   2.886   0.507   7.561  1.5366  2.1107 -0.3907
   80SLPC   C39 7450   2.724   0.574   7.689  0.8119 -0.2126 -0.5435
   80SLPC   H9X 7451   2.682   0.471   7.695 -1.3108  0.6780  0.5298
   80SLPC   H9Y 7452   2.631   0.635   7.683 -0.7869 -2.5122  0.0358
   80SLPC  C310 7453   2.797   0.603   7.825  0.8634 -0.1243 -0.0131
   80SLPC  H10X 7454   2.843   0.703   7.820  1.5097 -0.3214  1.5531
   80SLPC  H10Y 7455   2.877   0.528   7.841  1.2646  0.5008  0.9326
   80SLPC  C311 7456   2.699   0.596   7.939  0.3595 -0.1750 -1.3209
   80SLPC  H11X 7457   2.658   0.493   7.946  0.4301 -0.0150  2.1128
   80SLPC  H11Y 7458   2.614   0.666   7.925 -0.8149 -0.9631  1.5679
   80SLPC  C312 7459   2.748   0.629   8.080 -1.0725  0.2129 -0.1786
   80SLPC  H12X 7460   2.747   0.738   8.102 -1.0450 -0.1512  1.7200
   80SLPC  H12Y 7461   2.854   0.596   8.084 -1.3505 -0.6385  0.2946
   80SLPC  C313 7462   2.654   0.568   8.187 -0.7045 -0.2307 -0.0494
   80SLPC  H13X 7463   2.677   0.460   8.194  0.7399  0.0449 -0.4127
   80SLPC  H13Y 7464   2.550   0.583   8.151 -1.5931  1.3012  2.9650
   80SLPC  C314 7465   2.694   0.634   8.328 -0.1310  0.2246 -0.1101
   80SLPC  H14X 7466   2.801   0.618   8.352 -0.1492 -0.3459 -0.4167
   80SLPC  H14Y 7467   2.632   0.564   8.388 -0.7112  0.9023  0.0980
   80SLPC  C315 7468   2.650   0.773   8.350 -0.4491 -0.0244 -0.0042
   80SLPC  H15X 7469   2.725   0.841   8.305  0.1042  0.1042  1.0846
   80SLPC  H15Y 7470   2.667   0.781   8.460  0.4392 -1.3396 -0.0371
   80SLPC  C316 7471   2.506   0.821   8.315  0.5021  0.3641  0.1587
   80SLPC  H16X 7472   2.427   0.766   8.370  0.3772  1.8060  1.4586
   80SLPC  H16Y 7473   2.489   0.802   8.207  1.4769 -0.4997  0.1421
   80SLPC  C317 7474   2.497   0.966   8.349 -0.2628 -0.5928 -0.4374
   80SLPC  H17X 7475   2.549   1.032   8.276 -2.3389  2.1201  0.4539
   80SLPC  H17Y 7476   2.566   0.988   8.433 -2.6676  0.1804  1.3983
   80SLPC  C318 7477   2.357   1.018   8.380  0.0029 -0.0395  0.4508
   80SLPC  H18X 7478   2.283   0.997   8.300 -0.5447  0.9140  0.6982
   80SLPC  H18Y 7479   2.360   1.129   8.385  1.5274  0.0187 -1.0824
   80SLPC  H18Z 7480   2.312   0.976   8.473 -0.4919  0.9004  0.6351
   81SAPS     N 7481   2.428   2.627  11.241  0.1821  0.4769 -0.0970
   81SAPS   HN1 7482   2.523   2.615  11.202 -1.3709 -0.1300 -3.9518
   81SAPS   HN2 7483   2.376   2.677  11.166 -1.1251 -1.1699 -0.3446
   81SAPS   HN3 7484   2.435   2.675  11.333 -3.5929 -0.4108  0.7731
   81SAPS   C12 7485   2.359   2.502  11.276 -0.5735 -0.2800  0.2685
   81SAPS  H12A 7486   2.418   2.460  11.357  0.2374  1.7962  0.8048
   81SAPS   C13 7487   2.207   2.518  11.322  0.1769 -0.4065 -0.0290
   81SAPS  O13A 7488   2.166   2.635  11.361  0.3230 -0.5945  0.8376
   81SAPS  O13B 7489   2.141   2.418  11.348 -0.2886  0.6089 -0.1863
   81SAPS   C11 7490   2.365   2.413  11.150  0.5247 -0.6635 -0.3255
   81SAPS  H11A 7491   2.340   2.310  11.182 -0.7126 -0.2892 -0.0784
   81SAPS  H11B 7492   2.466   2.406  11.105  1.3561 -0.3830  1.4753
   81SAPS     P 7493   2.215   2.368  10.925 -0.3742 -0.2968  0.2189
   81SAPS   O13 7494   2.246   2.228  10.959  0.4167  0.1243 -0.5162
   81SAPS   O14 7495   2.071   2.397  10.909  0.1882 -0.3181 -0.8225
   81SAPS   O12 7496   2.280   2.459  11.044  0.9389 -0.1513 -0.0533
   81SAPS   O11 7497   2.302   2.414  10.804 -0.2656 -0.5245 -0.4854
   81SAPS    C1 7498   2.279   2.547  10.751 -0.2115  0.2067 -0.3532
   81SAPS    HA 7499   2.228   2.621  10.817 -0.1377  0.6110 -0.7501
   81SAPS    HB 7500   2.376   2.595  10.729  0.1744 -0.5761 -0.3866
   81SAPS    C2 7501   2.205   2.553  10.614  0.2065  0.1334  0.1545
   81SAPS    HS 7502   2.104   2.512  10.636 -0.3208  0.9621 -0.7149
   81SAPS   O21 7503   2.284   2.465  10.523 -0.3042  0.4287  0.7244
   81SAPS   C21 7504   2.219   2.391  10.439 -0.1890  0.0646  0.8015
   81SAPS   O22 7505   2.098   2.378  10.441  0.2597  0.3721 -0.0062
   81SAPS   C22 7506   2.317   2.332  10.335 -0.3248  0.4976  0.1777
   81SAPS   H2R 7507   2.351   2.240  10.387  1.0735 -0.2796 -2.0551
   81SAPS   H2S 7508   2.250   2.292  10.255 -0.4523 -0.3853  0.7242
   81SAPS    C3 7509   2.181   2.687  10.556 -0.1972  0.4095 -1.1430
   81SAPS    HX 7510   2.273   2.747  10.575  0.4894 -1.3658  1.3855
   81SAPS    HY 7511   2.108   2.730  10.628  0.3117 -2.4340  1.1737
   81SAPS   O31 7512   2.145   2.686  10.424 -0.0311  0.8377 -0.3945
   81SAPS   C31 7513   2.013   2.692  10.402  0.7405 -0.4476  0.2370
   81SAPS   O32 7514   1.930   2.709  10.486  0.1889  0.1551  0.9133
   81SAPS   C32 7515   1.983   2.656  10.249 -0.0855  0.2752 -0.7683
   81SAPS   H2X 7516   1.987   2.546  10.260  0.3647  0.4391  0.9528
   81SAPS   H2Y 7517   2.066   2.695  10.186  1.1264  0.0924  0.6781
   81SAPS   C23 7518   2.430   2.429  10.281  0.1106 -0.4249 -0.1580
   81SAPS   H3R 7519   2.487   2.484  10.359  0.5058 -1.4760  0.3031
   81SAPS   H3S 7520   2.376   2.515  10.237 -1.7451 -1.4533  0.0650
   81SAPS   C24 7521   2.522   2.370  10.175 -0.4856 -0.0851 -0.2446
   81SAPS   H4R 7522   2.466   2.324  10.090 -0.3239  1.6538 -1.3201
   81SAPS   H4S 7523   2.591   2.294  10.217 -0.3903 -0.1357 -0.4880
   81SAPS   C25 7524   2.616   2.480  10.120 -0.0143  0.4746  0.1624
   81SAPS   H5R 7525   2.672   2.538  10.194  0.4301 -2.1652  1.9588
   81SAPS   C26 7526   2.642   2.507   9.993  0.7025  0.0379 -0.1748
   81SAPS   H6R 7527   2.720   2.583   9.973  0.4482  0.2266 -0.4633
   81SAPS   C27 7528   2.581   2.437   9.880  0.4011  0.9031 -0.2464
   81SAPS   H7R 7529   2.474   2.466   9.876 -0.3238 -1.0131  3.2487
   81SAPS   H7S 7530   2.593   2.328   9.900  1.1044  1.0378  0.0786
   81SAPS   C28 7531   2.652   2.467   9.749  0.6795  0.7867  0.5995
   81SAPS   H8R 7532   2.759   2.494   9.754  0.8605 -0.0110  1.1291
   81SAPS   C29 7533   2.586   2.460   9.630  0.6207 -0.1563  0.1793
   81SAPS   H9R 7534   2.633   2.495   9.538  0.5296  0.7883  0.4900
   81SAPS  C210 7535   2.439   2.419   9.603  0.0396  0.0806 -0.0031
   81SAPS  H10R 7536   2.377   2.465   9.683 -0.8410  0.2377 -0.7754
   81SAPS  H10S 7537   2.431   2.308   9.605  1.7989 -0.0516 -0.2233
   81SAPS  C211 7538   2.401   2.480   9.471  0.0279 -0.0976  0.8346
   81SAPS  H11R 7539   2.438   2.583   9.461  0.6644 -0.3640  0.4398
   81SAPS  C212 7540   2.328   2.423   9.377 -0.3291  0.1534 -0.1304
   81SAPS  H12R 7541   2.301   2.481   9.287  2.4916  2.1098  0.2522
   81SAPS  C213 7542   2.274   2.284   9.381  0.1516  0.5500 -0.3413
   81SAPS  H13R 7543   2.167   2.287   9.351 -0.2135 -0.3409  0.8415
   81SAPS  H13S 7544   2.282   2.244   9.484 -0.3536  0.2027 -0.4393
   81SAPS  C214 7545   2.348   2.195   9.275 -1.0072 -0.0597 -0.0586
   81SAPS  H14R 7546   2.428   2.129   9.312 -0.3365  1.4614  1.2507
   81SAPS  C215 7547   2.307   2.182   9.151  0.8401 -0.0494 -0.0940
   81SAPS  H15R 7548   2.360   2.113   9.083  0.8058 -0.4425  0.2754
   81SAPS  C216 7549   2.197   2.252   9.075 -0.2391 -0.1757 -0.2495
   81SAPS  H16R 7550   2.187   2.360   9.100 -2.6789 -0.5175  0.3414
   81SAPS  H16S 7551   2.102   2.206   9.107 -0.3188  2.2589  3.3459
   81SAPS  C217 7552   2.201   2.222   8.923  0.1111  0.5579  0.5789
   81SAPS  H17R 7553   2.101   2.262   8.894 -0.5268 -1.3299  0.0688
   81SAPS  H17S 7554   2.206   2.115   8.892  0.1979  0.5648  0.5685
   81SAPS  C218 7555   2.307   2.304   8.850 -0.3414 -0.2323 -0.3110
   81SAPS  H18R 7556   2.406   2.288   8.898 -0.4932 -0.5782 -0.1084
   81SAPS  H18S 7557   2.284   2.411   8.836 -0.5767 -0.0743  1.2112
   81SAPS  C219 7558   2.334   2.236   8.712  0.1779 -0.2739 -0.0954
   81SAPS  H19R 7559   2.236   2.241   8.659  1.3463  1.3157 -2.1990
   81SAPS  H19S 7560   2.348   2.129   8.739  0.9407 -0.5358 -1.5166
   81SAPS  C220 7561   2.444   2.311   8.639  0.7100  0.5084 -0.2789
   81SAPS  H20R 7562   2.533   2.338   8.700  1.5634  0.5737 -1.5252
   81SAPS  H20S 7563   2.405   2.411   8.611 -2.9211 -0.5032  0.8601
   81SAPS  H20T 7564   2.471   2.266   8.540 -0.3424  4.2763 -2.3732
   81SAPS   C33 7565   1.851   2.698  10.197 -0.2863  0.0548  0.3768
   81SAPS   H3X 7566   1.844   2.808  10.181 -2.0675 -0.1558 -0.4628
   81SAPS   H3Y 7567   1.770   2.663  10.265 -1.9616 -1.3843 -2.2552
   81SAPS   C34 7568   1.829   2.638  10.061 -0.2180 -0.8902  0.2979
   81SAPS   H4X 7569   1.723   2.656  10.033  0.2857 -1.2851 -1.9634
   81SAPS   H4Y 7570   1.840   2.527  10.068 -1.6285 -1.0634 -0.0523
   81SAPS   C35 7571   1.913   2.683   9.940  0.3887 -0.4365 -0.5422
   81SAPS   H5X 7572   2.019   2.652   9.952  0.1218 -1.0052  0.4335
   81SAPS   H5Y 7573   1.911   2.794   9.932 -0.9937 -0.5179 -1.3702
   81SAPS   C36 7574   1.851   2.637   9.802 -0.1765 -0.3731  0.4348
   81SAPS   H6X 7575   1.752   2.686   9.790  0.2585 -0.0951 -2.2915
   81SAPS   H6Y 7576   1.839   2.527   9.806 -1.6118 -0.2838 -1.2073
   81SAPS   C37 7577   1.926   2.695   9.675  0.0522  0.3084  0.4313
   81SAPS   H7X 7578   2.036   2.699   9.693  0.6135 -0.7082 -2.5341
   81SAPS   H7Y 7579   1.888   2.798   9.656  1.5668  1.1807  1.9873
   81SAPS   C38 7580   1.898   2.613   9.550  0.5865  0.6880 -0.3466
   81SAPS   H8X 7581   1.788   2.603   9.540  0.9815 -1.7579 -2.5649
   81SAPS   H8Y 7582   1.937   2.510   9.565  0.2922  0.4185 -1.3918
   81SAPS   C39 7583   1.960   2.676   9.430 -0.4574  0.2942 -0.9330
   81SAPS   H9X 7584   2.071   2.673   9.443 -0.4879 -1.5000 -0.8720
   81SAPS   H9Y 7585   1.942   2.785   9.428 -0.2362  0.3797  0.9545
   81SAPS  C310 7586   1.927   2.621   9.295 -0.3107  0.3437 -0.5922
   81SAPS  H10X 7587   1.822   2.586   9.292  0.6620 -3.0055  1.5125
   81SAPS  H10Y 7588   1.985   2.526   9.300 -0.7112  0.1587  0.9549
   81SAPS  C311 7589   1.975   2.699   9.177  0.0281 -0.8355 -0.2621
   81SAPS  H11X 7590   1.913   2.791   9.170 -0.7114 -1.4819 -2.4267
   81SAPS  H11Y 7591   1.946   2.641   9.087 -0.6988 -0.8313 -0.0323
   81SAPS  C312 7592   2.123   2.726   9.169 -0.5117  0.3418  0.1753
   81SAPS  H12X 7593   2.170   2.628   9.149 -0.1419  0.5670 -0.0501
   81SAPS  H12Y 7594   2.162   2.765   9.265 -1.9499  1.2844  0.3975
   81SAPS  C313 7595   2.166   2.812   9.055  0.3000 -0.3179  1.0755
   81SAPS  H13X 7596   2.273   2.840   9.069  0.8752 -1.4254 -0.8488
   81SAPS  H13Y 7597   2.122   2.914   9.059  1.5647  0.2664  0.4485
   81SAPS  C314 7598   2.150   2.752   8.919 -0.0394  0.1901  0.5965
   81SAPS  H14X 7599   2.045   2.731   8.891  0.8099 -1.4742 -1.4291
   81SAPS  H14Y 7600   2.199   2.653   8.917 -0.8338 -0.1776 -1.2547
   81SAPS  C315 7601   2.213   2.835   8.804 -0.6984 -0.4390  0.5900
   81SAPS  H15X 7602   2.323   2.832   8.819 -0.9220 -1.6589  2.0556
   81SAPS  H15Y 7603   2.183   2.942   8.810  1.2155  0.0159  2.2652
   81SAPS  C316 7604   2.193   2.780   8.666 -0.0867  0.4964  0.2195
   81SAPS  H16X 7605   2.084   2.765   8.651 -0.7009  0.7410  3.9927
   81SAPS  H16Y 7606   2.226   2.676   8.648 -0.0500  0.4710  0.4274
   81SAPS  C317 7607   2.251   2.878   8.566 -0.2095  0.2300  0.2803
   81SAPS  H17X 7608   2.291   2.817   8.482 -2.1487  0.1146 -0.5970
   81SAPS  H17Y 7609   2.338   2.931   8.609  2.5387 -2.5605 -1.5811
   81SAPS  C318 7610   2.150   2.974   8.506 -0.0416  0.2631  0.5907
   81SAPS  H18X 7611   2.197   3.038   8.428 -1.6612 -0.9446 -1.4303
   81SAPS  H18Y 7612   2.111   3.037   8.589  2.1181  0.0354  1.8066
   81SAPS  H18Z 7613   2.058   2.928   8.464 -0.1743 -0.4830  1.6855
   82SAPS     N 7614   0.580   1.634  10.798  0.5303 -0.9822 -0.1254
   82SAPS   HN1 7615   0.605   1.700  10.721  0.1369  0.2416  0.7864
   82SAPS   HN2 7616   0.553   1.550  10.743  0.4126 -0.1481 -1.3547
   82SAPS   HN3 7617   0.495   1.662  10.850  2.0531 -1.3469  2.6469
   82SAPS   C12 7618   0.699   1.601  10.885 -0.0925  0.0192  0.0491
   82SAPS  H12A 7619   0.727   1.680  10.953 -1.3412  0.9746 -0.5335
   82SAPS   C13 7620   0.669   1.471  10.955  0.1913 -0.4383  0.7784
   82SAPS  O13A 7621   0.557   1.416  10.961  0.1889  0.5974  0.6600
   82SAPS  O13B 7622   0.762   1.434  11.026  0.6207  0.1144 -0.6505
   82SAPS   C11 7623   0.823   1.590  10.799  0.3083  0.2411  1.2477
   82SAPS  H11A 7624   0.822   1.508  10.724 -0.0234  1.8340 -0.5214
   82SAPS  H11B 7625   0.912   1.576  10.865 -0.0192 -0.2260  1.5920
   82SAPS     P 7626   0.939   1.827  10.733 -0.4972  0.3744 -0.2484
   82SAPS   O13 7627   0.894   1.936  10.642 -0.9507 -0.5000  0.5062
   82SAPS   O14 7628   0.941   1.860  10.872  0.2633  0.3614 -0.4811
   82SAPS   O12 7629   0.842   1.705  10.710  0.2616 -0.6552  0.0732
   82SAPS   O11 7630   1.087   1.782  10.693 -0.4719 -0.0291  0.2729
   82SAPS    C1 7631   1.113   1.676  10.596 -0.1717  0.0935 -0.3540
   82SAPS    HA 7632   1.176   1.591  10.631 -0.3121  1.0324  2.3073
   82SAPS    HB 7633   1.021   1.627  10.559  0.9363 -3.0659  0.8907
   82SAPS    C2 7634   1.195   1.735  10.469 -0.4592  0.4740 -0.3001
   82SAPS    HS 7635   1.282   1.794  10.505  0.1862 -0.9665  0.4978
   82SAPS   O21 7636   1.107   1.820  10.389  0.3745 -0.5299 -0.7088
   82SAPS   C21 7637   1.158   1.929  10.343 -0.3363  0.2777  0.0454
   82SAPS   O22 7638   1.271   1.978  10.361 -0.1517  0.6006 -0.1225
   82SAPS   C22 7639   1.049   1.996  10.262  0.1270 -0.8438 -0.3060
   82SAPS   H2R 7640   0.981   1.918  10.221 -1.8503  0.5181  0.2738
   82SAPS   H2S 7641   0.996   2.064  10.331 -0.3501 -2.6600  1.1404
   82SAPS    C3 7642   1.252   1.624  10.382 -0.0202 -0.0894 -0.1508
   82SAPS    HX 7643   1.174   1.555  10.345  0.6915 -0.6818 -0.5592
   82SAPS    HY 7644   1.317   1.568  10.453 -1.0645 -0.8651  0.2189
   82SAPS   O31 7645   1.314   1.676  10.262 -0.1063 -0.1489  0.3137
   82SAPS   C31 7646   1.441   1.692  10.269  0.0439  0.3448 -0.3374
   82SAPS   O32 7647   1.510   1.667  10.367 -0.4761  0.3471  0.6556
   82SAPS   C32 7648   1.488   1.749  10.133 -0.8460  0.1436  0.4583
   82SAPS   H2X 7649   1.559   1.683  10.078 -2.9516 -0.3766 -1.7559
   82SAPS   H2Y 7650   1.546   1.839  10.163 -0.4546 -0.0102  0.1638
   82SAPS   C23 7651   1.096   2.069  10.135  0.2578 -0.3508  0.6658
   82SAPS   H3R 7652   1.127   1.991  10.062  0.2629 -0.4894  0.8176
   82SAPS   H3S 7653   1.186   2.127  10.161  1.2070 -0.5364 -1.9842
   82SAPS   C24 7654   0.986   2.152  10.073 -0.5655  0.8356 -0.3258
   82SAPS   H4R 7655   0.936   2.215  10.149 -1.0001 -0.4604  0.4696
   82SAPS   H4S 7656   0.906   2.085  10.034 -0.4607  0.4355  0.1380
   82SAPS   C25 7657   1.050   2.245   9.972 -0.5531  0.0963  0.1465
   82SAPS   H5R 7658   1.136   2.311   9.994 -0.5095  0.1604 -0.2114
   82SAPS   C26 7659   1.005   2.268   9.851  0.4449  0.1334  0.0332
   82SAPS   H6R 7660   1.057   2.345   9.792 -0.5497 -0.3581 -1.5153
   82SAPS   C27 7661   0.894   2.196   9.776 -0.6893  0.6922  0.3208
   82SAPS   H7R 7662   0.815   2.265   9.739 -0.9245  0.3852  0.2482
   82SAPS   H7S 7663   0.841   2.121   9.839 -1.7374  0.6925 -0.5460
   82SAPS   C28 7664   0.939   2.110   9.656 -0.5802 -0.7942 -0.1798
   82SAPS   H8R 7665   0.991   2.018   9.686  0.7123  0.7048  2.3685
   82SAPS   C29 7666   0.947   2.129   9.523 -0.1681 -1.0854  0.6149
   82SAPS   H9R 7667   0.960   2.042   9.457  2.4319 -0.4003  0.1910
   82SAPS  C210 7668   0.901   2.241   9.422  0.2350 -0.0739  0.2464
   82SAPS  H10R 7669   0.972   2.250   9.337 -2.0959  0.8155 -1.6593
   82SAPS  H10S 7670   0.898   2.340   9.473  1.0657  0.2866 -0.3997
   82SAPS  C211 7671   0.769   2.217   9.358  0.7919  0.0052 -0.4410
   82SAPS  H11R 7672   0.684   2.225   9.428  3.7249  2.9495  2.9859
   82SAPS  C212 7673   0.752   2.171   9.237  0.4995  0.0277 -0.3904
   82SAPS  H12R 7674   0.648   2.156   9.204  0.2290  1.8985 -0.4246
   82SAPS  C213 7675   0.852   2.141   9.132 -0.3361 -0.1370 -0.5096
   82SAPS  H13R 7676   0.825   2.042   9.089 -0.3841 -1.0458  1.5518
   82SAPS  H13S 7677   0.955   2.122   9.170 -0.1455  0.8465 -0.5027
   82SAPS  C214 7678   0.875   2.251   9.031  0.5519 -0.3522  0.2700
   82SAPS  H14R 7679   0.925   2.344   9.065 -0.8326  0.1546  0.9430
   82SAPS  C215 7680   0.846   2.246   8.902  0.3787 -0.6440  0.1609
   82SAPS  H15R 7681   0.877   2.328   8.835  1.7034  0.0806  1.6373
   82SAPS  C216 7682   0.787   2.127   8.833  0.0472 -0.0722 -0.5442
   82SAPS  H16R 7683   0.677   2.127   8.849  0.2056  2.7362  0.9778
   82SAPS  H16S 7684   0.811   2.031   8.882  0.7441  0.0368 -0.6665
   82SAPS  C217 7685   0.824   2.112   8.682 -0.3883 -0.3352  0.1028
   82SAPS  H17R 7686   0.930   2.080   8.676 -0.1968  0.1171  0.8525
   82SAPS  H17S 7687   0.817   2.206   8.623 -0.0035 -1.3806 -1.6006
   82SAPS  C218 7688   0.731   2.017   8.604 -0.2456  0.2427  0.4311
   82SAPS  H18R 7689   0.626   2.054   8.608 -0.8467 -0.9537 -2.5742
   82SAPS  H18S 7690   0.737   1.927   8.669 -1.1736  0.9229  1.4648
   82SAPS  C219 7691   0.779   1.993   8.455  0.0362 -0.4991 -0.8524
   82SAPS  H19R 7692   0.886   1.966   8.457  0.0853 -0.1925  0.6155
   82SAPS  H19S 7693   0.772   2.085   8.392 -0.2952 -0.3645 -0.6263
   82SAPS  C220 7694   0.709   1.876   8.386 -0.3532  0.6556  0.4321
   82SAPS  H20R 7695   0.733   1.877   8.277  0.5013  1.0874  0.6218
   82SAPS  H20S 7696   0.599   1.889   8.394 -0.5987 -1.4427  0.6727
   82SAPS  H20T 7697   0.747   1.792   8.447  0.9296  0.8171 -0.1218
   82SAPS   C33 7698   1.383   1.791  10.025 -0.7439  0.6059 -0.1498
   82SAPS   H3X 7699   1.307   1.851  10.079 -1.1681 -1.0091  1.0716
   82SAPS   H3Y 7700   1.334   1.707   9.972  0.7109  0.8465 -1.9257
   82SAPS   C34 7701   1.453   1.894   9.932  0.3545 -0.4349 -0.2519
   82SAPS   H4X 7702   1.474   1.830   9.844  2.4633 -0.6298  0.3568
   82SAPS   H4Y 7703   1.555   1.915   9.972  0.0357  2.7865 -0.9987
   82SAPS   C35 7704   1.364   2.009   9.891  0.3074  0.1237  0.5604
   82SAPS   H5X 7705   1.346   2.066   9.984  3.1314  1.1615  0.5087
   82SAPS   H5Y 7706   1.272   1.961   9.851  1.6436  0.0330 -2.5265
   82SAPS   C36 7707   1.425   2.082   9.775  1.0950 -0.5054 -0.1501
   82SAPS   H6X 7708   1.435   2.008   9.693 -2.5657 -0.2899 -0.8344
   82SAPS   H6Y 7709   1.529   2.112   9.800  0.9829  1.3698 -1.8605
   82SAPS   C37 7710   1.350   2.201   9.716  0.6864  0.6316 -0.0476
   82SAPS   H7X 7711   1.326   2.258   9.809 -2.2861 -2.6739  1.3860
   82SAPS   H7Y 7712   1.251   2.170   9.674  1.0487  0.9544 -1.1475
   82SAPS   C38 7713   1.446   2.285   9.629  0.0991 -0.1961  0.0676
   82SAPS   H8X 7714   1.537   2.311   9.687 -1.4680  2.1497  1.5779
   82SAPS   H8Y 7715   1.398   2.384   9.617  2.5614  1.3591  2.4082
   82SAPS   C39 7716   1.472   2.240   9.489  0.5959  0.8142  0.1576
   82SAPS   H9X 7717   1.529   2.144   9.489 -2.5047 -1.1192 -0.4282
   82SAPS   H9Y 7718   1.526   2.314   9.427 -0.0722 -0.3105 -1.8066
   82SAPS  C310 7719   1.345   2.206   9.415  0.4882  0.1979  0.2046
   82SAPS  H10X 7720   1.286   2.298   9.399  0.5506  0.2237  0.1189
   82SAPS  H10Y 7721   1.299   2.125   9.476 -0.1592  0.6309  0.2995
   82SAPS  C311 7722   1.372   2.145   9.279  0.2296  0.1747  0.1969
   82SAPS  H11X 7723   1.401   2.039   9.295 -1.6784 -0.3288  0.4504
   82SAPS  H11Y 7724   1.449   2.196   9.217 -0.5016  0.3552 -0.5881
   82SAPS  C312 7725   1.236   2.137   9.206 -0.6364 -0.7296  0.3464
   82SAPS  H12X 7726   1.177   2.231   9.201 -0.1824 -0.4488  0.2946
   82SAPS  H12Y 7727   1.167   2.080   9.273  0.0803  0.3744  2.0464
   82SAPS  C313 7728   1.243   2.069   9.063 -0.5291  0.3068  0.4772
   82SAPS  H13X 7729   1.143   2.034   9.031 -0.4125  2.2188 -2.1524
   82SAPS  H13Y 7730   1.304   1.976   9.065 -0.2188  0.5382  2.9202
   82SAPS  C314 7731   1.299   2.165   8.955 -0.2678  0.7303 -0.5119
   82SAPS  H14X 7732   1.397   2.203   8.992 -0.7555 -0.3386  1.9875
   82SAPS  H14Y 7733   1.227   2.250   8.954  0.3202  1.2449  0.5453
   82SAPS  C315 7734   1.311   2.107   8.821 -0.7212  0.3291 -0.1410
   82SAPS  H15X 7735   1.366   2.010   8.828 -1.3759  0.0824  1.7275
   82SAPS  H15Y 7736   1.369   2.180   8.760  0.9449 -0.3903  0.5453
   82SAPS  C316 7737   1.174   2.078   8.749 -0.0517 -0.1213  0.5306
   82SAPS  H16X 7738   1.115   2.172   8.748 -0.6977 -0.5350 -2.1322
   82SAPS  H16Y 7739   1.116   2.011   8.816  0.3248  0.2470  1.2330
   82SAPS  C317 7740   1.195   1.997   8.614 -0.0456  0.1789 -0.4231
   82SAPS  H17X 7741   1.100   1.947   8.584 -0.9767  0.8427  1.2971
   82SAPS  H17Y 7742   1.264   1.910   8.613  0.6048  0.6888 -0.0719
   82SAPS  C318 7743   1.236   2.088   8.497 -0.3018 -0.0165 -0.1435
   82SAPS  H18X 7744   1.336   2.133   8.518  0.4449 -1.8515  0.3377
   82SAPS  H18Y 7745   1.164   2.172   8.493 -0.3768 -0.1844 -2.4066
   82SAPS  H18Z 7746   1.215   2.048   8.396  0.2750  0.4793 -0.4642
   83SAPS     N 7747   2.100   2.898  10.980  0.3174 -0.3981  0.1288
   83SAPS   HN1 7748   2.008   2.947  10.986  1.1065  1.2538 -0.8057
   83SAPS   HN2 7749   2.152   2.927  10.895  1.7948 -1.1352  0.7651
   83SAPS   HN3 7750   2.100   2.795  10.991 -0.6366 -1.0516 -4.8880
   83SAPS   C12 7751   2.176   2.948  11.102 -0.1385  0.7624  0.2238
   83SAPS  H12A 7752   2.116   2.922  11.189  1.1127  1.2210  1.2265
   83SAPS   C13 7753   2.310   2.869  11.103  0.2892 -0.6602  0.5630
   83SAPS  O13A 7754   2.339   2.790  11.008 -0.2792 -0.3072  0.2145
   83SAPS  O13B 7755   2.405   2.912  11.173 -0.0919 -0.4967 -0.0695
   83SAPS   C11 7756   2.200   3.100  11.079 -0.7264  0.3203  0.8472
   83SAPS  H11A 7757   2.258   3.120  10.986 -2.3149 -0.1054 -0.2613
   83SAPS  H11B 7758   2.261   3.135  11.164 -0.7041 -1.0754  1.4220
   83SAPS     P 7759   2.046   3.303  10.998  0.5182  0.0139 -0.3631
   83SAPS   O13 7760   1.923   3.364  11.059 -0.4285  0.1881  0.3618
   83SAPS   O14 7761   2.171   3.380  11.005  0.5409  0.0888 -0.3097
   83SAPS   O12 7762   2.083   3.174  11.082  0.4815  0.5756 -0.7459
   83SAPS   O11 7763   2.017   3.250  10.856 -0.3493 -0.1398 -0.1095
   83SAPS    C1 7764   1.962   3.340  10.753 -0.5108  0.0531 -0.9006
   83SAPS    HA 7765   1.869   3.292  10.718 -1.0135 -0.2598  0.7946
   83SAPS    HB 7766   1.947   3.443  10.791 -0.2864 -0.2978  0.1582
   83SAPS    C2 7767   2.061   3.355  10.635 -0.3572 -0.3091 -0.1391
   83SAPS    HS 7768   2.009   3.415  10.558  1.5965 -0.1539 -1.3814
   83SAPS   O21 7769   2.099   3.218  10.600 -0.0753 -0.1176  0.3731
   83SAPS   C21 7770   2.117   3.202  10.468 -0.5041  0.0658 -0.2484
   83SAPS   O22 7771   2.121   3.298  10.393  0.0606  0.3480 -0.3635
   83SAPS   C22 7772   2.136   3.049  10.433  0.0332  0.3245  0.2037
   83SAPS   H2R 7773   2.227   3.019  10.488  0.7241  1.1154 -0.4887
   83SAPS   H2S 7774   2.047   2.998  10.474 -0.1360  1.0863  0.7881
   83SAPS    C3 7775   2.192   3.433  10.681  0.0894  0.0638 -0.3821
   83SAPS    HX 7776   2.250   3.359  10.741 -1.5361 -0.1058  1.0290
   83SAPS    HY 7777   2.181   3.521  10.748 -1.3798  1.0153 -1.8413
   83SAPS   O31 7778   2.252   3.485  10.569  0.5493  0.2798 -0.2673
   83SAPS   C31 7779   2.355   3.415  10.518 -0.7473  0.1356  0.4255
   83SAPS   O32 7780   2.403   3.318  10.566 -0.5269 -0.0258  0.0860
   83SAPS   C32 7781   2.421   3.492  10.403 -0.1492  0.2468 -0.1787
   83SAPS   H2X 7782   2.483   3.574  10.444  2.6219 -2.2983  0.8988
   83SAPS   H2Y 7783   2.345   3.545  10.342 -3.0819 -1.0229  2.1695
   83SAPS   C23 7784   2.168   3.012  10.280 -0.0102  0.1628  0.1173
   83SAPS   H3R 7785   2.173   2.901  10.286 -0.7845  0.1035 -0.2955
   83SAPS   H3S 7786   2.267   3.048  10.244  0.2737 -0.2164  0.5143
   83SAPS   C24 7787   2.058   3.045  10.174  0.1291 -0.5801  0.0009
   83SAPS   H4R 7788   2.038   3.154  10.180 -0.2036 -0.6589  0.3360
   83SAPS   H4S 7789   1.967   2.999  10.217 -1.3639  2.2096 -0.0086
   83SAPS   C25 7790   2.078   2.990  10.037 -0.0954 -0.1865  0.0528
   83SAPS   H5R 7791   2.096   2.882  10.033  0.9584 -0.1522  2.5327
   83SAPS   C26 7792   2.106   3.056   9.924  0.5314  1.0696  0.0342
   83SAPS   H6R 7793   2.114   2.996   9.833  1.3458  3.3436 -1.4271
   83SAPS   C27 7794   2.127   3.209   9.907 -0.6350 -0.1216  0.2575
   83SAPS   H7R 7795   2.150   3.267   9.999  1.2733  0.3826 -0.5143
   83SAPS   H7S 7796   2.035   3.248   9.857 -0.0050 -1.3550 -1.9462
   83SAPS   C28 7797   2.247   3.238   9.822 -0.0552  0.7807  0.0818
   83SAPS   H8R 7798   2.336   3.232   9.887  0.9450  0.6967 -1.2666
   83SAPS   C29 7799   2.257   3.263   9.690  0.0571 -0.6609 -0.6654
   83SAPS   H9R 7800   2.360   3.280   9.656  0.9380 -0.1077  2.1445
   83SAPS  C210 7801   2.142   3.278   9.591 -0.6693  0.7472 -0.0628
   83SAPS  H10R 7802   2.179   3.354   9.518 -0.9633 -0.6563 -1.7017
   83SAPS  H10S 7803   2.053   3.339   9.620  0.4747  2.6560 -0.4573
   83SAPS  C211 7804   2.099   3.150   9.519  0.1798  0.0387  0.3390
   83SAPS  H11R 7805   2.043   3.082   9.584 -1.5949 -0.0005 -1.1649
   83SAPS  C212 7806   2.112   3.113   9.387 -0.1458  0.3796  0.1641
   83SAPS  H12R 7807   2.065   3.021   9.350  0.2914 -0.5209  1.8051
   83SAPS  C213 7808   2.187   3.185   9.280 -0.2076  0.1129 -0.5226
   83SAPS  H13R 7809   2.188   3.108   9.199 -1.2749  0.1097 -0.5443
   83SAPS  H13S 7810   2.289   3.220   9.306  0.0258 -1.5773  0.9562
   83SAPS  C214 7811   2.114   3.303   9.224 -0.6498 -0.3132  0.7535
   83SAPS  H14R 7812   2.071   3.368   9.301 -0.0271  0.3019  0.5938
   83SAPS  C215 7813   2.107   3.334   9.089  0.1365 -0.3522 -0.8402
   83SAPS  H15R 7814   2.057   3.428   9.063 -2.1890 -0.9012  1.4828
   83SAPS  C216 7815   2.172   3.247   8.982 -0.4250 -0.1526  0.6399
   83SAPS  H16R 7816   2.142   3.291   8.884 -1.7287  0.5316  1.3312
   83SAPS  H16S 7817   2.122   3.148   8.986 -0.5541 -0.2192 -1.8834
   83SAPS  C217 7818   2.322   3.242   8.979  0.1415 -1.0135 -0.0120
   83SAPS  H17R 7819   2.357   3.220   9.082 -0.1677  2.3953  0.8643
   83SAPS  H17S 7820   2.361   3.344   8.958 -0.9805 -0.7088 -0.6305
   83SAPS  C218 7821   2.375   3.129   8.889  0.6015  0.3723 -0.0074
   83SAPS  H18R 7822   2.333   3.142   8.787  1.4082 -1.1155 -0.5460
   83SAPS  H18S 7823   2.351   3.030   8.933  1.4370  0.6576  1.1336
   83SAPS  C219 7824   2.530   3.125   8.869  0.3434  0.2365 -0.0464
   83SAPS  H19R 7825   2.580   3.126   8.968 -1.8098  1.1821  1.0693
   83SAPS  H19S 7826   2.564   3.221   8.825 -0.5157  0.0859 -1.0479
   83SAPS  C220 7827   2.584   3.010   8.782  0.0670 -0.4669 -0.4743
   83SAPS  H20R 7828   2.541   2.913   8.817  0.4668 -0.0487  1.2585
   83SAPS  H20S 7829   2.695   3.005   8.787  0.2535  2.2404 -1.5299
   83SAPS  H20T 7830   2.555   3.032   8.677 -0.7558 -0.7522 -0.3133
   83SAPS   C33 7831   2.517   3.405  10.322  0.2042 -0.3253 -0.8320
   83SAPS   H3X 7832   2.463   3.314  10.288  1.4945 -1.7828  0.9253
   83SAPS   H3Y 7833   2.595   3.364  10.390  0.9048 -0.4383 -1.6891
   83SAPS   C34 7834   2.589   3.480  10.204 -0.4406  1.0659 -0.0511
   83SAPS   H4X 7835   2.691   3.438  10.194 -0.7776  0.1040  0.3780
   83SAPS   H4Y 7836   2.587   3.589  10.224 -1.7105  0.7831  1.5192
   83SAPS   C35 7837   2.521   3.466  10.062 -0.8426 -0.0548 -0.0579
   83SAPS   H5X 7838   2.428   3.525  10.051 -0.2000  1.1434  0.7889
   83SAPS   H5Y 7839   2.502   3.358  10.046  0.7648 -0.6278  1.6346
   83SAPS   C36 7840   2.612   3.511   9.941 -0.2278 -0.7870  0.3649
   83SAPS   H6X 7841   2.714   3.468   9.945  0.6636  1.3502  1.3935
   83SAPS   H6Y 7842   2.630   3.621   9.943 -0.6377 -0.7268  0.8402
   83SAPS   C37 7843   2.540   3.492   9.805  0.7068  0.3789  0.4860
   83SAPS   H7X 7844   2.447   3.552   9.810  0.5421  0.1645  0.0202
   83SAPS   H7Y 7845   2.518   3.383   9.803  0.2879  0.4647  0.3231
   83SAPS   C38 7846   2.632   3.532   9.688  0.0257 -0.6251  0.9294
   83SAPS   H8X 7847   2.731   3.484   9.702 -0.3849 -1.8321 -0.2008
   83SAPS   H8Y 7848   2.651   3.641   9.696 -0.7966 -0.3342 -0.6877
   83SAPS   C39 7849   2.562   3.517   9.551 -0.3175 -0.1026  0.0015
   83SAPS   H9X 7850   2.460   3.562   9.549 -0.2944  0.1136  2.0532
   83SAPS   H9Y 7851   2.558   3.407   9.534  0.0264 -0.3718  1.5854
   83SAPS  C310 7852   2.653   3.566   9.436 -0.4049  0.3766 -0.0864
   83SAPS  H10X 7853   2.751   3.514   9.438  0.1369  1.4047  2.5678
   83SAPS  H10Y 7854   2.672   3.675   9.441 -0.2907  0.3052  1.1818
   83SAPS  C311 7855   2.594   3.538   9.301 -0.4518  0.1264 -0.0226
   83SAPS  H11X 7856   2.490   3.577   9.301 -0.8801 -0.9792 -1.7899
   83SAPS  H11Y 7857   2.597   3.429   9.279  2.0381  0.2250 -0.3133
   83SAPS  C312 7858   2.661   3.613   9.189  0.2753 -0.3138 -0.0952
   83SAPS  H12X 7859   2.767   3.580   9.190 -0.0928 -1.6353 -1.6295
   83SAPS  H12Y 7860   2.647   3.721   9.213  0.2761 -0.1221 -0.9337
   83SAPS  C313 7861   2.585   3.586   9.061 -0.1312  0.2511  0.0622
   83SAPS  H13X 7862   2.480   3.571   9.095 -0.0917 -0.0041  0.0741
   83SAPS  H13Y 7863   2.631   3.496   9.015  0.0430  0.5994 -0.4487
   83SAPS  C314 7864   2.590   3.696   8.957  0.0179  0.0109 -0.3457
   83SAPS  H14X 7865   2.699   3.716   8.953  0.1222 -0.6743 -1.0995
   83SAPS  H14Y 7866   2.541   3.789   8.992 -1.5562 -0.5250 -1.0951
   83SAPS  C315 7867   2.540   3.630   8.832 -0.2537  0.1244 -0.1367
   83SAPS  H15X 7868   2.445   3.582   8.863  0.4800 -0.8460  0.6286
   83SAPS  H15Y 7869   2.603   3.543   8.801 -1.4168 -0.6439 -0.3888
   83SAPS  C316 7870   2.526   3.731   8.718 -0.1246 -0.3859  0.1710
   83SAPS  H16X 7871   2.632   3.758   8.696 -0.4057  0.1446 -0.5369
   83SAPS  H16Y 7872   2.468   3.822   8.742 -2.9112 -1.7772 -1.0571
   83SAPS  C317 7873   2.475   3.672   8.593  0.3896 -0.3648  0.3205
   83SAPS  H17X 7874   2.379   3.617   8.602  0.7459 -1.4646 -2.0966
   83SAPS  H17Y 7875   2.549   3.593   8.567 -2.0344 -2.1727 -1.2962
   83SAPS  C318 7876   2.471   3.771   8.478 -0.7159  0.3913 -0.2165
   83SAPS  H18X 7877   2.412   3.861   8.504 -1.7083 -0.3941  0.2945
   83SAPS  H18Y 7878   2.435   3.722   8.386  0.5271  0.0444 -0.5251
   83SAPS  H18Z 7879   2.573   3.810   8.456 -0.7142  0.2319 -0.4850
   84SAPS     N 7880   4.347   3.281  11.327  0.2496  0.2490  0.5096
   84SAPS   HN1 7881   4.434   3.324  11.364  1.1999  0.1980 -1.6532
   84SAPS   HN2 7882   4.265   3.342  11.347 -0.4232 -0.7131  0.7713
   84SAPS   HN3 7883   4.324   3.183  11.353  0.6227  0.2628  0.9076
   84SAPS   C12 7884   4.368   3.260  11.180 -0.4138 -0.2351  0.6844
   84SAPS  H12A 7885   4.340   3.354  11.135 -2.2837 -0.3514  1.5581
   84SAPS   C13 7886   4.509   3.218  11.136  1.3334  0.1272 -0.2767
   84SAPS  O13A 7887   4.596   3.209  11.220  0.2782  0.0572 -0.5427
   84SAPS  O13B 7888   4.532   3.198  11.016  0.0969  0.1782  0.1121
   84SAPS   C11 7889   4.267   3.152  11.127 -0.0124 -0.4007  0.2563
   84SAPS  H11A 7890   4.319   3.057  11.151  1.1043  0.1281 -0.0495
   84SAPS  H11B 7891   4.255   3.168  11.018  2.4668 -0.9241 -0.1081
   84SAPS     P 7892   4.008   3.213  11.113  0.3994  0.2689  0.1958
   84SAPS   O13 7893   3.887   3.176  11.186 -0.1182 -0.2699  0.3444
   84SAPS   O14 7894   4.018   3.354  11.093  0.2034 -0.1217 -0.2597
   84SAPS   O12 7895   4.136   3.168  11.192  0.0184  0.3455  0.2487
   84SAPS   O11 7896   4.015   3.134  10.972  0.1478  0.3521  0.1828
   84SAPS    C1 7897   3.977   2.998  10.971  0.0493 -0.5317 -0.3584
   84SAPS    HA 7898   3.975   2.949  11.071  1.3132 -2.1642 -1.1080
   84SAPS    HB 7899   3.879   2.985  10.920  1.3079  1.0644 -3.2840
   84SAPS    C2 7900   4.074   2.915  10.885 -0.5426  0.7826  0.7169
   84SAPS    HS 7901   4.177   2.935  10.922 -0.0428  1.6107 -1.0774
   84SAPS   O21 7902   4.058   2.951  10.746  0.2817 -0.7708  0.0075
   84SAPS   C21 7903   4.166   2.922  10.671  0.1619 -0.1071  0.1926
   84SAPS   O22 7904   4.270   2.868  10.705 -0.2026  0.3862 -0.1728
   84SAPS   C22 7905   4.134   2.966  10.531  0.0928 -0.0945 -0.0331
   84SAPS   H2R 7906   4.025   2.970  10.508 -0.1543 -1.8934  0.7156
   84SAPS   H2S 7907   4.196   3.056  10.514  0.6278 -0.3332  0.6265
   84SAPS    C3 7908   4.048   2.764  10.905 -0.0724 -0.1936 -0.2601
   84SAPS    HX 7909   4.057   2.747  11.015  0.6271 -0.6789 -0.3927
   84SAPS    HY 7910   4.126   2.700  10.860 -1.0202 -1.4375 -0.1658
   84SAPS   O31 7911   3.927   2.714  10.838 -0.2380  0.1608 -0.0990
   84SAPS   C31 7912   3.826   2.674  10.914 -0.5068 -0.1759 -0.0796
   84SAPS   O32 7913   3.824   2.687  11.035 -0.1268  0.1930 -0.4577
   84SAPS   C32 7914   3.709   2.628  10.835  0.9252 -0.2582  0.2913
   84SAPS   H2X 7915   3.619   2.687  10.865  0.7242 -0.8095  0.8016
   84SAPS   H2Y 7916   3.681   2.529  10.879 -1.1851 -1.0498 -2.6461
   84SAPS   C23 7917   4.176   2.859  10.426  0.7711 -0.1235 -0.3080
   84SAPS   H3R 7918   4.113   2.769  10.437  2.5379 -1.4316 -0.6388
   84SAPS   H3S 7919   4.280   2.820  10.430  0.3382 -1.2026  0.6767
   84SAPS   C24 7920   4.156   2.907  10.275 -0.5739  0.1475  0.0752
   84SAPS   H4R 7921   4.223   2.849  10.208  0.1615  0.5164  0.4805
   84SAPS   H4S 7922   4.192   3.012  10.270  1.5434 -0.5621 -0.2840
   84SAPS   C25 7923   4.006   2.908  10.235  0.2748 -0.1076  0.5805
   84SAPS   H5R 7924   3.943   2.882  10.322 -1.1466 -0.0329 -0.4091
   84SAPS   C26 7925   3.956   2.901  10.106 -0.2439  0.3837 -0.5414
   84SAPS   H6R 7926   3.847   2.892  10.096 -0.2160 -1.1935  0.4036
   84SAPS   C27 7927   4.035   2.906   9.977  0.3183 -0.1380  0.1512
   84SAPS   H7R 7928   4.016   2.808   9.926  2.7580 -0.3774 -0.3609
   84SAPS   H7S 7929   4.142   2.911  10.006  0.1684 -0.0049  0.6715
   84SAPS   C28 7930   3.991   3.022   9.899  0.0285  0.1036 -0.3521
   84SAPS   H8R 7931   4.021   3.118   9.942  0.9891 -0.3841  0.0762
   84SAPS   C29 7932   3.897   3.020   9.800  0.7082  0.3348 -0.0707
   84SAPS   H9R 7933   3.873   3.118   9.756  0.9451  0.2745 -0.3337
   84SAPS  C210 7934   3.819   2.905   9.748  0.3248 -0.3398 -0.2293
   84SAPS  H10R 7935   3.715   2.941   9.730  1.1025  2.5589  0.8680
   84SAPS  H10S 7936   3.808   2.823   9.822  0.1219 -2.4989 -2.5947
   84SAPS  C211 7937   3.889   2.844   9.630  0.2815 -0.1640 -0.5494
   84SAPS  H11R 7938   3.980   2.787   9.654 -0.8523 -1.0034  1.9029
   84SAPS  C212 7939   3.855   2.855   9.502  0.6452 -0.1509  0.4991
   84SAPS  H12R 7940   3.917   2.807   9.425 -0.9895 -4.0577  1.5336
   84SAPS  C213 7941   3.741   2.941   9.459 -0.2297  0.1018  0.4199
   84SAPS  H13R 7942   3.663   2.966   9.533 -1.6304  1.2686 -1.4147
   84SAPS  H13S 7943   3.688   2.877   9.385  1.4036 -1.7224  0.7826
   84SAPS  C214 7944   3.785   3.070   9.396 -0.6289 -0.2298 -1.4542
   84SAPS  H14R 7945   3.834   3.142   9.463  0.0992 -0.2819 -1.9250
   84SAPS  C215 7946   3.780   3.097   9.266  1.2924 -0.0239 -0.3459
   84SAPS  H15R 7947   3.819   3.192   9.227  2.6600 -0.3548  0.1956
   84SAPS  C216 7948   3.724   3.007   9.157  0.0081  0.0925 -0.0458
   84SAPS  H16R 7949   3.614   2.999   9.168  0.0080 -0.6475 -0.5804
   84SAPS  H16S 7950   3.782   2.913   9.168  1.2844  1.0755  1.7880
   84SAPS  C217 7951   3.772   3.060   9.015  0.1941 -0.1397 -0.4599
   84SAPS  H17R 7952   3.883   3.065   9.017  0.1802  0.7064 -1.2766
   84SAPS  H17S 7953   3.726   3.158   8.987 -1.8973 -1.3875 -1.4918
   84SAPS  C218 7954   3.746   2.970   8.894  0.1113 -0.1885  0.2670
   84SAPS  H18R 7955   3.820   2.888   8.896 -0.7795 -0.9925  0.5365
   84SAPS  H18S 7956   3.765   3.025   8.799 -0.9184 -1.0216 -0.4283
   84SAPS  C219 7957   3.601   2.921   8.888 -0.2712 -0.9199 -0.4096
   84SAPS  H19R 7958   3.536   3.007   8.912  1.6017  1.1351 -2.5237
   84SAPS  H19S 7959   3.591   2.841   8.965 -1.2537 -1.4879 -1.1089
   84SAPS  C220 7960   3.554   2.877   8.749  0.2622 -0.1831 -0.2666
   84SAPS  H20R 7961   3.631   2.835   8.681 -0.5234 -1.3729 -0.4406
   84SAPS  H20S 7962   3.508   2.963   8.697  1.5302 -0.0819 -1.2207
   84SAPS  H20T 7963   3.468   2.806   8.756  0.5172 -0.5270 -0.6338
   84SAPS   C33 7964   3.733   2.624  10.685 -0.5082 -0.0451 -0.0648
   84SAPS   H3X 7965   3.656   2.558  10.640  0.7641 -0.7300 -1.2721
   84SAPS   H3Y 7966   3.832   2.584  10.653 -0.7943 -0.0901 -0.9131
   84SAPS   C34 7967   3.717   2.766  10.627 -0.4533 -0.6304 -0.1127
   84SAPS   H4X 7968   3.791   2.833  10.676 -1.3569  0.2986  0.0058
   84SAPS   H4Y 7969   3.613   2.801  10.648 -0.2864 -0.3436  0.2434
   84SAPS   C35 7970   3.744   2.771  10.475  0.1595  0.2256 -0.2151
   84SAPS   H5X 7971   3.845   2.732  10.450  0.0884  1.0515 -1.8798
   84SAPS   H5Y 7972   3.738   2.878  10.447  0.8592  0.0733 -0.9740
   84SAPS   C36 7973   3.641   2.696  10.389 -0.2511  0.9108 -0.0487
   84SAPS   H6X 7974   3.546   2.746  10.416 -0.4557 -0.4812  1.8691
   84SAPS   H6Y 7975   3.643   2.587  10.411  0.4879  0.7121 -1.0828
   84SAPS   C37 7976   3.674   2.706  10.242  0.1819 -0.4698 -0.1143
   84SAPS   H7X 7977   3.781   2.676  10.240  0.3754  0.2419 -2.1820
   84SAPS   H7Y 7978   3.672   2.816  10.225  3.7795 -0.5783 -1.6424
   84SAPS   C38 7979   3.582   2.623  10.152  0.4262  0.2755 -0.2598
   84SAPS   H8X 7980   3.477   2.660  10.147  0.3811  0.3485  0.9348
   84SAPS   H8Y 7981   3.568   2.519  10.188 -1.7081  0.6307  0.0358
   84SAPS   C39 7982   3.623   2.613  10.001 -0.6445  0.6058  0.4925
   84SAPS   H9X 7983   3.704   2.536  10.008 -2.3733 -1.5008 -1.9217
   84SAPS   H9Y 7984   3.666   2.709   9.965  0.4088 -0.1666 -0.3614
   84SAPS  C310 7985   3.515   2.551   9.904 -0.0181  0.2768  0.3798
   84SAPS  H10X 7986   3.440   2.632   9.888  1.4116  0.9968 -3.0774
   84SAPS  H10Y 7987   3.457   2.468   9.951  0.6834 -1.0214 -1.0386
   84SAPS  C311 7988   3.570   2.530   9.756  0.0062 -0.0556 -0.2133
   84SAPS  H11X 7989   3.676   2.495   9.759 -0.3688 -1.3630 -1.6371
   84SAPS  H11Y 7990   3.558   2.633   9.717 -4.0310 -0.3595  0.1100
   84SAPS  C312 7991   3.482   2.434   9.666 -0.4254  0.1746 -0.5072
   84SAPS  H12X 7992   3.374   2.462   9.674 -0.6193 -0.0223 -2.3081
   84SAPS  H12Y 7993   3.497   2.332   9.706  1.0795  0.3155 -0.6971
   84SAPS  C313 7994   3.551   2.431   9.528  0.4823  0.3071 -0.3876
   84SAPS  H13X 7995   3.522   2.336   9.477  0.6155  1.0206 -1.8077
   84SAPS  H13Y 7996   3.662   2.429   9.535  0.4543 -0.3620 -0.0594
   84SAPS  C314 7997   3.522   2.549   9.436  0.5153  0.9096 -0.2381
   84SAPS  H14X 7998   3.535   2.644   9.492 -1.0526  0.6526  0.5789
   84SAPS  H14Y 7999   3.424   2.557   9.384  1.0826  1.1281 -1.3008
   84SAPS  C315 8000   3.604   2.556   9.312  0.1156  0.1407 -0.8286
   84SAPS  H15X 8001   3.607   2.450   9.279  0.5957 -0.9270  2.4704
   84SAPS  H15Y 8002   3.704   2.603   9.325  0.8556 -1.4337 -0.6272
   84SAPS  C316 8003   3.543   2.632   9.192 -0.0048 -1.3122 -0.2143
   84SAPS  H16X 8004   3.552   2.741   9.214 -4.1486 -0.5898 -1.5472
   84SAPS  H16Y 8005   3.432   2.626   9.189 -0.4073  3.0699  1.7788
   84SAPS  C317 8006   3.593   2.579   9.059 -0.7191 -0.7258  0.5525
   84SAPS  H17X 8007   3.558   2.644   8.976 -0.3640 -1.1305  0.0847
   84SAPS  H17Y 8008   3.542   2.483   9.038 -0.3680 -0.6824 -0.5129
   84SAPS  C318 8009   3.750   2.581   9.060  0.2905 -0.1919 -0.2396
   84SAPS  H18X 8010   3.778   2.569   8.953 -0.9373 -0.8647 -0.4967
   84SAPS  H18Y 8011   3.800   2.512   9.132  1.1867  1.3043  0.5969
   84SAPS  H18Z 8012   3.786   2.674   9.108 -2.7489  1.7528 -1.6185
   85SAPS     N 8013   0.630   4.737  10.705 -0.1391  0.1890  0.0315
   85SAPS   HN1 8014   0.557   4.800  10.666  2.5049  3.0704 -0.4590
   85SAPS   HN2 8015   0.727   4.775  10.701 -0.1061  0.1377  0.3105
   85SAPS   HN3 8016   0.636   4.650  10.650 -1.1807 -1.4720  2.4764
   85SAPS   C12 8017   0.609   4.708  10.848  0.1694  0.1684  0.6303
   85SAPS  H12A 8018   0.506   4.702  10.879  0.5343 -0.3083  1.7945
   85SAPS   C13 8019   0.691   4.587  10.893  0.3171 -0.1495 -0.6573
   85SAPS  O13A 8020   0.781   4.539  10.818 -0.1426 -0.1016 -0.6494
   85SAPS  O13B 8021   0.663   4.534  11.004 -0.3239  0.2351 -0.7307
   85SAPS   C11 8022   0.668   4.828  10.927 -0.7028 -0.2853  0.1843
   85SAPS  H11A 8023   0.776   4.831  10.899 -0.5361 -1.5383  0.6539
   85SAPS  H11B 8024   0.671   4.802  11.035 -1.4362  0.2025  0.3284
   85SAPS     P 8025   0.672   5.079  10.982  0.1385 -0.2581 -0.1765
   85SAPS   O13 8026   0.608   5.200  10.926 -0.2248 -0.2528 -0.4351
   85SAPS   O14 8027   0.656   5.058  11.129  0.1737 -0.0363 -0.3812
   85SAPS   O12 8028   0.607   4.957  10.900 -0.2483  0.5819 -0.0380
   85SAPS   O11 8029   0.822   5.067  10.946 -0.3972  0.1668  0.5733
   85SAPS    C1 8030   0.903   5.160  10.876 -0.8516  0.6833  0.1749
   85SAPS    HA 8031   0.857   5.260  10.887 -2.4265  0.2034 -1.8227
   85SAPS    HB 8032   1.000   5.163  10.931  0.2857 -0.4208 -1.6967
   85SAPS    C2 8033   0.932   5.120  10.733 -0.0548 -0.1514  0.7044
   85SAPS    HS 8034   0.982   5.205  10.684 -1.4644 -0.4657 -1.3332
   85SAPS   O21 8035   0.812   5.088  10.659 -0.3609 -0.3067 -0.2641
   85SAPS   C21 8036   0.739   5.190  10.619  0.2462 -0.3003 -0.3684
   85SAPS   O22 8037   0.779   5.309  10.618 -0.3134 -1.0991  0.1409
   85SAPS   C22 8038   0.602   5.136  10.570  0.0499 -0.3650  0.2427
   85SAPS   H2R 8039   0.626   5.054  10.500 -2.4254  0.2700 -1.3990
   85SAPS   H2S 8040   0.536   5.108  10.654 -2.2600  0.6591 -1.1886
   85SAPS    C3 8041   1.026   4.989  10.736 -0.0901 -0.0334 -0.4014
   85SAPS    HX 8042   0.988   4.914  10.808  1.1084  0.9416  1.2637
   85SAPS    HY 8043   1.119   5.030  10.781 -0.1336 -1.4605  1.0239
   85SAPS   O31 8044   1.077   4.932  10.617  0.1756 -0.7033 -0.4524
   85SAPS   C31 8045   0.990   4.847  10.566 -0.7215  0.4218 -0.1002
   85SAPS   O32 8046   0.885   4.813  10.614 -0.2416  0.2380  0.8613
   85SAPS   C32 8047   1.066   4.798  10.445 -0.5718  0.6769 -0.6011
   85SAPS   H2X 8048   1.142   4.729  10.488 -0.2833  1.8430  0.7987
   85SAPS   H2Y 8049   1.114   4.889  10.403 -0.5429  0.9664  0.0652
   85SAPS   C23 8050   0.517   5.242  10.492  0.1985 -0.0188  0.2525
   85SAPS   H3R 8051   0.594   5.304  10.442  3.0907 -2.5850  1.3912
   85SAPS   H3S 8052   0.455   5.300  10.564  0.1197 -0.5594  0.6203
   85SAPS   C24 8053   0.438   5.165  10.381 -0.5107 -0.0930 -0.3620
   85SAPS   H4R 8054   0.375   5.090  10.435  1.1344 -1.4721 -0.3142
   85SAPS   H4S 8055   0.501   5.107  10.311  0.0920  1.4016 -1.0742
   85SAPS   C25 8056   0.354   5.264  10.306 -0.3037  0.6932 -0.1614
   85SAPS   H5R 8057   0.248   5.282  10.327  0.2858  2.3589  1.5028
   85SAPS   C26 8058   0.405   5.340  10.210  0.0517  0.3803 -0.2939
   85SAPS   H6R 8059   0.336   5.406  10.155 -1.0122 -1.6664 -1.4816
   85SAPS   C27 8060   0.546   5.345  10.157 -0.5984 -0.2232 -0.4105
   85SAPS   H7R 8061   0.582   5.248  10.116 -1.0026 -0.6341  0.1987
   85SAPS   H7S 8062   0.615   5.366  10.242 -1.6186 -0.9220  0.5972
   85SAPS   C28 8063   0.584   5.459  10.069  0.6846 -0.1578  0.3346
   85SAPS   H8R 8064   0.620   5.552  10.114 -0.0669 -0.5424  1.7570
   85SAPS   C29 8065   0.576   5.450   9.935  0.0342  0.4837 -0.0822
   85SAPS   H9R 8066   0.605   5.542   9.882  1.0701  0.1646 -0.0902
   85SAPS  C210 8067   0.521   5.338   9.848 -0.3166  0.2000 -0.4757
   85SAPS  H10R 8068   0.418   5.354   9.807 -0.1728  2.0492 -0.1724
   85SAPS  H10S 8069   0.516   5.243   9.906 -2.2403 -0.4504 -1.6453
   85SAPS  C211 8070   0.616   5.320   9.727 -0.4435 -0.4169 -0.4016
   85SAPS  H11R 8071   0.723   5.312   9.749 -0.3661 -0.2192 -0.7144
   85SAPS  C212 8072   0.576   5.337   9.601  0.2853 -0.7694 -1.0215
   85SAPS  H12R 8073   0.659   5.317   9.532  3.1690  0.2706  2.0371
   85SAPS  C213 8074   0.444   5.385   9.550  0.2755 -1.0456  0.1309
   85SAPS  H13R 8075   0.456   5.435   9.452 -3.3624  0.7687  0.5108
   85SAPS  H13S 8076   0.403   5.465   9.615  1.6386  0.0268 -0.3180
   85SAPS  C214 8077   0.344   5.281   9.520  0.0722  0.1318  0.5143
   85SAPS  H14R 8078   0.264   5.270   9.596 -0.9115  1.2502 -0.3297
   85SAPS  C215 8079   0.342   5.190   9.419 -0.1570 -0.2965  0.4803
   85SAPS  H15R 8080   0.262   5.116   9.402 -1.8655  2.4073 -4.1906
   85SAPS  C216 8081   0.448   5.173   9.311  0.0215 -0.0653  0.0094
   85SAPS  H16R 8082   0.488   5.069   9.318  1.6712  0.5684  0.0750
   85SAPS  H16S 8083   0.530   5.247   9.315 -0.9933  0.9695  2.1445
   85SAPS  C217 8084   0.378   5.185   9.173  0.5040  0.8009 -0.6725
   85SAPS  H17R 8085   0.363   5.293   9.149  1.5594  1.9084  3.1815
   85SAPS  H17S 8086   0.276   5.141   9.170 -0.5384  3.1946 -2.1045
   85SAPS  C218 8087   0.473   5.121   9.067  0.0154 -0.1836 -0.1635
   85SAPS  H18R 8088   0.495   5.014   9.084 -0.4066 -0.1378  0.6973
   85SAPS  H18S 8089   0.569   5.176   9.073  0.4815 -1.0791  0.7814
   85SAPS  C219 8090   0.413   5.147   8.923  0.7638  0.7256 -0.7675
   85SAPS  H19R 8091   0.496   5.118   8.856  0.3627  1.7884 -1.7452
   85SAPS  H19S 8092   0.384   5.254   8.925 -1.7326  0.0747 -0.4135
   85SAPS  C220 8093   0.297   5.052   8.886  0.3318  0.0315  0.7119
   85SAPS  H20R 8094   0.216   5.071   8.960 -1.1305 -0.5074 -0.7437
   85SAPS  H20S 8095   0.330   4.947   8.900  0.7803 -0.0686 -1.0400
   85SAPS  H20T 8096   0.263   5.060   8.781  1.7094 -1.2242  0.1547
   85SAPS   C33 8097   0.982   4.724  10.340  0.3144  0.4626 -0.6558
   85SAPS   H3X 8098   0.890   4.781  10.316 -1.7448 -1.8696  1.3676
   85SAPS   H3Y 8099   0.958   4.623  10.379 -2.1474  1.7323  1.2597
   85SAPS   C34 8100   1.059   4.709  10.210 -0.3387 -0.1912 -0.8998
   85SAPS   H4X 8101   1.164   4.688  10.241 -0.9546 -1.0885  0.6066
   85SAPS   H4Y 8102   1.056   4.808  10.160 -0.0944  0.4754  0.3764
   85SAPS   C35 8103   1.011   4.597  10.118  0.0677  0.1573 -0.7466
   85SAPS   H5X 8104   0.909   4.620  10.081 -0.2927 -0.1696  0.0279
   85SAPS   H5Y 8105   1.010   4.498  10.169 -0.2985  0.7464  0.4159
   85SAPS   C36 8106   1.091   4.581   9.987  0.0452  0.4822  0.3276
   85SAPS   H6X 8107   1.187   4.532  10.012 -1.0599 -1.7848  0.2559
   85SAPS   H6Y 8108   1.115   4.685   9.956 -2.0030  0.2020 -2.4613
   85SAPS   C37 8109   1.021   4.496   9.887 -0.6935  0.0600 -0.2815
   85SAPS   H7X 8110   0.923   4.539   9.855 -1.2527 -0.7306  0.3528
   85SAPS   H7Y 8111   0.997   4.398   9.934  0.2063 -0.8572 -1.6878
   85SAPS   C38 8112   1.110   4.466   9.759  0.4335  0.3988 -0.2318
   85SAPS   H8X 8113   1.192   4.398   9.791  0.5599  0.3635 -0.6263
   85SAPS   H8Y 8114   1.160   4.560   9.726 -0.7319  1.6579  1.4519
   85SAPS   C39 8115   1.038   4.407   9.640  0.5174  0.0891  0.4464
   85SAPS   H9X 8116   0.928   4.411   9.654  0.8412  0.5775  3.0091
   85SAPS   H9Y 8117   1.050   4.297   9.633  0.0832  0.1521 -1.7055
   85SAPS  C310 8118   1.073   4.465   9.503  0.5524 -0.6792  0.0695
   85SAPS  H10X 8119   1.172   4.443   9.457  1.0450  0.5832  0.5081
   85SAPS  H10Y 8120   1.057   4.575   9.509  0.7491 -0.6102 -0.5913
   85SAPS  C311 8121   0.976   4.418   9.397 -0.1462 -0.2426  0.0861
   85SAPS  H11X 8122   0.884   4.479   9.409 -0.4288 -0.6976  0.2496
   85SAPS  H11Y 8123   0.946   4.311   9.408 -0.1369 -0.0106  2.6749
   85SAPS  C312 8124   1.032   4.439   9.257  0.0449  0.0293  0.3991
   85SAPS  H12X 8125   1.135   4.400   9.246 -1.4707 -3.9184 -0.5572
   85SAPS  H12Y 8126   1.053   4.547   9.240 -0.2252  0.4263  2.4378
   85SAPS  C313 8127   0.940   4.373   9.157 -0.7800  0.6729 -0.1478
   85SAPS  H13X 8128   0.842   4.427   9.158 -0.8061  0.6802 -2.3859
   85SAPS  H13Y 8129   0.926   4.263   9.162  2.5028  0.1493 -1.7242
   85SAPS  C314 8130   0.998   4.397   9.014 -0.3968 -0.2890  0.9085
   85SAPS  H14X 8131   1.105   4.370   9.000 -0.2857  0.3352  0.5401
   85SAPS  H14Y 8132   0.985   4.505   8.992  1.4628  0.1467  1.8101
   85SAPS  C315 8133   0.920   4.340   8.892  0.7007  0.4638 -0.1037
   85SAPS  H15X 8134   0.816   4.327   8.929  0.4568 -1.9940 -1.5229
   85SAPS  H15Y 8135   0.955   4.240   8.858 -0.0917 -0.2483  1.1678
   85SAPS  C316 8136   0.950   4.426   8.768 -0.3578  0.1296 -0.4239
   85SAPS  H16X 8137   1.058   4.448   8.752 -0.7392  1.4300 -1.3273
   85SAPS  H16Y 8138   0.895   4.522   8.776  0.7955  0.7936 -0.3446
   85SAPS  C317 8139   0.903   4.356   8.638  0.3211  0.2989  0.5325
   85SAPS  H17X 8140   0.882   4.445   8.574 -0.9367  0.9269  1.7829
   85SAPS  H17Y 8141   0.803   4.308   8.644  0.2290 -0.0621 -3.0242
   85SAPS  C318 8142   1.009   4.269   8.566 -0.9541 -0.7581 -0.4682
   85SAPS  H18X 8143   0.968   4.244   8.465 -0.7149  0.8242 -0.9713
   85SAPS  H18Y 8144   1.042   4.177   8.617  2.8695  0.0917 -1.2645
   85SAPS  H18Z 8145   1.099   4.332   8.550  0.4395 -2.2362  1.3867
   86SAPS     N 8146   2.411   4.184  11.137 -0.8748  0.0920 -0.2465
   86SAPS   HN1 8147   2.312   4.190  11.167 -0.8463  1.5431 -0.4008
   86SAPS   HN2 8148   2.415   4.137  11.044 -5.7084  2.0345 -1.5756
   86SAPS   HN3 8149   2.456   4.128  11.212  0.0566  1.1906  0.0245
   86SAPS   C12 8150   2.476   4.316  11.138 -0.3587 -0.6620  0.0449
   86SAPS  H12A 8151   2.431   4.378  11.063  0.1582  0.2103  0.4546
   86SAPS   C13 8152   2.451   4.388  11.280 -0.1204  0.3360 -0.0714
   86SAPS  O13A 8153   2.370   4.331  11.363  0.1859  0.1602 -0.1435
   86SAPS  O13B 8154   2.500   4.504  11.305  0.0269  0.0145 -0.5448
   86SAPS   C11 8155   2.627   4.311  11.105 -0.0427 -0.5542 -0.7860
   86SAPS  H11A 8156   2.682   4.254  11.182  1.9774  3.0142  0.5227
   86SAPS  H11B 8157   2.666   4.415  11.112 -0.1910 -0.4609 -1.2831
   86SAPS     P 8158   2.655   4.344  10.848 -0.1885  0.1727 -0.0559
   86SAPS   O13 8159   2.538   4.437  10.851 -0.4164 -0.2051  0.7728
   86SAPS   O14 8160   2.789   4.407  10.839  0.4339  0.3185  0.1025
   86SAPS   O12 8161   2.649   4.256  10.975  0.2305  0.1778  0.7075
   86SAPS   O11 8162   2.640   4.230  10.742  0.5274  0.4854 -0.1443
   86SAPS    C1 8163   2.586   4.271  10.613  0.2604  0.1824  0.3018
   86SAPS    HA 8164   2.537   4.193  10.552 -1.6417  1.7454 -0.1848
   86SAPS    HB 8165   2.495   4.332  10.630 -1.0144 -1.6776  0.1902
   86SAPS    C2 8166   2.687   4.348  10.515 -0.3455  0.0752  0.1576
   86SAPS    HS 8167   2.729   4.435  10.569 -1.9557  0.6004  0.5898
   86SAPS   O21 8168   2.611   4.388  10.395  0.5003 -0.3606  0.5139
   86SAPS   C21 8169   2.547   4.500  10.411 -0.1598 -0.1448  0.8061
   86SAPS   O22 8170   2.553   4.576  10.506  0.3273 -0.0604  0.1761
   86SAPS   C22 8171   2.452   4.512  10.288  0.3636  0.4024 -0.1891
   86SAPS   H2R 8172   2.427   4.409  10.254 -1.1571  0.3551  0.9972
   86SAPS   H2S 8173   2.355   4.545  10.331  1.0878  2.2216  0.0746
   86SAPS    C3 8174   2.806   4.264  10.468  0.8679  0.4853  0.5273
   86SAPS    HX 8175   2.777   4.167  10.423 -0.2985  0.7535  0.6831
   86SAPS    HY 8176   2.861   4.251  10.564  1.3868 -1.2889  0.0118
   86SAPS   O31 8177   2.888   4.340  10.375  0.2799  1.0244  0.8170
   86SAPS   C31 8178   2.889   4.300  10.250 -0.3653 -0.4038 -0.3865
   86SAPS   O32 8179   2.832   4.203  10.200 -0.9040  1.0164  0.0050
   86SAPS   C32 8180   3.002   4.372  10.183 -0.3314  0.3264 -0.9704
   86SAPS   H2X 8181   3.101   4.338  10.220  0.5333  3.5105 -0.2072
   86SAPS   H2Y 8182   2.993   4.482  10.202 -0.3613  0.4049 -1.4384
   86SAPS   C23 8183   2.507   4.602  10.178 -0.0210  0.3141  0.2934
   86SAPS   H3R 8184   2.543   4.688  10.237  1.7695 -0.6204  0.6010
   86SAPS   H3S 8185   2.429   4.619  10.100  0.2972 -2.5054 -0.7145
   86SAPS   C24 8186   2.622   4.537  10.101 -0.4290 -0.0507  0.2276
   86SAPS   H4R 8187   2.704   4.527  10.176 -0.5164  1.5079  0.5368
   86SAPS   H4S 8188   2.666   4.610  10.029 -0.4407  1.0462  1.3181
   86SAPS   C25 8189   2.592   4.404  10.027  0.8041 -0.6543 -0.6024
   86SAPS   H5R 8190   2.608   4.320  10.096 -2.0985 -1.5813 -0.9839
   86SAPS   C26 8191   2.553   4.388   9.896 -0.4230 -0.4512 -0.1133
   86SAPS   H6R 8192   2.534   4.287   9.858 -4.2480  0.4258 -0.7644
   86SAPS   C27 8193   2.529   4.492   9.789 -0.6559  0.1744 -0.2337
   86SAPS   H7R 8194   2.577   4.589   9.816 -2.3267  0.3372  2.2966
   86SAPS   H7S 8195   2.418   4.501   9.790 -0.7108  1.2932 -4.6948
   86SAPS   C28 8196   2.573   4.453   9.651 -0.5725 -0.7469 -0.8648
   86SAPS   H8R 8197   2.661   4.389   9.637 -0.4798 -0.9134  0.4831
   86SAPS   C29 8198   2.527   4.504   9.534  0.2168  0.4661 -0.1063
   86SAPS   H9R 8199   2.587   4.487   9.444 -0.0914  1.4176 -0.5044
   86SAPS  C210 8200   2.408   4.598   9.518  0.3162 -0.2316  0.0270
   86SAPS  H10R 8201   2.422   4.686   9.452  1.8838 -1.2533 -1.0365
   86SAPS  H10S 8202   2.382   4.635   9.619  0.6769 -1.7870  0.7128
   86SAPS  C211 8203   2.280   4.533   9.463 -0.3974 -0.2396 -0.0153
   86SAPS  H11R 8204   2.214   4.501   9.544 -2.2812  4.0533  0.3140
   86SAPS  C212 8205   2.241   4.521   9.334 -0.1146 -0.9424 -1.3027
   86SAPS  H12R 8206   2.138   4.486   9.317 -0.9509  1.0797 -0.4715
   86SAPS  C213 8207   2.332   4.582   9.230  0.3153  0.6983  0.7483
   86SAPS  H13R 8208   2.431   4.531   9.226 -0.4490 -0.7545 -0.2453
   86SAPS  H13S 8209   2.351   4.689   9.250 -2.0348  1.4744 -0.9457
   86SAPS  C214 8210   2.251   4.576   9.105  0.2603  0.2700 -0.4068
   86SAPS  H14R 8211   2.144   4.599   9.113 -0.0837 -1.2197 -0.5741
   86SAPS  C215 8212   2.299   4.597   8.987 -1.0529 -0.1631  1.0069
   86SAPS  H15R 8213   2.230   4.581   8.903 -0.6523  1.0992  0.4210
   86SAPS  C216 8214   2.441   4.637   8.947  0.5660  0.7362 -0.8006
   86SAPS  H16R 8215   2.489   4.550   8.896 -0.4063  0.0266 -0.5296
   86SAPS  H16S 8216   2.514   4.658   9.028  0.6009 -1.9631 -0.0693
   86SAPS  C217 8217   2.438   4.770   8.870 -0.7537 -0.0858  0.1628
   86SAPS  H17R 8218   2.543   4.804   8.859 -0.6243 -0.3630  0.5183
   86SAPS  H17S 8219   2.369   4.841   8.921 -0.8881 -1.0351  1.3084
   86SAPS  C218 8220   2.384   4.763   8.724  0.2581  0.1422 -0.6682
   86SAPS  H18R 8221   2.282   4.720   8.720  0.4864 -0.5086  0.3906
   86SAPS  H18S 8222   2.445   4.682   8.677 -1.7516 -2.5508  1.2496
   86SAPS  C219 8223   2.406   4.879   8.627  0.1877 -0.3451  0.5958
   86SAPS  H19R 8224   2.363   4.843   8.531 -0.9819  0.5066  0.7792
   86SAPS  H19S 8225   2.516   4.894   8.620  0.3291 -1.9257 -0.8530
   86SAPS  C220 8226   2.347   5.010   8.668  0.2310 -1.0356 -0.3484
   86SAPS  H20R 8227   2.385   5.046   8.766 -0.9573 -0.8978  0.0663
   86SAPS  H20S 8228   2.236   5.012   8.668  0.2561  1.0825  0.1073
   86SAPS  H20T 8229   2.380   5.085   8.593 -1.3429  0.1591  0.1281
   86SAPS   C33 8230   2.988   4.355  10.027 -0.1762  0.2666 -0.2579
   86SAPS   H3X 8231   2.882   4.367   9.995  0.9038  1.8853 -3.4357
   86SAPS   H3Y 8232   3.016   4.250  10.004  0.7187  0.1328  1.3361
   86SAPS   C34 8233   3.079   4.448   9.946  0.1089 -0.8091  0.6150
   86SAPS   H4X 8234   3.186   4.420   9.958 -0.2074 -2.3906  0.0002
   86SAPS   H4Y 8235   3.079   4.549   9.992 -1.2376  0.0780 -1.2737
   86SAPS   C35 8236   3.051   4.463   9.797  0.4013 -0.2731 -0.0686
   86SAPS   H5X 8237   3.144   4.505   9.752  1.0299 -0.9315  0.5887
   86SAPS   H5Y 8238   2.964   4.524   9.765  2.1862  1.8079 -1.0531
   86SAPS   C36 8239   3.035   4.323   9.738  0.0138 -0.6294 -0.5516
   86SAPS   H6X 8240   2.952   4.268   9.789  1.6694 -0.8152  2.0593
   86SAPS   H6Y 8241   3.126   4.266   9.766 -1.5205 -2.8274  0.1778
   86SAPS   C37 8242   3.014   4.328   9.583 -0.2084  0.4077 -0.9755
   86SAPS   H7X 8243   3.107   4.377   9.547  1.3686  0.5101  2.9400
   86SAPS   H7Y 8244   2.923   4.388   9.560  0.9540  2.5158 -0.2696
   86SAPS   C38 8245   3.003   4.196   9.504 -0.1120  0.0703  0.1295
   86SAPS   H8X 8246   2.922   4.131   9.544 -0.3203  0.1708 -0.1273
   86SAPS   H8Y 8247   3.089   4.126   9.497 -0.4218 -0.2575 -0.4683
   86SAPS   C39 8248   2.968   4.214   9.355 -0.1252 -1.1686  0.0631
   86SAPS   H9X 8249   2.907   4.307   9.350  2.8583  0.8779  0.5920
   86SAPS   H9Y 8250   2.899   4.136   9.316 -0.5634 -0.9532  0.3944
   86SAPS  C310 8251   3.085   4.253   9.262 -0.3393 -0.5814 -0.7676
   86SAPS  H10X 8252   3.136   4.157   9.241  2.6799  1.2946 -2.2847
   86SAPS  H10Y 8253   3.162   4.311   9.317 -1.0142  0.5307 -0.9747
   86SAPS  C311 8254   3.043   4.306   9.123  0.0783 -0.2004  0.2821
   86SAPS  H11X 8255   3.001   4.409   9.122  0.7228  0.0615 -1.5065
   86SAPS  H11Y 8256   2.967   4.232   9.089 -0.9879  0.8609  0.3264
   86SAPS  C312 8257   3.168   4.303   9.023  0.1418 -0.3976  0.3036
   86SAPS  H12X 8258   3.205   4.198   9.013  0.3406 -0.4081  1.1048
   86SAPS  H12Y 8259   3.251   4.358   9.072 -1.3065  1.3584  0.8303
   86SAPS  C313 8260   3.138   4.370   8.893  0.5536 -0.5651  1.0318
   86SAPS  H13X 8261   3.234   4.357   8.839 -0.5762  0.0940 -1.1800
   86SAPS  H13Y 8262   3.133   4.481   8.890 -1.4534 -0.6430  1.1464
   86SAPS  C314 8263   3.020   4.318   8.817  0.2617 -0.0731  0.1111
   86SAPS  H14X 8264   2.937   4.286   8.884 -1.5800  3.8214 -0.1572
   86SAPS  H14Y 8265   3.067   4.233   8.764 -0.2819 -0.9038  0.9474
   86SAPS  C315 8266   2.949   4.417   8.726 -0.4960 -0.9015 -0.0606
   86SAPS  H15X 8267   3.024   4.456   8.653  2.0900 -2.4229  1.7114
   86SAPS  H15Y 8268   2.905   4.503   8.780  0.3701  0.0974 -0.9080
   86SAPS  C316 8269   2.828   4.345   8.655 -0.5894 -0.4674 -0.4532
   86SAPS  H16X 8270   2.747   4.335   8.731 -1.0261 -1.2734 -1.0175
   86SAPS  H16Y 8271   2.867   4.250   8.615  0.4319  0.2645 -1.2235
   86SAPS  C317 8272   2.765   4.419   8.531 -0.4638  0.2435 -0.0942
   86SAPS  H17X 8273   2.668   4.377   8.498 -1.2215  1.6576  0.2953
   86SAPS  H17Y 8274   2.840   4.406   8.450  0.1011 -0.6395  0.5542
   86SAPS  C318 8275   2.748   4.569   8.539 -0.5336 -0.2152 -0.9631
   86SAPS  H18X 8276   2.712   4.599   8.640 -0.3949 -0.3458 -0.8722
   86SAPS  H18Y 8277   2.678   4.606   8.461 -0.9754 -0.2867 -0.5989
   86SAPS  H18Z 8278   2.844   4.625   8.538 -0.9672  0.5240 -2.2074
   87SAPS     N 8279   3.444   5.599  10.704 -0.7415 -0.5400  0.4367
   87SAPS   HN1 8280   3.381   5.610  10.622  1.5333 -0.0016 -1.2689
   87SAPS   HN2 8281   3.494   5.689  10.717 -1.3953  0.3767 -2.8604
   87SAPS   HN3 8282   3.523   5.534  10.688  1.0272  1.7941 -0.5501
   87SAPS   C12 8283   3.373   5.574  10.828  0.8486 -0.1037  0.5142
   87SAPS  H12A 8284   3.435   5.609  10.909 -0.2412  1.3861  0.7280
   87SAPS   C13 8285   3.240   5.654  10.839  0.4027 -0.6364  0.2929
   87SAPS  O13A 8286   3.192   5.709  10.738  0.3882  0.3516 -0.3834
   87SAPS  O13B 8287   3.174   5.646  10.946 -0.9237 -0.1065  0.4377
   87SAPS   C11 8288   3.340   5.426  10.846 -0.2322 -0.8683  0.5029
   87SAPS  H11A 8289   3.277   5.399  10.758  0.4939 -1.1818  0.0769
   87SAPS  H11B 8290   3.284   5.421  10.942 -1.8636  1.7930 -0.2601
   87SAPS     P 8291   3.452   5.202  10.904  0.0645  0.3222  0.0945
   87SAPS   O13 8292   3.578   5.147  10.848 -0.4396  0.0163 -0.6891
   87SAPS   O14 8293   3.437   5.197  11.054  0.1559 -0.4840  0.0375
   87SAPS   O12 8294   3.458   5.351  10.864 -0.5004 -0.0250  0.0193
   87SAPS   O11 8295   3.325   5.143  10.835 -0.2617  0.0795 -0.3038
   87SAPS    C1 8296   3.300   5.134  10.699  0.0818  0.3880  0.5339
   87SAPS    HA 8297   3.190   5.145  10.699  0.2098  2.2056 -1.4997
   87SAPS    HB 8298   3.337   5.222  10.642  1.1465 -0.6872 -0.4598
   87SAPS    C2 8299   3.328   4.991  10.637  0.3524 -0.8737 -0.3215
   87SAPS    HS 8300   3.289   4.921  10.714 -0.4312  2.3549  2.3149
   87SAPS   O21 8301   3.463   4.982  10.605 -0.4331  0.3926 -0.2007
   87SAPS   C21 8302   3.522   4.869  10.634 -0.0823  0.5657  0.4138
   87SAPS   O22 8303   3.468   4.770  10.689 -0.0701  0.1239 -0.3560
   87SAPS   C22 8304   3.661   4.866  10.582 -0.5233 -0.0874  0.3115
   87SAPS   H2R 8305   3.694   4.970  10.562 -0.7401  0.1504  1.1933
   87SAPS   H2S 8306   3.727   4.822  10.659  1.4724  0.8176 -0.8297
   87SAPS    C3 8307   3.236   4.952  10.515  0.1141 -0.1951 -0.1321
   87SAPS    HX 8308   3.128   4.956  10.540  0.3150 -1.3116  0.9028
   87SAPS    HY 8309   3.269   4.847  10.499  2.7986  0.0890  2.9317
   87SAPS   O31 8310   3.277   5.022  10.398 -0.2162  0.0426 -0.3748
   87SAPS   C31 8311   3.184   5.100  10.346 -1.4647  0.7615 -0.5280
   87SAPS   O32 8312   3.075   5.127  10.401  0.0612 -0.4182  0.3035
   87SAPS   C32 8313   3.231   5.156  10.211 -0.4090 -0.0528  0.5595
   87SAPS   H2X 8314   3.171   5.109  10.130  1.1589 -2.6455  0.8404
   87SAPS   H2Y 8315   3.335   5.130  10.185 -0.1691  1.7543 -0.3151
   87SAPS   C23 8316   3.677   4.783  10.447 -0.0161 -0.4389 -0.4792
   87SAPS   H3R 8317   3.675   4.676  10.478 -2.2867 -0.3468 -0.2350
   87SAPS   H3S 8318   3.780   4.806  10.412  0.6715 -0.5283  1.4451
   87SAPS   C24 8319   3.576   4.812  10.329  0.2148  0.1891 -0.3403
   87SAPS   H4R 8320   3.634   4.801  10.234  0.6268  2.2144 -0.3481
   87SAPS   H4S 8321   3.534   4.914  10.323 -2.8775 -0.9872  0.7039
   87SAPS   C25 8322   3.464   4.719  10.337  0.4389  0.2439  0.0499
   87SAPS   H5R 8323   3.440   4.696  10.442  1.5836 -3.0849 -0.3503
   87SAPS   C26 8324   3.388   4.679  10.237  0.0831  0.1097 -0.2351
   87SAPS   H6R 8325   3.313   4.601  10.258 -1.2577  0.5246 -3.1607
   87SAPS   C27 8326   3.417   4.724  10.096  0.2128  0.4088 -0.2897
   87SAPS   H7R 8327   3.375   4.642  10.033 -1.2400 -0.4047  1.6956
   87SAPS   H7S 8328   3.525   4.733  10.072  0.4510 -1.0256  0.1948
   87SAPS   C28 8329   3.348   4.864  10.075 -0.3767 -0.2465 -0.1177
   87SAPS   H8R 8330   3.338   4.926  10.166  3.1280 -1.1822  1.0232
   87SAPS   C29 8331   3.302   4.918   9.963  0.7431  1.0468  0.8644
   87SAPS   H9R 8332   3.248   5.014   9.958  0.9598  1.1478  0.3921
   87SAPS  C210 8333   3.312   4.849   9.830 -0.4316  0.6180 -0.7897
   87SAPS  H10R 8334   3.228   4.867   9.760  0.7186 -0.0169 -2.3615
   87SAPS  H10S 8335   3.319   4.738   9.840  0.8989  0.8167  0.6053
   87SAPS  C211 8336   3.444   4.888   9.768  0.5084  0.1082 -0.1394
   87SAPS  H11R 8337   3.524   4.893   9.843 -1.5846 -1.1726  2.2655
   87SAPS  C212 8338   3.469   4.932   9.648 -0.9672  0.1384 -0.0072
   87SAPS  H12R 8339   3.572   4.957   9.616 -0.8609 -1.2548 -0.7926
   87SAPS  C213 8340   3.366   4.948   9.541  0.6908  0.2973 -0.0663
   87SAPS  H13R 8341   3.294   5.013   9.595  0.4199 -0.3072  0.3179
   87SAPS  H13S 8342   3.315   4.850   9.530 -0.1993  0.9501 -1.9073
   87SAPS  C214 8343   3.401   5.006   9.407  0.1967 -0.4548  0.5135
   87SAPS  H14R 8344   3.499   5.056   9.404 -0.1842  0.4213  2.2144
   87SAPS  C215 8345   3.322   5.002   9.299  0.0171 -0.2628 -0.2986
   87SAPS  H15R 8346   3.355   5.050   9.205  0.6361  1.2461  0.6741
   87SAPS  C216 8347   3.183   4.938   9.298 -0.4952  0.4634 -0.5054
   87SAPS  H16R 8348   3.107   4.995   9.240 -2.1027 -0.0925  0.9945
   87SAPS  H16S 8349   3.141   4.927   9.400 -1.7661  0.8664 -0.9727
   87SAPS  C217 8350   3.194   4.801   9.229  0.1349  0.1837 -0.2769
   87SAPS  H17R 8351   3.281   4.750   9.276  1.3160  0.4103 -2.1494
   87SAPS  H17S 8352   3.225   4.829   9.126  0.9035  0.4750  0.0241
   87SAPS  C218 8353   3.060   4.722   9.217 -0.3306 -0.3193  0.7388
   87SAPS  H18R 8354   3.071   4.645   9.138 -1.3021 -1.4916  1.7437
   87SAPS  H18S 8355   2.984   4.787   9.169 -0.7434 -0.6588  0.9287
   87SAPS  C219 8356   3.017   4.664   9.351  0.1032  0.0850 -0.3928
   87SAPS  H19R 8357   3.024   4.758   9.410 -0.8055  1.3361 -2.2030
   87SAPS  H19S 8358   3.093   4.594   9.391  2.3515  2.2154 -0.7925
   87SAPS  C220 8359   2.875   4.606   9.353  0.0595  0.3266  0.2785
   87SAPS  H20R 8360   2.874   4.510   9.298 -0.8023  1.1120 -1.1320
   87SAPS  H20S 8361   2.812   4.663   9.280  0.2948 -2.6069 -2.3457
   87SAPS  H20T 8362   2.829   4.604   9.454  0.5027 -0.3119  0.4622
   87SAPS   C33 8363   3.217   5.316  10.204  0.2196  0.0859  0.1099
   87SAPS   H3X 8364   3.283   5.367  10.277  1.7928 -0.0203 -1.2240
   87SAPS   H3Y 8365   3.113   5.336  10.236  0.0917  0.3157 -0.4542
   87SAPS   C34 8366   3.264   5.371  10.069  0.2678  0.0853  0.3781
   87SAPS   H4X 8367   3.367   5.339  10.042  0.0253 -0.6152  0.2761
   87SAPS   H4Y 8368   3.275   5.482  10.074  0.6206 -0.0347  2.8813
   87SAPS   C35 8369   3.172   5.322   9.959 -0.6199  0.6960  0.2662
   87SAPS   H5X 8370   3.067   5.355   9.978 -0.9267  0.0810 -0.3517
   87SAPS   H5Y 8371   3.155   5.213   9.954 -0.8590  0.7674 -0.5486
   87SAPS   C36 8372   3.220   5.386   9.825 -0.0990 -0.2492 -0.6676
   87SAPS   H6X 8373   3.323   5.354   9.795  0.4074  0.0617  0.7037
   87SAPS   H6Y 8374   3.228   5.496   9.825  0.6497 -0.2964 -1.7350
   87SAPS   C37 8375   3.120   5.352   9.711 -0.0833 -0.1220  0.1141
   87SAPS   H7X 8376   3.031   5.414   9.737 -0.6438 -0.4414 -0.9793
   87SAPS   H7Y 8377   3.088   5.247   9.728  2.2469 -0.7122  0.9273
   87SAPS   C38 8378   3.171   5.383   9.571  0.3856 -0.3610  0.2192
   87SAPS   H8X 8379   3.251   5.312   9.541 -0.9729 -1.9450  0.2709
   87SAPS   H8Y 8380   3.217   5.484   9.573 -0.7061  0.1730 -0.8887
   87SAPS   C39 8381   3.062   5.392   9.465  0.4244  0.7122  0.5556
   87SAPS   H9X 8382   2.985   5.468   9.493 -0.7191 -0.7707  1.5579
   87SAPS   H9Y 8383   3.007   5.296   9.459 -1.2789  1.7410 -1.0924
   87SAPS  C310 8384   3.115   5.443   9.331 -0.4485 -0.0234 -0.1595
   87SAPS  H10X 8385   3.178   5.534   9.341 -0.7447 -0.0129  1.7871
   87SAPS  H10Y 8386   3.029   5.471   9.266  1.5020  1.2902 -2.2420
   87SAPS  C311 8387   3.188   5.341   9.244  0.0859 -0.2759  0.0442
   87SAPS  H11X 8388   3.112   5.260   9.238 -0.1985 -0.1038  1.2158
   87SAPS  H11Y 8389   3.276   5.294   9.293  1.8392  1.8056 -1.0163
   87SAPS  C312 8390   3.203   5.396   9.102 -0.5023 -0.2426 -0.0910
   87SAPS  H12X 8391   3.221   5.505   9.106 -1.3235 -0.1364  1.1566
   87SAPS  H12Y 8392   3.107   5.379   9.048  0.9942 -1.9396 -2.2837
   87SAPS  C313 8393   3.322   5.318   9.032 -0.0065 -0.0505 -0.1852
   87SAPS  H13X 8394   3.294   5.211   9.027  2.0698 -0.5708 -1.2100
   87SAPS  H13Y 8395   3.419   5.334   9.082  0.2617 -1.0535 -0.3836
   87SAPS  C314 8396   3.351   5.371   8.892 -0.1947  0.3102  0.5095
   87SAPS  H14X 8397   3.441   5.316   8.859  0.2953 -0.0354  2.3368
   87SAPS  H14Y 8398   3.383   5.478   8.889 -0.1517  0.4266  3.2110
   87SAPS  C315 8399   3.241   5.339   8.787  0.5872 -0.1528 -0.4232
   87SAPS  H15X 8400   3.158   5.412   8.799 -1.0938 -2.4136  2.6125
   87SAPS  H15Y 8401   3.191   5.247   8.826 -1.6910  1.8489  1.5805
   87SAPS  C316 8402   3.298   5.320   8.651 -0.1403 -0.1986  0.4607
   87SAPS  H16X 8403   3.389   5.256   8.652 -0.3850 -0.5462  1.4723
   87SAPS  H16Y 8404   3.333   5.415   8.605 -0.5560 -2.1722 -4.1883
   87SAPS  C317 8405   3.198   5.257   8.553  0.8369  0.8421  0.5498
   87SAPS  H17X 8406   3.133   5.345   8.533 -1.8856 -1.3106 -0.3619
   87SAPS  H17Y 8407   3.142   5.179   8.607 -0.9930  0.4985 -1.7491
   87SAPS  C318 8408   3.246   5.187   8.425 -0.2585  0.4997 -0.3846
   87SAPS  H18X 8409   3.296   5.254   8.351 -1.6928  0.7269 -1.1624
   87SAPS  H18Y 8410   3.164   5.139   8.367 -0.3271 -0.7366  0.7224
   87SAPS  H18Z 8411   3.321   5.111   8.453 -0.8287  0.7514  1.8747
   88SAPS     N 8412   5.579   3.514  10.707 -0.3933 -0.6602  0.2784
   88SAPS   HN1 8413   5.583   3.436  10.776 -1.2021 -2.0832 -1.2357
   88SAPS   HN2 8414   5.518   3.480  10.630 -2.8716 -1.0515  2.3213
   88SAPS   HN3 8415   5.674   3.528  10.668 -0.0631  0.8273  1.5534
   88SAPS   C12 8416   5.525   3.632  10.777  0.1719  0.6178  0.8633
   88SAPS  H12A 8417   5.544   3.718  10.714 -0.4111 -0.7840 -1.2821
   88SAPS   C13 8418   5.374   3.621  10.808 -0.7713  0.7300  0.3193
   88SAPS  O13A 8419   5.300   3.523  10.788  0.0421 -0.2266 -0.5749
   88SAPS  O13B 8420   5.330   3.718  10.876 -0.2217  0.2767  0.1737
   88SAPS   C11 8421   5.610   3.644  10.916  0.1639 -0.0697 -0.4296
   88SAPS  H11A 8422   5.573   3.561  10.981  2.5935  0.8091  2.2118
   88SAPS  H11B 8423   5.580   3.739  10.965  0.5083 -0.8365  1.3041
   88SAPS     P 8424   5.843   3.748  10.849 -0.1459  0.1233  0.4043
   88SAPS   O13 8425   5.828   3.860  10.942  0.4235 -0.2851  0.6548
   88SAPS   O14 8426   5.979   3.688  10.827  1.0036  0.2661 -0.4388
   88SAPS   O12 8427   5.755   3.627  10.899 -0.2374 -0.7993  0.2906
   88SAPS   O11 8428   5.779   3.784  10.708  0.2002  0.2375 -0.3380
   88SAPS    C1 8429   5.847   3.889  10.635 -0.2730 -0.5191  0.3934
   88SAPS    HA 8430   5.775   3.970  10.613  0.2698 -0.6120 -1.8008
   88SAPS    HB 8431   5.938   3.940  10.674 -1.1139  1.3698 -0.0858
   88SAPS    C2 8432   5.901   3.837  10.498 -0.2187 -1.0556 -0.5507
   88SAPS    HS 8433   5.923   3.928  10.439 -0.9931 -1.7612 -1.9692
   88SAPS   O21 8434   5.807   3.753  10.435 -0.3748 -0.0988 -0.8915
   88SAPS   C21 8435   5.693   3.802  10.404  0.1524  0.3741 -0.2710
   88SAPS   O22 8436   5.648   3.915  10.419 -0.2138  0.6446 -0.3608
   88SAPS   C22 8437   5.614   3.693  10.333 -0.0515 -1.6053 -0.8134
   88SAPS   H2R 8438   5.677   3.629  10.268  1.3518  0.6511 -1.7519
   88SAPS   H2S 8439   5.562   3.634  10.411 -0.0578  1.4492  1.5848
   88SAPS    C3 8440   6.042   3.782  10.508  0.1652 -0.1796  0.3929
   88SAPS    HX 8441   6.042   3.712  10.595 -2.4686  1.0480  1.4244
   88SAPS    HY 8442   6.104   3.871  10.533 -1.1520  0.6621  0.7113
   88SAPS   O31 8443   6.097   3.725  10.393 -0.2944 -0.1006  0.1248
   88SAPS   C31 8444   6.096   3.600  10.383  0.2046 -0.3107  0.6244
   88SAPS   O32 8445   6.050   3.526  10.471  0.1763 -0.1553 -0.0913
   88SAPS   C32 8446   6.169   3.565  10.260 -0.0020  0.2578 -0.4809
   88SAPS   H2X 8447   6.276   3.587  10.281 -0.3571  1.8464 -0.2862
   88SAPS   H2Y 8448   6.126   3.632  10.182 -0.8135 -0.0866 -0.3319
   88SAPS   C23 8449   5.497   3.761  10.252 -0.2225  0.7886 -0.3800
   88SAPS   H3R 8450   5.540   3.797  10.157 -0.1507  0.7328 -0.3687
   88SAPS   H3S 8451   5.450   3.839  10.317  0.4218  1.8552 -1.1891
   88SAPS   C24 8452   5.391   3.651  10.211  0.7534 -0.2127  0.0038
   88SAPS   H4R 8453   5.287   3.688  10.194  0.2076 -0.5271  2.4126
   88SAPS   H4S 8454   5.376   3.589  10.302 -0.3869  0.0379 -0.0014
   88SAPS   C25 8455   5.437   3.554  10.100  0.4915  0.1501 -0.0649
   88SAPS   H5R 8456   5.479   3.460  10.136  1.8496  1.0377  0.7039
   88SAPS   C26 8457   5.434   3.574   9.963 -0.7047  0.0456  0.3365
   88SAPS   H6R 8458   5.462   3.491   9.897  1.5258  0.3524  0.8612
   88SAPS   C27 8459   5.380   3.696   9.889  0.1795 -0.7915  0.0149
   88SAPS   H7R 8460   5.463   3.758   9.849 -1.5887  1.3310 -0.5082
   88SAPS   H7S 8461   5.328   3.765   9.960  0.3118 -1.1588  0.4668
   88SAPS   C28 8462   5.266   3.681   9.789  0.1344 -0.5682 -0.4661
   88SAPS   H8R 8463   5.163   3.697   9.826  0.2998  0.1802 -0.3352
   88SAPS   C29 8464   5.271   3.655   9.659 -0.0705 -0.4441 -0.0885
   88SAPS   H9R 8465   5.178   3.641   9.602  0.6221 -1.5472 -0.9887
   88SAPS  C210 8466   5.396   3.638   9.575 -0.8026 -0.4794  0.1334
   88SAPS  H10R 8467   5.411   3.530   9.556  0.7429  0.1269 -2.4399
   88SAPS  H10S 8468   5.484   3.668   9.635 -0.1102 -1.2687 -0.4919
   88SAPS  C211 8469   5.392   3.714   9.440  0.4814  0.6319  0.3485
   88SAPS  H11R 8470   5.402   3.823   9.453 -2.4528  0.8536  1.2247
   88SAPS  C212 8471   5.391   3.662   9.316 -0.4852  1.5008  0.0776
   88SAPS  H12R 8472   5.372   3.725   9.227  0.2037 -0.2031 -1.3076
   88SAPS  C213 8473   5.396   3.514   9.285  0.4863  0.0312 -0.6403
   88SAPS  H13R 8474   5.456   3.457   9.359 -1.2260 -1.3346 -0.2599
   88SAPS  H13S 8475   5.452   3.506   9.190  0.6192  0.1661 -0.5736
   88SAPS  C214 8476   5.258   3.439   9.261  0.0478 -0.0037  0.7283
   88SAPS  H14R 8477   5.209   3.408   9.355 -1.5014  0.4269  0.0899
   88SAPS  C215 8478   5.196   3.420   9.143  0.0406  0.1929  0.0251
   88SAPS  H15R 8479   5.107   3.357   9.141  1.3891 -1.7701  0.4044
   88SAPS  C216 8480   5.240   3.454   9.006 -0.5568  1.3341  0.5473
   88SAPS  H16R 8481   5.215   3.372   8.934  0.4501  1.9837 -0.5602
   88SAPS  H16S 8482   5.349   3.475   9.006 -0.5841  1.5423 -0.7168
   88SAPS  C217 8483   5.161   3.574   8.955 -0.5570 -0.9961 -0.4691
   88SAPS  H17R 8484   5.209   3.621   8.867 -0.6198  0.1408  0.0896
   88SAPS  H17S 8485   5.140   3.651   9.032 -2.6493 -0.5916 -1.4174
   88SAPS  C218 8486   5.024   3.542   8.900 -0.2808  0.2830 -0.5461
   88SAPS  H18R 8487   4.955   3.507   8.980  0.1345  1.0127  0.1329
   88SAPS  H18S 8488   5.045   3.448   8.843  1.2810  1.1241 -1.3764
   88SAPS  C219 8489   4.955   3.634   8.802  1.3378  0.3432 -0.3703
   88SAPS  H19R 8490   4.879   3.578   8.745  0.3164  0.4860  0.8421
   88SAPS  H19S 8491   5.032   3.666   8.728  0.1014  0.8010 -1.4642
   88SAPS  C220 8492   4.880   3.759   8.857  0.4842 -0.6954 -0.8197
   88SAPS  H20R 8493   4.960   3.803   8.921 -1.2418  1.4215 -0.0513
   88SAPS  H20S 8494   4.795   3.753   8.929  0.7574 -1.1677 -0.5354
   88SAPS  H20T 8495   4.839   3.829   8.782  1.5843 -0.6896 -1.4172
   88SAPS   C33 8496   6.145   3.417  10.218  0.3947 -0.0631  0.0922
   88SAPS   H3X 8497   6.036   3.416  10.201  0.3293  0.6513  0.4186
   88SAPS   H3Y 8498   6.176   3.348  10.300 -1.7256  1.0938  1.9398
   88SAPS   C34 8499   6.217   3.383  10.082 -0.0560  0.4621  0.0351
   88SAPS   H4X 8500   6.326   3.407  10.088 -0.4501  2.6561 -1.3385
   88SAPS   H4Y 8501   6.185   3.453  10.002  0.2695  0.4172 -0.1372
   88SAPS   C35 8502   6.204   3.232  10.052 -0.6438  0.3648 -0.1666
   88SAPS   H5X 8503   6.096   3.209  10.068  0.0412 -1.6719  1.6904
   88SAPS   H5Y 8504   6.257   3.175  10.131  2.2425  1.5812 -1.1463
   88SAPS   C36 8505   6.248   3.188   9.912 -0.0992  0.4469  0.1784
   88SAPS   H6X 8506   6.277   3.082   9.928  0.7275  0.9934  2.7041
   88SAPS   H6Y 8507   6.344   3.231   9.875 -0.6604  1.5274 -0.0673
   88SAPS   C37 8508   6.141   3.194   9.801  0.0478  0.1078 -0.1972
   88SAPS   H7X 8509   6.115   3.297   9.767 -0.0550  0.4069  0.7607
   88SAPS   H7Y 8510   6.046   3.150   9.839  1.3127 -3.4783 -1.0727
   88SAPS   C38 8511   6.181   3.130   9.669 -0.4655 -0.2642 -0.2057
   88SAPS   H8X 8512   6.216   3.027   9.689  1.1619  0.4635  0.8479
   88SAPS   H8Y 8513   6.268   3.182   9.623  0.8694 -1.4813  0.8828
   88SAPS   C39 8514   6.063   3.127   9.570  0.0758 -0.6625  0.2867
   88SAPS   H9X 8515   6.017   3.226   9.552 -1.7002 -1.2789  1.3150
   88SAPS   H9Y 8516   5.988   3.070   9.628 -0.3120 -1.8098 -1.3066
   88SAPS  C310 8517   6.107   3.072   9.433 -0.2169  0.1137  1.2342
   88SAPS  H10X 8518   6.163   2.978   9.453  4.7310  1.2711 -5.4700
   88SAPS  H10Y 8519   6.171   3.143   9.377  1.3086 -0.7036  1.9119
   88SAPS  C311 8520   5.988   3.023   9.336  0.1504  0.3577  0.1916
   88SAPS  H11X 8521   5.918   3.109   9.335  1.0990  1.1793  2.1362
   88SAPS  H11Y 8522   5.928   2.936   9.370 -1.5471  1.1313 -0.7633
   88SAPS  C312 8523   6.011   2.996   9.184  0.1672  0.3417 -0.1733
   88SAPS  H12X 8524   6.062   3.087   9.145  1.2984  0.5868  1.8349
   88SAPS  H12Y 8525   5.916   2.982   9.127  0.2026 -2.5256  0.3867
   88SAPS  C313 8526   6.089   2.876   9.154  0.0794 -0.3357 -0.6731
   88SAPS  H13X 8527   6.166   2.865   9.233 -0.3292 -2.2126 -0.4899
   88SAPS  H13Y 8528   6.138   2.891   9.056  0.2713  0.6875 -0.4192
   88SAPS  C314 8529   6.010   2.741   9.138  0.1971 -0.1802  0.7664
   88SAPS  H14X 8530   5.938   2.760   9.055  1.6054  0.6558 -0.2748
   88SAPS  H14Y 8531   5.956   2.735   9.235 -1.3552  0.6664 -0.0182
   88SAPS  C315 8532   6.105   2.625   9.110 -0.3014 -0.5581  0.1365
   88SAPS  H15X 8533   6.052   2.530   9.132  1.5250 -1.7989 -0.6835
   88SAPS  H15Y 8534   6.191   2.616   9.180 -0.7448 -1.5979  0.5608
   88SAPS  C316 8535   6.163   2.623   8.969 -0.7562  0.0528  0.5984
   88SAPS  H16X 8536   6.247   2.552   8.975 -0.0382  0.5871 -2.2543
   88SAPS  H16Y 8537   6.199   2.725   8.943 -0.4525 -0.5296 -1.2973
   88SAPS  C317 8538   6.054   2.588   8.860  1.0146 -0.1321  0.5440
   88SAPS  H17X 8539   5.973   2.663   8.874 -0.0638 -1.3166  0.6693
   88SAPS  H17Y 8540   6.027   2.483   8.884 -0.4593  0.4456  1.4547
   88SAPS  C318 8541   6.096   2.589   8.714 -0.2774  1.2681  1.4442
   88SAPS  H18X 8542   6.005   2.585   8.650 -0.0550  1.1414  1.1384
   88SAPS  H18Y 8543   6.167   2.508   8.688 -2.9224 -0.5943 -0.2304
   88SAPS  H18Z 8544   6.153   2.684   8.703 -1.2073  1.6502 -0.2540
   89SAPS     N 8545   5.765   5.812  10.786  0.1160  0.5073 -0.3208
   89SAPS   HN1 8546   5.761   5.910  10.820 -1.5660 -0.3702  2.2000
   89SAPS   HN2 8547   5.863   5.778  10.778 -0.6952 -1.7400 -1.1546
   89SAPS   HN3 8548   5.724   5.795  10.693  0.5718  0.3259 -0.4911
   89SAPS   C12 8549   5.672   5.732  10.878  0.0834  0.3893 -0.3487
   89SAPS  H12A 8550   5.628   5.651  10.822 -0.6680  0.2421  0.4561
   89SAPS   C13 8551   5.754   5.683  11.006 -0.3469  0.1836  0.3550
   89SAPS  O13A 8552   5.879   5.707  11.024 -0.1098  0.4311 -0.1321
   89SAPS  O13B 8553   5.686   5.629  11.094 -0.3178 -0.1763  0.2663
   89SAPS   C11 8554   5.553   5.824  10.918 -0.0957  0.0008 -0.1036
   89SAPS  H11A 8555   5.587   5.906  10.986 -0.6364 -0.5319  0.8111
   89SAPS  H11B 8556   5.476   5.766  10.973 -2.5070  2.2889 -0.9921
   89SAPS     P 8557   5.365   5.978  10.814  0.1278  0.1950 -0.0514
   89SAPS   O13 8558   5.281   5.919  10.924  0.8602 -0.1242  0.0409
   89SAPS   O14 8559   5.396   6.116  10.822 -0.2274  0.1905  0.6009
   89SAPS   O12 8560   5.498   5.893  10.809 -0.4398  0.1393  0.2371
   89SAPS   O11 8561   5.288   5.939  10.682 -0.4796 -0.0203 -0.5758
   89SAPS    C1 8562   5.361   5.901  10.567 -0.2024 -0.1114 -0.2783
   89SAPS    HA 8563   5.469   5.924  10.578  0.8902 -4.5636 -0.6358
   89SAPS    HB 8564   5.338   5.794  10.548 -3.4600  0.2186  1.4447
   89SAPS    C2 8565   5.307   5.979  10.448  0.1374  0.0065  0.4569
   89SAPS    HS 8566   5.298   6.087  10.473 -1.1080  0.1691 -0.6774
   89SAPS   O21 8567   5.176   5.918  10.421  0.0307  0.0160  0.0885
   89SAPS   C21 8568   5.072   6.001  10.418  0.0326  0.4440 -0.0408
   89SAPS   O22 8569   5.073   6.125  10.419 -0.5302  0.2633  0.2132
   89SAPS   C22 8570   4.945   5.918  10.399 -0.1212 -0.2183 -0.3241
   89SAPS   H2R 8571   4.964   5.809  10.414 -0.4629 -0.2741 -0.2889
   89SAPS   H2S 8572   4.880   5.952  10.482  3.0838  1.6043  1.5132
   89SAPS    C3 8573   5.395   5.964  10.316  0.8055 -0.7111 -0.0964
   89SAPS    HX 8574   5.385   5.858  10.286 -1.7107 -1.7827  3.9926
   89SAPS    HY 8575   5.504   5.966  10.336  0.6821 -0.7073  0.6030
   89SAPS   O31 8576   5.363   6.069  10.220  0.2944  0.0294 -0.1141
   89SAPS   C31 8577   5.421   6.185  10.230  0.2333  0.0555  0.4866
   89SAPS   O32 8578   5.489   6.230  10.321  0.0062 -0.2867 -0.4107
   89SAPS   C32 8579   5.383   6.273  10.111  0.7626  0.7526  0.7018
   89SAPS   H2X 8580   5.276   6.302  10.114 -0.1255 -2.2187 -0.5138
   89SAPS   H2Y 8581   5.392   6.216  10.016 -1.2308  0.8753  0.4207
   89SAPS   C23 8582   4.873   5.940  10.255  1.0625 -0.1978  0.0103
   89SAPS   H3R 8583   4.932   5.885  10.179 -0.2253 -2.6375  0.7182
   89SAPS   H3S 8584   4.856   6.043  10.216  1.3044  0.5044  1.7052
   89SAPS   C24 8585   4.739   5.875  10.254 -0.6534 -0.5171  0.3588
   89SAPS   H4R 8586   4.744   5.784  10.317  2.3626  0.4050  1.4942
   89SAPS   H4S 8587   4.727   5.837  10.150  2.1931 -0.1932 -0.1146
   89SAPS   C25 8588   4.630   5.972  10.298  0.0922  0.0348 -0.1214
   89SAPS   H5R 8589   4.650   6.014  10.398  0.9346  1.8865 -1.0460
   89SAPS   C26 8590   4.526   6.015  10.230 -0.0590  0.1156 -0.6774
   89SAPS   H6R 8591   4.460   6.094  10.268  1.1381  1.4809 -1.3758
   89SAPS   C27 8592   4.502   5.963  10.090 -0.9665 -0.2559 -0.5791
   89SAPS   H7R 8593   4.393   5.954  10.067 -1.3712 -1.0433  1.4955
   89SAPS   H7S 8594   4.520   5.853  10.087 -0.1953 -0.2403  2.4493
   89SAPS   C28 8595   4.583   6.044   9.998  0.6480  0.2346  0.4316
   89SAPS   H8R 8596   4.602   6.149  10.025 -1.2844  0.1613  2.1955
   89SAPS   C29 8597   4.652   6.002   9.886  0.2957 -0.0302 -0.8601
   89SAPS   H9R 8598   4.717   6.072   9.832 -0.7577  2.5848  1.1110
   89SAPS  C210 8599   4.646   5.859   9.844 -0.3360 -0.1013  0.0599
   89SAPS  H10R 8600   4.572   5.875   9.763  1.0538  0.0557 -1.1973
   89SAPS  H10S 8601   4.609   5.783   9.916 -0.3956 -3.0866 -2.9879
   89SAPS  C211 8602   4.781   5.815   9.790  1.1312 -0.3593  0.3107
   89SAPS  H11R 8603   4.854   5.791   9.868  1.8923  0.4771 -0.1267
   89SAPS  C212 8604   4.817   5.808   9.662 -0.3758 -0.9105 -0.5925
   89SAPS  H12R 8605   4.923   5.792   9.637 -0.3758 -1.5768 -0.1556
   89SAPS  C213 8606   4.747   5.830   9.529  0.2773  0.4748  0.1057
   89SAPS  H13R 8607   4.650   5.867   9.569  0.2997 -0.0056  0.5961
   89SAPS  H13S 8608   4.721   5.732   9.485  0.5080 -1.6410  4.4908
   89SAPS  C214 8609   4.804   5.933   9.433  0.1000 -0.2850 -0.2060
   89SAPS  H14R 8610   4.839   6.023   9.485 -1.0518 -0.5353  1.0597
   89SAPS  C215 8611   4.799   5.945   9.301 -0.1744 -0.3620  0.3149
   89SAPS  H15R 8612   4.865   6.021   9.256 -1.2914 -0.2768 -1.2158
   89SAPS  C216 8613   4.742   5.838   9.209 -0.7347  0.3780 -0.2203
   89SAPS  H16R 8614   4.634   5.820   9.230 -0.1344 -1.8246  1.1437
   89SAPS  H16S 8615   4.808   5.749   9.213  0.4213  1.0373 -3.5509
   89SAPS  C217 8616   4.740   5.865   9.057 -0.3092  0.2667  0.3945
   89SAPS  H17R 8617   4.692   5.963   9.037 -0.5402  0.2174  0.6944
   89SAPS  H17S 8618   4.668   5.799   9.004  0.4947 -0.2088 -0.1008
   89SAPS  C218 8619   4.873   5.852   8.982 -0.3717 -0.0255 -0.4879
   89SAPS  H18R 8620   4.900   5.745   8.989 -0.2281  0.1428  1.8058
   89SAPS  H18S 8621   4.948   5.915   9.033  2.0554 -1.2316 -2.4462
   89SAPS  C219 8622   4.886   5.884   8.836 -0.5092  0.0357 -0.1539
   89SAPS  H19R 8623   4.866   5.992   8.819  0.3191  0.4390  1.3320
   89SAPS  H19S 8624   4.808   5.822   8.787 -1.2747  0.9377 -0.0881
   89SAPS  C220 8625   5.029   5.852   8.794 -0.4146  0.0882  0.4268
   89SAPS  H20R 8626   5.056   5.912   8.704  2.5423 -3.7767 -1.3896
   89SAPS  H20S 8627   5.040   5.746   8.765 -0.4222 -0.4430  2.3433
   89SAPS  H20T 8628   5.102   5.885   8.872  0.4252 -0.7640  0.0127
   89SAPS   C33 8629   5.471   6.396  10.105 -0.0622  0.8736  0.2870
   89SAPS   H3X 8630   5.578   6.366  10.114 -0.6720 -1.3051  0.4424
   89SAPS   H3Y 8631   5.445   6.457  10.193  0.4286 -2.0772  2.5416
   89SAPS   C34 8632   5.454   6.478   9.972 -0.3269 -0.7060 -0.0645
   89SAPS   H4X 8633   5.517   6.569   9.969  0.1342 -1.0509 -1.7610
   89SAPS   H4Y 8634   5.348   6.509   9.978  0.0221  0.2730  1.1793
   89SAPS   C35 8635   5.478   6.406   9.843  0.7137 -0.1055 -0.3312
   89SAPS   H5X 8636   5.409   6.320   9.823 -0.9072  1.4478 -1.5909
   89SAPS   H5Y 8637   5.583   6.371   9.840  0.4360 -1.0710  0.9144
   89SAPS   C36 8638   5.438   6.489   9.711  0.6091 -0.3500 -0.1803
   89SAPS   H6X 8639   5.478   6.592   9.721  0.7019 -0.2027 -1.8974
   89SAPS   H6Y 8640   5.330   6.502   9.693  0.0507 -2.0552  1.7438
   89SAPS   C37 8641   5.498   6.432   9.582  0.5400  0.2660 -0.0430
   89SAPS   H7X 8642   5.458   6.331   9.560  0.6433  0.9256 -3.4931
   89SAPS   H7Y 8643   5.607   6.420   9.600  0.5496  0.7789  0.2497
   89SAPS   C38 8644   5.456   6.507   9.459  0.5700  0.2203  0.6235
   89SAPS   H8X 8645   5.503   6.608   9.457  0.7275  0.1411  0.3081
   89SAPS   H8Y 8646   5.348   6.534   9.465  0.1806 -0.7593 -1.6153
   89SAPS   C39 8647   5.459   6.432   9.324 -1.0548 -0.0779 -0.2631
   89SAPS   H9X 8648   5.379   6.355   9.327 -3.5577  2.4201 -0.4275
   89SAPS   H9Y 8649   5.552   6.372   9.314 -1.1711 -0.3856  0.4704
   89SAPS  C310 8650   5.446   6.515   9.189  0.1787 -0.0353 -0.1087
   89SAPS  H10X 8651   5.453   6.444   9.104 -4.0759 -0.6665 -0.0470
   89SAPS  H10Y 8652   5.539   6.575   9.180 -0.7467  1.0948 -2.7335
   89SAPS  C311 8653   5.321   6.597   9.171  0.2644 -0.2248 -0.0859
   89SAPS  H11X 8654   5.312   6.647   9.270 -0.4973 -1.1984  0.3482
   89SAPS  H11Y 8655   5.242   6.520   9.157  2.5202 -2.7228  0.4870
   89SAPS  C312 8656   5.316   6.695   9.053  0.1158  0.4278  0.8079
   89SAPS  H12X 8657   5.416   6.743   9.048  0.6826 -0.8391 -0.3241
   89SAPS  H12Y 8658   5.251   6.784   9.068 -0.9327 -0.2165  0.1026
   89SAPS  C313 8659   5.277   6.636   8.923 -0.4990 -0.5988  0.4836
   89SAPS  H13X 8660   5.180   6.584   8.934 -0.4347 -1.0127 -0.9139
   89SAPS  H13Y 8661   5.340   6.547   8.900  0.2119  0.2733 -1.0070
   89SAPS  C314 8662   5.304   6.738   8.809 -0.3583 -1.0864  0.0248
   89SAPS  H14X 8663   5.301   6.840   8.853 -0.2031 -1.6876  1.4540
   89SAPS  H14Y 8664   5.223   6.722   8.735 -1.0083 -0.4165  0.5842
   89SAPS  C315 8665   5.439   6.721   8.741 -0.1233 -0.2259  0.3180
   89SAPS  H15X 8666   5.447   6.635   8.672  0.4982  0.5593 -0.6132
   89SAPS  H15Y 8667   5.513   6.714   8.823 -0.3695  1.8961  0.7720
   89SAPS  C316 8668   5.467   6.848   8.661 -0.1556  0.4223 -0.6726
   89SAPS  H16X 8669   5.442   6.925   8.737 -1.4075  0.2650 -0.9275
   89SAPS  H16Y 8670   5.390   6.852   8.581 -2.9095 -0.9901  1.8464
   89SAPS  C317 8671   5.607   6.849   8.601 -0.0144 -0.4076 -1.1619
   89SAPS  H17X 8672   5.634   6.765   8.534  0.8885 -0.9180 -0.1721
   89SAPS  H17Y 8673   5.677   6.846   8.687  1.6927 -1.4415 -2.5517
   89SAPS  C318 8674   5.640   6.984   8.524  0.4455 -0.1762 -0.0869
   89SAPS  H18X 8675   5.750   6.985   8.508  0.5935  0.4418  0.9831
   89SAPS  H18Y 8676   5.591   7.069   8.576 -1.8582 -1.3479 -0.2703
   89SAPS  H18Z 8677   5.591   6.970   8.425  1.0510  0.9477 -0.5470
   90SAPS     N 8678   1.209   6.755  10.856 -1.3180 -0.2216  0.0393
   90SAPS   HN1 8679   1.305   6.764  10.894  0.0666 -2.9422 -2.5508
   90SAPS   HN2 8680   1.216   6.672  10.793  0.0658  0.0886 -0.2254
   90SAPS   HN3 8681   1.186   6.833  10.791 -0.6606  0.6896  0.8971
   90SAPS   C12 8682   1.092   6.729  10.953  0.4406 -0.7891 -0.1292
   90SAPS  H12A 8683   1.118   6.649  11.021  1.9040 -0.9100 -0.7936
   90SAPS   C13 8684   1.057   6.864  11.026  0.0726  0.5464  0.0316
   90SAPS  O13A 8685   1.132   6.966  11.020  0.1287  0.3309  0.3353
   90SAPS  O13B 8686   0.978   6.851  11.124  0.4038  0.2700 -0.4889
   90SAPS   C11 8687   0.968   6.696  10.864 -0.2257  0.6185 -0.1518
   90SAPS  H11A 8688   0.955   6.766  10.778  0.2555  1.1029  0.1713
   90SAPS  H11B 8689   0.876   6.714  10.924  0.4418  1.0602  0.7318
   90SAPS     P 8690   0.862   6.513  10.716  0.0078 -0.1970  0.2902
   90SAPS   O13 8691   0.902   6.379  10.657 -0.1138  0.0083  0.1278
   90SAPS   O14 8692   0.733   6.510  10.786 -0.3975 -0.1003 -0.5047
   90SAPS   O12 8693   0.971   6.564  10.826 -0.1194 -0.1514  0.1629
   90SAPS   O11 8694   0.866   6.624  10.603 -0.4601 -0.0330  0.0110
   90SAPS    C1 8695   0.943   6.614  10.486  0.0420 -0.1420  0.1170
   90SAPS    HA 8696   0.962   6.716  10.446 -1.7283 -0.6307 -2.0486
   90SAPS    HB 8697   1.045   6.574  10.505 -0.1783  0.4442  2.6992
   90SAPS    C2 8698   0.872   6.532  10.374  0.1399  0.0606  0.3689
   90SAPS    HS 8699   0.839   6.445  10.435  2.7597 -0.0860  1.6659
   90SAPS   O21 8700   0.977   6.496  10.280  0.5876 -0.2475  0.1102
   90SAPS   C21 8701   0.947   6.378  10.226  0.7415 -0.0131 -0.5573
   90SAPS   O22 8702   0.859   6.301  10.265 -0.4429 -0.2932 -0.1045
   90SAPS   C22 8703   1.038   6.360  10.102  0.6549 -0.1812 -0.2049
   90SAPS   H2R 8704   1.012   6.443  10.033 -1.1732  0.0539  0.7224
   90SAPS   H2S 8705   1.140   6.353  10.146 -0.3564  0.5217  2.3727
   90SAPS    C3 8706   0.759   6.608  10.304  0.4005 -0.1779 -0.6231
   90SAPS    HX 8707   0.795   6.705  10.264  1.8446 -0.7608 -0.7762
   90SAPS    HY 8708   0.685   6.621  10.385 -0.3345  0.1085 -1.3381
   90SAPS   O31 8709   0.705   6.523  10.198 -0.4819 -0.1515  0.3591
   90SAPS   C31 8710   0.590   6.572  10.141 -0.4658 -0.1489  0.1266
   90SAPS   O32 8711   0.539   6.674  10.180  0.6663 -0.1451 -0.2148
   90SAPS   C32 8712   0.547   6.490  10.025  0.5262 -0.2623 -0.5816
   90SAPS   H2X 8713   0.444   6.450  10.040  0.0580  1.6125  1.4465
   90SAPS   H2Y 8714   0.603   6.394  10.020 -0.0420 -0.5549 -1.3417
   90SAPS   C23 8715   0.993   6.230  10.027 -0.5862  0.1863  0.0783
   90SAPS   H3R 8716   0.988   6.148  10.101 -0.9190 -0.2764 -0.4560
   90SAPS   H3S 8717   1.059   6.207   9.941  1.9275  0.0904  1.9631
   90SAPS   C24 8718   0.853   6.247   9.960  0.0111  0.1290 -0.9363
   90SAPS   H4R 8719   0.854   6.331   9.888 -0.5929 -1.3008 -2.6218
   90SAPS   H4S 8720   0.785   6.286  10.040  1.8890 -1.1300  1.3564
   90SAPS   C25 8721   0.795   6.118   9.909 -0.2310  0.0621 -0.3029
   90SAPS   H5R 8722   0.779   6.034   9.979  1.4683 -0.6766 -0.7692
   90SAPS   C26 8723   0.755   6.096   9.780  0.9719  0.4991  0.9261
   90SAPS   H6R 8724   0.720   5.998   9.745  2.4334  0.9455 -1.8612
   90SAPS   C27 8725   0.753   6.196   9.665  0.4978 -0.1252  0.5709
   90SAPS   H7R 8726   0.706   6.291   9.700 -0.0718 -0.2322  0.1057
   90SAPS   H7S 8727   0.677   6.155   9.595  1.6279  1.8116 -1.8593
   90SAPS   C28 8728   0.891   6.190   9.615  0.5376 -0.4869 -0.1578
   90SAPS   H8R 8729   0.972   6.179   9.689 -0.4602 -0.3884  0.9602
   90SAPS   C29 8730   0.930   6.199   9.487  0.6807  0.6819 -0.1303
   90SAPS   H9R 8731   1.038   6.204   9.464  0.8079  0.2310  0.3809
   90SAPS  C210 8732   0.848   6.225   9.362 -0.3522 -0.1233 -0.0560
   90SAPS  H10R 8733   0.889   6.318   9.316  0.1670  0.2059  1.0534
   90SAPS  H10S 8734   0.742   6.244   9.388 -0.9173 -1.0278 -1.6132
   90SAPS  C211 8735   0.861   6.120   9.260  0.1035 -0.4416 -0.5139
   90SAPS  H11R 8736   0.858   6.021   9.307 -1.5366 -0.8931 -1.5202
   90SAPS  C212 8737   0.897   6.138   9.132  0.3874  0.5703  0.0807
   90SAPS  H12R 8738   0.900   6.047   9.070  2.9042  0.9462 -0.4389
   90SAPS  C213 8739   0.929   6.269   9.058  0.5475 -0.2448 -0.5847
   90SAPS  H13R 8740   0.905   6.357   9.121  0.3284 -2.0549  1.9107
   90SAPS  H13S 8741   0.867   6.281   8.966 -1.4033  1.4781  0.9028
   90SAPS  C214 8742   1.077   6.282   9.045 -0.4221  0.1860 -0.0216
   90SAPS  H14R 8743   1.124   6.313   9.139 -2.1304  1.5463  0.4052
   90SAPS  C215 8744   1.146   6.260   8.933 -0.4999 -0.1055 -0.8549
   90SAPS  H15R 8745   1.254   6.280   8.926 -0.3216 -1.1185 -1.1098
   90SAPS  C216 8746   1.095   6.231   8.791 -0.4250  0.3094  0.1632
   90SAPS  H16R 8747   1.000   6.174   8.803  0.0214 -0.2876  0.8926
   90SAPS  H16S 8748   1.158   6.157   8.738 -1.4849 -0.4141 -0.1036
   90SAPS  C217 8749   1.079   6.364   8.719  0.0488  0.2990  0.3986
   90SAPS  H17R 8750   1.181   6.408   8.713  0.0390  0.2187 -0.4083
   90SAPS  H17S 8751   1.007   6.433   8.770 -0.7770 -0.4546  0.2569
   90SAPS  C218 8752   1.019   6.336   8.581 -0.4686  0.0178  0.0780
   90SAPS  H18R 8753   0.914   6.302   8.595  0.5279 -3.2985  0.0034
   90SAPS  H18S 8754   1.065   6.239   8.551 -2.0802 -1.4951  2.2995
   90SAPS  C219 8755   1.031   6.443   8.476 -0.2311 -0.2048 -0.3128
   90SAPS  H19R 8756   1.139   6.465   8.461 -0.3039  1.6657  1.6010
   90SAPS  H19S 8757   0.976   6.531   8.517  1.2592 -0.7739  3.0408
   90SAPS  C220 8758   0.958   6.408   8.350 -0.0372 -0.6610  1.0970
   90SAPS  H20R 8759   1.014   6.349   8.276  1.6620  3.9546 -1.5222
   90SAPS  H20S 8760   0.923   6.494   8.288  0.2958  0.5857  2.5960
   90SAPS  H20T 8761   0.871   6.346   8.381  0.2951 -1.5324  0.2915
   90SAPS   C33 8762   0.551   6.554   9.886 -0.1038  0.6840  0.4590
   90SAPS   H3X 8763   0.485   6.642   9.902 -0.3205  0.5739  0.1713
   90SAPS   H3Y 8764   0.508   6.501   9.799  2.0552 -0.9304  0.3428
   90SAPS   C34 8765   0.683   6.613   9.845 -0.2341  0.2360 -0.6740
   90SAPS   H4X 8766   0.765   6.542   9.868 -1.0338 -0.1043  1.2592
   90SAPS   H4Y 8767   0.701   6.696   9.917  0.4082  0.1393 -0.7199
   90SAPS   C35 8768   0.701   6.658   9.700  0.1739 -0.4097 -0.0877
   90SAPS   H5X 8769   0.677   6.581   9.623 -0.9360 -1.3094  1.1271
   90SAPS   H5Y 8770   0.802   6.697   9.676 -0.0486  1.0690  1.3453
   90SAPS   C36 8771   0.614   6.780   9.651 -0.3119 -0.1939  0.4850
   90SAPS   H6X 8772   0.643   6.872   9.705  1.3319  0.1134 -0.8503
   90SAPS   H6Y 8773   0.511   6.753   9.679 -0.7852  0.0758 -0.9282
   90SAPS   C37 8774   0.610   6.786   9.499  0.1016 -0.8054  0.1620
   90SAPS   H7X 8775   0.564   6.697   9.451 -1.0950 -0.9116  1.4606
   90SAPS   H7Y 8776   0.715   6.781   9.462 -0.4170 -2.2592 -1.1785
   90SAPS   C38 8777   0.533   6.914   9.452  0.2590 -0.0111 -0.1218
   90SAPS   H8X 8778   0.598   6.994   9.492  1.8271 -0.5801 -1.4868
   90SAPS   H8Y 8779   0.434   6.922   9.501  0.6319  2.0192  0.3409
   90SAPS   C39 8780   0.527   6.926   9.300  0.4518  0.6829  0.9610
   90SAPS   H9X 8781   0.510   6.822   9.262  0.4836  1.0009  0.0640
   90SAPS   H9Y 8782   0.625   6.963   9.264  0.0441 -0.7377 -1.8303
   90SAPS  C310 8783   0.421   7.027   9.248 -0.9332 -0.0214 -0.7952
   90SAPS  H10X 8784   0.437   7.128   9.291 -0.7960 -0.4845  0.2551
   90SAPS  H10Y 8785   0.318   6.991   9.271 -0.8607 -0.7816 -1.6184
   90SAPS  C311 8786   0.443   7.045   9.096 -0.5529 -0.5585  0.1514
   90SAPS  H11X 8787   0.534   7.107   9.079  0.1388 -1.1302  1.6544
   90SAPS  H11Y 8788   0.361   7.099   9.044 -2.0874 -1.8016  1.2789
   90SAPS  C312 8789   0.472   6.919   9.016  0.1096  0.1471 -0.1831
   90SAPS  H12X 8790   0.420   6.836   9.068  2.5497 -0.0961  1.9658
   90SAPS  H12Y 8791   0.576   6.888   9.039  0.1134 -0.0379 -0.4510
   90SAPS  C313 8792   0.453   6.927   8.868 -1.5822  0.3626  0.1171
   90SAPS  H13X 8793   0.536   6.881   8.810 -1.3807 -1.2860  1.6991
   90SAPS  H13Y 8794   0.444   7.034   8.837  1.7589  0.9735  1.0555
   90SAPS  C314 8795   0.323   6.864   8.827 -0.2294  0.6846 -0.6182
   90SAPS  H14X 8796   0.236   6.909   8.880 -0.1456  0.9847 -0.7337
   90SAPS  H14Y 8797   0.337   6.756   8.849 -1.6987  0.8182  1.0904
   90SAPS  C315 8798   0.300   6.879   8.678  0.1021  0.0252 -1.1980
   90SAPS  H15X 8799   0.387   6.856   8.613  0.1005  0.9537 -1.5446
   90SAPS  H15Y 8800   0.276   6.985   8.653 -1.0158  0.1515  0.3731
   90SAPS  C316 8801   0.197   6.780   8.629  0.3138  0.9117  0.0249
   90SAPS  H16X 8802   0.108   6.791   8.695  1.2016 -0.3978  1.4927
   90SAPS  H16Y 8803   0.242   6.680   8.647 -0.3609  0.5386 -0.3615
   90SAPS  C317 8804   0.154   6.811   8.485  0.1665  0.1104  0.0679
   90SAPS  H17X 8805   0.231   6.784   8.409  0.7170  2.5031 -0.2564
   90SAPS  H17Y 8806   0.123   6.916   8.467  2.2683  0.5148 -1.2778
   90SAPS  C318 8807   0.036   6.726   8.443  0.0959  0.2369 -0.0397
   90SAPS  H18X 8808   0.064   6.621   8.463  0.1041  0.2518  0.0254
   90SAPS  H18Y 8809   0.008   6.737   8.336 -0.8332 -1.1466  0.0492
   90SAPS  H18Z 8810  -0.046   6.754   8.513 -2.7064 -0.5654 -2.8517
   91SAPS     N 8811   6.160   3.853   5.647 -0.6902 -0.1996 -0.7920
   91SAPS   HN1 8812   6.206   3.944   5.628 -0.4915 -0.3107 -0.8396
   91SAPS   HN2 8813   6.159   3.800   5.558 -0.9650 -1.2786 -0.1566
   91SAPS   HN3 8814   6.070   3.884   5.689  0.1505 -1.2196  1.8662
   91SAPS   C12 8815   6.235   3.784   5.752  0.1023 -0.4986  1.0077
   91SAPS  H12A 8816   6.179   3.694   5.775 -0.3145 -0.7845 -1.0920
   91SAPS   C13 8817   6.370   3.744   5.701 -0.6908 -0.3830  0.6465
   91SAPS  O13A 8818   6.408   3.756   5.579  0.0533 -0.3518  0.2758
   91SAPS  O13B 8819   6.443   3.676   5.781 -0.1827 -0.3027  0.2385
   91SAPS   C11 8820   6.239   3.862   5.884 -0.6734  0.0277  0.0647
   91SAPS  H11A 8821   6.295   3.956   5.862 -2.0098 -0.0969 -4.4163
   91SAPS  H11B 8822   6.296   3.800   5.956 -2.1147 -0.7513  0.5560
   91SAPS     P 8823   6.062   3.987   6.032 -0.1828 -0.6889 -0.1855
   91SAPS   O13 8824   6.086   4.125   5.984 -0.7366 -0.2671  0.2211
   91SAPS   O14 8825   5.928   3.955   6.083 -0.4873  0.1953  0.5305
   91SAPS   O12 8826   6.106   3.878   5.924  0.2151 -0.0322 -0.2766
   91SAPS   O11 8827   6.168   3.951   6.145  0.0246  0.0230 -0.5165
   91SAPS    C1 8828   6.152   4.012   6.267 -1.2045  0.3979  0.1083
   91SAPS    HA 8829   6.122   4.119   6.260  0.7606  0.8834 -1.0343
   91SAPS    HB 8830   6.076   3.955   6.325 -2.8942  0.8744 -1.5880
   91SAPS    C2 8831   6.284   4.027   6.354  0.2558 -0.0517  0.3195
   91SAPS    HS 8832   6.360   4.072   6.287  0.3317  1.2522  1.2534
   91SAPS   O21 8833   6.321   3.893   6.390  0.4592 -0.0860  0.4758
   91SAPS   C21 8834   6.450   3.889   6.428 -0.0080 -0.2046  0.6854
   91SAPS   O22 8835   6.529   3.981   6.404  0.0142 -0.1195  0.0144
   91SAPS   C22 8836   6.484   3.755   6.493 -0.3664 -0.7700  0.8255
   91SAPS   H2R 8837   6.401   3.731   6.562 -0.9557  0.6567  0.6171
   91SAPS   H2S 8838   6.479   3.684   6.407  1.7870 -2.7313  2.2703
   91SAPS    C3 8839   6.266   4.117   6.477 -1.5960  0.9105 -0.1161
   91SAPS    HX 8840   6.254   4.226   6.462 -1.0370  0.7132 -2.1355
   91SAPS    HY 8841   6.368   4.125   6.520 -1.6608  0.4797  0.1244
   91SAPS   O31 8842   6.160   4.065   6.560  0.5965 -0.1587 -0.1583
   91SAPS   C31 8843   6.200   4.010   6.676  0.3741 -0.1349 -0.2171
   91SAPS   O32 8844   6.315   3.992   6.706 -0.3884  0.2422  0.3174
   91SAPS   C32 8845   6.074   3.974   6.755 -0.6874 -0.6375 -0.0701
   91SAPS   H2X 8846   6.044   3.872   6.726 -1.0532 -0.4326 -0.4188
   91SAPS   H2Y 8847   5.990   4.042   6.728  1.0847  1.7255  0.2180
   91SAPS   C23 8848   6.619   3.764   6.565 -0.2485  0.6677  0.2317
   91SAPS   H3R 8849   6.631   3.862   6.617  2.3117  1.4354 -1.6891
   91SAPS   H3S 8850   6.707   3.758   6.497 -0.2380 -0.2560  0.3277
   91SAPS   C24 8851   6.650   3.656   6.675 -0.5341  0.2331 -0.4243
   91SAPS   H4R 8852   6.636   3.553   6.635 -1.0121 -0.4046  1.3746
   91SAPS   H4S 8853   6.571   3.664   6.753 -1.3428 -0.7507 -1.1118
   91SAPS   C25 8854   6.777   3.672   6.749  0.3610 -0.4244 -0.2256
   91SAPS   H5R 8855   6.860   3.705   6.684  0.4537 -1.0077 -0.4001
   91SAPS   C26 8856   6.798   3.658   6.881  0.0208 -0.6388 -0.0559
   91SAPS   H6R 8857   6.900   3.681   6.915 -0.8315  4.0171 -0.2453
   91SAPS   C27 8858   6.699   3.615   6.987 -0.9764 -0.7146  0.6685
   91SAPS   H7R 8859   6.747   3.572   7.077  1.0486  1.5722  0.7411
   91SAPS   H7S 8860   6.623   3.548   6.942  0.0687 -1.6462  0.2534
   91SAPS   C28 8861   6.620   3.733   7.033 -0.2323 -0.1780 -0.1818
   91SAPS   H8R 8862   6.611   3.827   6.977 -0.7493  0.5491  1.0909
   91SAPS   C29 8863   6.560   3.730   7.159 -0.3438 -0.2500 -0.0459
   91SAPS   H9R 8864   6.510   3.823   7.192  2.7190  0.7823  1.8779
   91SAPS  C210 8865   6.544   3.618   7.257  0.1968 -0.5810 -0.2888
   91SAPS  H10R 8866   6.558   3.649   7.362  0.0545 -2.9118  0.4484
   91SAPS  H10S 8867   6.630   3.550   7.243  0.5660  0.2269 -2.1075
   91SAPS  C211 8868   6.412   3.547   7.230 -0.5951 -0.6709  0.2217
   91SAPS  H11R 8869   6.387   3.550   7.123  0.7368  1.1109 -0.0602
   91SAPS  C212 8870   6.333   3.494   7.327 -0.0413  0.2842  0.0711
   91SAPS  H12R 8871   6.242   3.445   7.288  1.0012 -3.1189  1.6673
   91SAPS  C213 8872   6.351   3.485   7.477  0.1097  0.0315  1.1068
   91SAPS  H13R 8873   6.452   3.503   7.518  0.4088 -2.5471  1.6259
   91SAPS  H13S 8874   6.329   3.382   7.513 -0.9068 -1.1583 -2.6522
   91SAPS  C214 8875   6.260   3.578   7.551  0.3530 -0.2286  1.5746
   91SAPS  H14R 8876   6.178   3.628   7.498 -0.1611 -1.6786  0.9923
   91SAPS  C215 8877   6.253   3.598   7.680  0.0705 -0.9312  0.2513
   91SAPS  H15R 8878   6.187   3.681   7.710 -0.1072  0.0835 -2.8143
   91SAPS  C216 8879   6.347   3.546   7.794 -0.0275 -0.5038 -0.3035
   91SAPS  H16R 8880   6.375   3.633   7.857 -0.2092  0.0471 -0.9742
   91SAPS  H16S 8881   6.443   3.513   7.748  0.8970  1.7341 -0.0576
   91SAPS  C217 8882   6.277   3.441   7.886  0.0910  0.1864  0.8587
   91SAPS  H17R 8883   6.217   3.372   7.823  0.0864  0.7066  0.2893
   91SAPS  H17S 8884   6.208   3.495   7.954  1.0406 -0.4979  2.4026
   91SAPS  C218 8885   6.373   3.359   7.982  0.2069  0.1485  0.9968
   91SAPS  H18R 8886   6.457   3.318   7.922 -0.2572  1.4707 -0.5791
   91SAPS  H18S 8887   6.318   3.275   8.030 -0.9816 -0.7938 -1.9201
   91SAPS  C219 8888   6.425   3.451   8.091  0.3011 -1.1191 -0.2272
   91SAPS  H19R 8889   6.351   3.480   8.169  1.7346  3.2292 -0.3679
   91SAPS  H19S 8890   6.448   3.551   8.048 -0.6663 -1.8608 -2.5220
   91SAPS  C220 8891   6.557   3.404   8.143 -0.3643  0.2856  0.5399
   91SAPS  H20R 8892   6.542   3.306   8.193 -4.1086 -0.1711 -1.2984
   91SAPS  H20S 8893   6.608   3.470   8.216 -1.2522 -1.0829  2.4425
   91SAPS  H20T 8894   6.635   3.378   8.068  0.4260  0.7812  1.1842
   91SAPS   C33 8895   6.107   3.970   6.904  0.7350 -0.0961 -0.8411
   91SAPS   H3X 8896   6.175   3.886   6.927  0.2367  0.2158  2.0626
   91SAPS   H3Y 8897   6.005   3.961   6.948  1.4311  0.6873  1.0148
   91SAPS   C34 8898   6.175   4.100   6.961 -0.2261  0.0611 -0.6514
   91SAPS   H4X 8899   6.120   4.184   6.913 -0.8213 -0.0050 -0.0871
   91SAPS   H4Y 8900   6.280   4.098   6.926  0.0597 -1.4074  0.2776
   91SAPS   C35 8901   6.188   4.122   7.113  0.7052  0.0113  0.6962
   91SAPS   H5X 8902   6.091   4.123   7.168 -0.1911 -0.6710 -0.8524
   91SAPS   H5Y 8903   6.249   4.212   7.132  2.0197 -1.1706  2.2726
   91SAPS   C36 8904   6.252   4.007   7.189 -0.3525 -1.3035 -0.6968
   91SAPS   H6X 8905   6.358   3.992   7.158  0.1871  0.9339  0.0011
   91SAPS   H6Y 8906   6.189   3.917   7.171 -3.4238  0.8408 -0.9206
   91SAPS   C37 8907   6.248   4.034   7.330 -0.0305 -0.4222 -0.8382
   91SAPS   H7X 8908   6.144   4.052   7.364  0.9434  0.5361  1.8068
   91SAPS   H7Y 8909   6.309   4.124   7.354  0.1713 -0.6241 -0.5850
   91SAPS   C38 8910   6.314   3.916   7.411  0.0616  0.3927  0.1061
   91SAPS   H8X 8911   6.412   3.894   7.363 -0.9489 -0.4047 -1.6445
   91SAPS   H8Y 8912   6.257   3.822   7.398 -0.0762  0.3493  0.9927
   91SAPS   C39 8913   6.327   3.957   7.563 -0.3502  0.7823  0.3179
   91SAPS   H9X 8914   6.239   3.917   7.618  0.4013  1.0385  1.7225
   91SAPS   H9Y 8915   6.314   4.067   7.573 -0.4764  0.9295 -1.3245
   91SAPS  C310 8916   6.455   3.911   7.623 -0.5532  0.7725  0.9544
   91SAPS  H10X 8917   6.531   3.973   7.571  1.4288  0.6559  3.6256
   91SAPS  H10Y 8918   6.472   3.803   7.602  2.9743  1.9800 -3.1839
   91SAPS  C311 8919   6.464   3.935   7.775 -0.5585  0.5961  0.9274
   91SAPS  H11X 8920   6.387   3.880   7.833 -0.5480  1.2789  1.5957
   91SAPS  H11Y 8921   6.446   4.041   7.804  1.1098  1.1035  0.1790
   91SAPS  C312 8922   6.605   3.904   7.836  0.2139  0.2616 -0.1030
   91SAPS  H12X 8923   6.686   3.954   7.779  1.6619 -0.9144  0.9009
   91SAPS  H12Y 8924   6.618   3.793   7.835 -0.7940  0.1326 -0.1575
   91SAPS  C313 8925   6.626   3.950   7.981 -0.2776 -0.3393  0.7485
   91SAPS  H13X 8926   6.620   4.061   7.989  1.0287 -0.3193  1.4772
   91SAPS  H13Y 8927   6.726   3.926   8.022  0.2830 -0.2570 -0.5585
   91SAPS  C314 8928   6.528   3.884   8.081 -0.0034  0.2998  0.1932
   91SAPS  H14X 8929   6.514   3.779   8.049 -2.3917  0.4177  0.7177
   91SAPS  H14Y 8930   6.433   3.941   8.076 -0.0798  0.1756  0.2245
   91SAPS  C315 8931   6.570   3.886   8.229 -0.1669 -0.0914 -0.5335
   91SAPS  H15X 8932   6.678   3.910   8.237 -0.1291 -0.2392 -0.5904
   91SAPS  H15Y 8933   6.559   3.790   8.285  2.7957  0.4041  0.9854
   91SAPS  C316 8934   6.487   3.988   8.304  0.3022 -0.2490 -0.2098
   91SAPS  H16X 8935   6.474   4.088   8.257  1.3363 -0.0544 -0.0868
   91SAPS  H16Y 8936   6.529   4.019   8.402 -1.7693  1.8101  0.0952
   91SAPS  C317 8937   6.354   3.927   8.345  0.0770  0.9435 -0.2955
   91SAPS  H17X 8938   6.368   3.837   8.409 -0.9698  1.0430  0.0904
   91SAPS  H17Y 8939   6.300   3.887   8.256 -1.3254  0.0960  0.9146
   91SAPS  C318 8940   6.254   4.014   8.419 -0.0455 -0.2033 -0.4210
   91SAPS  H18X 8941   6.166   3.958   8.459  1.0285 -1.3496  0.3853
   91SAPS  H18Y 8942   6.224   4.088   8.342 -0.1992  0.4212  0.2436
   91SAPS  H18Z 8943   6.298   4.054   8.512 -1.5345 -0.5274  0.4389
   92SAPS     N 8944   5.654   1.786   6.130  0.5233  0.5699  0.0081
   92SAPS   HN1 8945   5.742   1.778   6.185  0.5579 -1.7797 -0.3034
   92SAPS   HN2 8946   5.616   1.689   6.116 -1.2382  0.9518  1.9108
   92SAPS   HN3 8947   5.670   1.830   6.037 -0.2119  0.9599  0.0621
   92SAPS   C12 8948   5.537   1.855   6.184 -1.4272 -0.1367 -0.2074
   92SAPS  H12A 8949   5.554   1.962   6.189 -1.4102 -0.1124 -0.7119
   92SAPS   C13 8950   5.397   1.844   6.123 -0.4385  0.2502  0.5839
   92SAPS  O13A 8951   5.380   1.818   6.005  0.3118 -0.2333  0.4460
   92SAPS  O13B 8952   5.293   1.890   6.179  0.1744 -0.5828 -0.0939
   92SAPS   C11 8953   5.519   1.807   6.331 -0.6203 -0.1847 -0.1764
   92SAPS  H11A 8954   5.503   1.697   6.323 -1.0094 -0.0938 -0.6310
   92SAPS  H11B 8955   5.434   1.851   6.388  1.3180  3.2782  0.1475
   92SAPS     P 8956   5.683   1.961   6.473 -0.4589 -0.2409 -0.2834
   92SAPS   O13 8957   5.812   1.943   6.546  0.2908 -0.4068 -0.0981
   92SAPS   O14 8958   5.674   2.075   6.377  0.6521 -0.3315 -0.3762
   92SAPS   O12 8959   5.637   1.826   6.408  0.0965 -0.8654  0.3893
   92SAPS   O11 8960   5.568   1.974   6.573 -0.0163  0.1057  0.0271
   92SAPS    C1 8961   5.550   1.876   6.683 -0.6738 -0.1865  0.6963
   92SAPS    HA 8962   5.541   1.777   6.634  0.5618  0.3056 -0.5825
   92SAPS    HB 8963   5.633   1.877   6.757 -1.9237  0.2723  2.1221
   92SAPS    C2 8964   5.419   1.883   6.763  0.6059  0.2145 -0.4312
   92SAPS    HS 8965   5.334   1.907   6.696  0.6261 -1.3871 -1.0634
   92SAPS   O21 8966   5.438   1.981   6.869  0.0202 -0.0886  0.2237
   92SAPS   C21 8967   5.328   2.015   6.930 -0.1722 -0.2715 -0.1258
   92SAPS   O22 8968   5.214   1.993   6.881 -0.1278  0.4365  0.1770
   92SAPS   C22 8969   5.352   2.092   7.060  0.1037  0.4900  1.0496
   92SAPS   H2R 8970   5.433   2.050   7.123  0.7011  2.4796  1.6459
   92SAPS   H2S 8971   5.382   2.195   7.029  1.6726  0.7575  3.3553
   92SAPS    C3 8972   5.381   1.740   6.827  0.0908 -0.7676  0.1819
   92SAPS    HX 8973   5.349   1.662   6.755 -0.2921 -0.0169 -0.4836
   92SAPS    HY 8974   5.288   1.749   6.886  1.0995 -0.7038  1.7913
   92SAPS   O31 8975   5.492   1.690   6.900  0.3178 -0.2697  0.0976
   92SAPS   C31 8976   5.478   1.690   7.035 -0.5511 -0.4557 -0.1183
   92SAPS   O32 8977   5.381   1.724   7.098  0.3630 -0.0299 -0.4169
   92SAPS   C32 8978   5.607   1.641   7.101 -0.0786 -0.0717  0.4633
   92SAPS   H2X 8979   5.617   1.531   7.100 -0.4164 -0.0987 -0.3965
   92SAPS   H2Y 8980   5.584   1.670   7.206  0.1222  1.3738  0.1263
   92SAPS   C23 8981   5.231   2.121   7.155  0.5747 -0.6304  0.4841
   92SAPS   H3R 8982   5.139   2.138   7.095  2.7268  0.6599 -2.6178
   92SAPS   H3S 8983   5.250   2.219   7.203 -1.0196  0.0745 -0.2882
   92SAPS   C24 8984   5.215   2.009   7.256  0.1417 -0.2883  0.6826
   92SAPS   H4R 8985   5.152   2.058   7.332 -1.4518 -0.9790 -0.1668
   92SAPS   H4S 8986   5.313   1.987   7.303  1.4448 -0.7454 -2.1285
   92SAPS   C25 8987   5.138   1.892   7.215  0.2706  0.5879  0.2837
   92SAPS   H5R 8988   5.086   1.907   7.120 -0.6947  1.6634  0.9602
   92SAPS   C26 8989   5.126   1.777   7.284  0.7510  0.0305  0.7594
   92SAPS   H6R 8990   5.066   1.704   7.228  0.9936  0.9754 -0.7392
   92SAPS   C27 8991   5.194   1.733   7.414  0.5135 -0.2787  0.2873
   92SAPS   H7R 8992   5.224   1.815   7.483  1.3745 -1.9690  1.9683
   92SAPS   H7S 8993   5.278   1.664   7.393 -1.4809 -2.9441  0.7331
   92SAPS   C28 8994   5.100   1.650   7.497 -0.3935  0.1009 -0.5524
   92SAPS   H8R 8995   5.032   1.589   7.434 -0.1670  0.1255 -0.8229
   92SAPS   C29 8996   5.105   1.641   7.626 -0.3736 -0.3065  0.0334
   92SAPS   H9R 8997   5.026   1.582   7.675  2.1687 -1.9675  2.2437
   92SAPS  C210 8998   5.201   1.707   7.725  0.4483  0.0581 -0.1513
   92SAPS  H10R 8999   5.217   1.815   7.708 -1.1208  0.4509  0.7767
   92SAPS  H10S 9000   5.294   1.653   7.696  0.6490  0.2381  0.1489
   92SAPS  C211 9001   5.161   1.672   7.862 -0.6914  0.4060 -0.2778
   92SAPS  H11R 9002   5.165   1.564   7.885  2.6426  0.3086 -1.0502
   92SAPS  C212 9003   5.115   1.744   7.961  0.1659  0.2453  0.2407
   92SAPS  H12R 9004   5.078   1.685   8.046  0.0224  0.2421  0.1761
   92SAPS  C213 9005   5.107   1.890   7.968 -0.9885  0.0494 -0.2672
   92SAPS  H13R 9006   5.120   1.935   7.867  1.2493  0.2237  0.0883
   92SAPS  H13S 9007   5.190   1.928   8.031 -0.1311 -0.8443 -0.8540
   92SAPS  C214 9008   4.975   1.942   8.028 -0.3053 -0.4492  0.3100
   92SAPS  H14R 9009   4.901   1.954   7.948 -0.2610 -2.4638 -0.0591
   92SAPS  C215 9010   4.948   1.966   8.153  0.9331  0.5711 -0.4261
   92SAPS  H15R 9011   4.841   1.980   8.178  0.6326  0.3009 -1.5296
   92SAPS  C216 9012   5.030   1.943   8.276  0.2172  0.5639 -0.0962
   92SAPS  H16R 9013   5.075   2.033   8.323 -0.5883 -0.2782  2.3646
   92SAPS  H16S 9014   5.124   1.893   8.245 -0.5978 -0.5823 -0.7758
   92SAPS  C217 9015   4.974   1.855   8.391 -0.2066 -0.3951  0.3942
   92SAPS  H17R 9016   4.923   1.767   8.346 -1.9647  1.8983 -2.2864
   92SAPS  H17S 9017   4.895   1.906   8.450  0.2637  1.9358 -0.9456
   92SAPS  C218 9018   5.082   1.794   8.482 -0.2559  0.7236  0.2111
   92SAPS  H18R 9019   5.122   1.713   8.417 -2.3312 -0.3709  0.2218
   92SAPS  H18S 9020   5.031   1.754   8.572 -3.0202 -0.7515 -1.9037
   92SAPS  C219 9021   5.187   1.899   8.517  0.7246 -0.1473  0.3399
   92SAPS  H19R 9022   5.136   1.991   8.551  1.3765  0.0041  0.9204
   92SAPS  H19S 9023   5.237   1.944   8.427 -1.1280  0.3497 -0.4629
   92SAPS  C220 9024   5.284   1.839   8.615 -0.0530  0.0629  0.6093
   92SAPS  H20R 9025   5.342   1.923   8.658  1.0753 -0.7030  0.6039
   92SAPS  H20S 9026   5.362   1.767   8.582  1.1416  1.3060  0.6686
   92SAPS  H20T 9027   5.236   1.802   8.708 -0.4133 -0.1238  0.3510
   92SAPS   C33 9028   5.737   1.714   7.063 -0.4164  0.0549 -0.0439
   92SAPS   H3X 9029   5.717   1.822   7.084  2.6049  0.5122  0.7303
   92SAPS   H3Y 9030   5.750   1.703   6.953 -1.1826 -1.2035 -0.0129
   92SAPS   C34 9031   5.858   1.657   7.140 -0.0789  0.0926  0.0108
   92SAPS   H4X 9032   5.952   1.699   7.098 -0.1510 -1.5223 -1.8015
   92SAPS   H4Y 9033   5.864   1.548   7.121  0.6468  0.3051 -1.0296
   92SAPS   C35 9034   5.847   1.683   7.293 -0.7585 -0.9536  0.1585
   92SAPS   H5X 9035   5.761   1.624   7.331 -0.5021 -0.5256  1.4190
   92SAPS   H5Y 9036   5.821   1.788   7.315  1.6026 -0.2652 -0.1288
   92SAPS   C36 9037   5.972   1.637   7.359 -0.1201  0.2061  0.8503
   92SAPS   H6X 9038   6.051   1.715   7.349  0.8565 -0.8342  0.2312
   92SAPS   H6Y 9039   6.007   1.545   7.307  2.8673  1.7330  0.0857
   92SAPS   C37 9040   5.952   1.599   7.508 -0.0098  0.1375 -0.6144
   92SAPS   H7X 9041   5.854   1.548   7.518  0.9347 -1.2830  2.0319
   92SAPS   H7Y 9042   5.947   1.693   7.567 -1.3525 -1.8585  2.5779
   92SAPS   C38 9043   6.065   1.511   7.559 -0.7277  0.2558  0.1534
   92SAPS   H8X 9044   6.164   1.552   7.529  0.8322 -2.1066  1.8437
   92SAPS   H8Y 9045   6.056   1.416   7.503 -1.1777  1.4339 -1.8034
   92SAPS   C39 9046   6.069   1.478   7.707 -0.4508 -0.1109 -0.6540
   92SAPS   H9X 9047   6.147   1.404   7.735  1.1999  1.9008  0.2798
   92SAPS   H9Y 9048   5.967   1.441   7.731  0.4804 -2.3393 -0.0730
   92SAPS  C310 9049   6.091   1.607   7.791  0.3063  0.1866  0.4068
   92SAPS  H10X 9050   6.007   1.680   7.789  0.8879  0.9577  2.3601
   92SAPS  H10Y 9051   6.172   1.660   7.735 -0.4959  1.3602  0.3442
   92SAPS  C311 9052   6.140   1.580   7.933  0.5090 -0.2175 -0.5845
   92SAPS  H11X 9053   6.177   1.678   7.972 -0.5084 -0.6774  1.5714
   92SAPS  H11Y 9054   6.228   1.513   7.939  0.1302 -0.5519  1.5772
   92SAPS  C312 9055   6.024   1.527   8.022  0.1602 -0.1970  0.0821
   92SAPS  H12X 9056   5.986   1.436   7.971  1.9416 -1.5918  1.1985
   92SAPS  H12Y 9057   5.954   1.614   8.014 -1.3446 -1.4732 -0.9780
   92SAPS  C313 9058   6.070   1.498   8.162  0.4582 -0.2031  0.9094
   92SAPS  H13X 9059   6.107   1.593   8.207 -1.5374 -0.0186  2.2513
   92SAPS  H13Y 9060   6.148   1.421   8.178  0.1480 -0.2297  2.4103
   92SAPS  C314 9061   5.955   1.453   8.254 -0.3031  0.1223 -0.3946
   92SAPS  H14X 9062   5.946   1.342   8.258  1.2327  0.0681  2.3907
   92SAPS  H14Y 9063   5.864   1.492   8.204 -0.8255 -1.7069 -0.8927
   92SAPS  C315 9064   5.946   1.508   8.395 -0.9186 -0.4361  0.3152
   92SAPS  H15X 9065   5.953   1.619   8.386 -1.3251 -0.5730 -1.9784
   92SAPS  H15Y 9066   6.040   1.480   8.446 -1.7857 -0.5981  1.8478
   92SAPS  C316 9067   5.823   1.479   8.485  0.7351 -0.0212 -0.1655
   92SAPS  H16X 9068   5.812   1.369   8.488  0.4628 -0.0695 -2.1406
   92SAPS  H16Y 9069   5.743   1.524   8.421  0.8220  1.7932  0.9587
   92SAPS  C317 9070   5.817   1.549   8.616  0.1579 -0.0558  0.4102
   92SAPS  H17X 9071   5.713   1.551   8.656 -0.5161 -1.8405 -1.1719
   92SAPS  H17Y 9072   5.852   1.654   8.615 -0.8507  0.3030  1.0497
   92SAPS  C318 9073   5.903   1.493   8.724 -0.1659 -0.3707 -0.0053
   92SAPS  H18X 9074   5.880   1.390   8.758  0.5229 -0.9503 -1.2561
   92SAPS  H18Y 9075   5.874   1.550   8.815 -0.2272 -2.7203  1.4843
   92SAPS  H18Z 9076   6.011   1.510   8.703 -0.0629  1.6861  1.9775
   93SAPS     N 9077   6.000   1.740   6.460  0.0465  0.1515 -0.7810
   93SAPS   HN1 9078   5.957   1.680   6.533 -2.3096  1.9770 -0.6037
   93SAPS   HN2 9079   6.079   1.798   6.494 -1.2488 -0.3867  3.4508
   93SAPS   HN3 9080   5.934   1.813   6.425  2.2848  1.8382 -1.5987
   93SAPS   C12 9081   6.041   1.674   6.331 -0.6313 -0.4810 -0.2595
   93SAPS  H12A 9082   6.000   1.574   6.337 -1.6786 -0.0823 -0.4952
   93SAPS   C13 9083   5.975   1.751   6.214  0.6800 -0.5047 -0.7668
   93SAPS  O13A 9084   5.884   1.831   6.253  0.6019 -0.5222 -0.3566
   93SAPS  O13B 9085   5.991   1.720   6.093  0.2907  0.4210  0.1973
   93SAPS   C11 9086   6.192   1.666   6.308  0.8670 -0.2731 -0.0268
   93SAPS  H11A 9087   6.227   1.771   6.301 -0.7347  0.2545 -0.2797
   93SAPS  H11B 9088   6.209   1.618   6.209 -1.4316 -0.2273 -0.4737
   93SAPS     P 9089   6.388   1.636   6.473 -0.0498 -0.2843  0.0889
   93SAPS   O13 9090   6.428   1.523   6.561  0.2296 -0.2969 -0.7492
   93SAPS   O14 9091   6.483   1.682   6.370 -0.5767  0.2839  0.4401
   93SAPS   O12 9092   6.254   1.590   6.411  0.2480  0.1268 -0.1533
   93SAPS   O11 9093   6.351   1.758   6.563  0.2698  0.1806  0.0551
   93SAPS    C1 9094   6.285   1.724   6.688 -0.4590  0.5153  0.3453
   93SAPS    HA 9095   6.192   1.669   6.663 -1.4509  2.6547 -0.7962
   93SAPS    HB 9096   6.359   1.664   6.746 -1.0458  1.3374  1.9989
   93SAPS    C2 9097   6.260   1.851   6.779 -0.6558  0.1809 -0.0397
   93SAPS    HS 9098   6.188   1.919   6.729 -1.7013 -1.1563 -0.4002
   93SAPS   O21 9099   6.388   1.906   6.795 -0.4845 -0.3423  0.0769
   93SAPS   C21 9100   6.385   2.035   6.787  0.3602  0.0853  0.2161
   93SAPS   O22 9101   6.292   2.109   6.769  0.5148 -0.4809 -0.6562
   93SAPS   C22 9102   6.524   2.080   6.819 -0.5446 -1.0275  0.3551
   93SAPS   H2R 9103   6.588   1.990   6.806  1.0380 -0.1902  2.1065
   93SAPS   H2S 9104   6.554   2.153   6.740 -0.6754 -1.7965 -0.4083
   93SAPS    C3 9105   6.198   1.814   6.915  0.4398 -0.4926  0.3657
   93SAPS    HX 9106   6.094   1.776   6.907  0.4027 -0.8573  2.3559
   93SAPS    HY 9107   6.212   1.905   6.979  0.3531  0.2060 -0.6045
   93SAPS   O31 9108   6.272   1.701   6.967 -0.1238  0.9321 -0.6249
   93SAPS   C31 9109   6.285   1.701   7.100  0.2501 -0.2674 -0.7403
   93SAPS   O32 9110   6.229   1.783   7.174 -0.5473 -0.0410  0.0823
   93SAPS   C32 9111   6.383   1.596   7.145 -0.7597  0.0192  0.2573
   93SAPS   H2X 9112   6.468   1.602   7.074 -1.5194  1.6636 -0.5514
   93SAPS   H2Y 9113   6.332   1.498   7.133  0.3288 -0.3324 -1.7733
   93SAPS   C23 9114   6.528   2.122   6.969 -0.0083 -0.0863  0.2263
   93SAPS   H3R 9115   6.439   2.184   6.993 -2.4238 -3.7399  1.1632
   93SAPS   H3S 9116   6.618   2.181   6.995 -0.7894  0.3877  1.9095
   93SAPS   C24 9117   6.528   2.000   7.058 -0.6778 -0.6097 -1.1771
   93SAPS   H4R 9118   6.630   1.982   7.099 -0.0220  0.4900 -2.2848
   93SAPS   H4S 9119   6.512   1.902   7.008  0.0098 -1.0047 -0.6355
   93SAPS   C25 9120   6.432   2.012   7.177  0.2015  0.3459  0.4415
   93SAPS   H5R 9121   6.324   2.006   7.157  0.1108  1.0943  0.6897
   93SAPS   C26 9122   6.463   2.033   7.304  0.4769 -0.3191  0.3244
   93SAPS   H6R 9123   6.377   2.013   7.369 -0.6718  1.7050 -0.5656
   93SAPS   C27 9124   6.601   2.052   7.358  0.2846 -0.4869  0.2282
   93SAPS   H7R 9125   6.658   2.119   7.291 -0.9577  2.8125  2.3660
   93SAPS   H7S 9126   6.638   1.949   7.337 -0.9254 -0.8040 -0.3952
   93SAPS   C28 9127   6.620   2.097   7.501 -0.1918  0.5558  0.2737
   93SAPS   H8R 9128   6.654   2.200   7.519 -3.6999  1.9775 -0.8822
   93SAPS   C29 9129   6.595   2.023   7.610  0.1466  0.5197  0.5005
   93SAPS   H9R 9130   6.614   2.070   7.707 -0.6049  1.5658  0.1492
   93SAPS  C210 9131   6.552   1.876   7.613 -0.0804  0.3185 -1.0801
   93SAPS  H10R 9132   6.509   1.836   7.519 -2.5102  1.0843 -0.3344
   93SAPS  H10S 9133   6.463   1.866   7.679 -0.7987  0.9970 -1.9287
   93SAPS  C211 9134   6.667   1.787   7.664 -0.3071 -0.1439 -0.1687
   93SAPS  H11R 9135   6.728   1.748   7.581 -0.1961  1.1114 -0.6866
   93SAPS  C212 9136   6.715   1.761   7.788 -0.6437  0.2130  0.4274
   93SAPS  H12R 9137   6.798   1.690   7.802 -0.8890  0.3472  2.7786
   93SAPS  C213 9138   6.642   1.808   7.913  0.1131  0.3867  0.4004
   93SAPS  H13R 9139   6.579   1.891   7.876 -0.4938  0.8721  2.4605
   93SAPS  H13S 9140   6.713   1.848   7.989 -0.5569 -1.6186  2.1413
   93SAPS  C214 9141   6.553   1.705   7.978 -1.0307  0.4518 -0.0983
   93SAPS  H14R 9142   6.585   1.601   7.957  0.3013  0.8901 -0.2774
   93SAPS  C215 9143   6.448   1.728   8.063 -0.5131  0.6035  0.0282
   93SAPS  H15R 9144   6.390   1.638   8.092  0.7982 -0.8100 -1.5975
   93SAPS  C216 9145   6.386   1.853   8.112 -0.3733  0.4547  0.0866
   93SAPS  H16R 9146   6.281   1.855   8.077 -0.7464  0.5588  1.1915
   93SAPS  H16S 9147   6.425   1.941   8.056 -0.3154  0.8380  0.7122
   93SAPS  C217 9148   6.389   1.887   8.267  0.1483  0.3220  0.9662
   93SAPS  H17R 9149   6.388   1.997   8.281 -0.9521  0.3639  0.5788
   93SAPS  H17S 9150   6.479   1.842   8.315  1.8298  3.2951  0.7744
   93SAPS  C218 9151   6.254   1.836   8.338 -0.1747 -0.0818  0.8645
   93SAPS  H18R 9152   6.263   1.726   8.350 -0.7760 -0.0736  1.4326
   93SAPS  H18S 9153   6.164   1.867   8.281 -0.7906 -0.9392  1.3535
   93SAPS  C219 9154   6.239   1.893   8.481 -0.5722 -0.4491 -0.1714
   93SAPS  H19R 9155   6.158   1.834   8.529 -1.2974  0.3973 -0.3381
   93SAPS  H19S 9156   6.214   2.001   8.478 -0.0034 -0.3703 -2.9785
   93SAPS  C220 9157   6.362   1.884   8.579 -0.6245  0.1538 -0.6116
   93SAPS  H20R 9158   6.460   1.918   8.539  0.3907 -1.7122  0.2110
   93SAPS  H20S 9159   6.383   1.777   8.601  0.5021  0.9317  2.3003
   93SAPS  H20T 9160   6.330   1.935   8.671 -2.3570 -1.1680 -0.4545
   93SAPS   C33 9161   6.424   1.608   7.299 -0.6681  0.9582  0.1589
   93SAPS   H3X 9162   6.334   1.596   7.362 -0.1704  0.8107  0.8486
   93SAPS   H3Y 9163   6.467   1.709   7.318 -0.5950  0.7327  1.2130
   93SAPS   C34 9164   6.515   1.491   7.339  0.4724 -0.5961  0.4448
   93SAPS   H4X 9165   6.611   1.497   7.284 -0.2527 -3.0930 -1.1566
   93SAPS   H4Y 9166   6.469   1.398   7.301  0.9330 -0.1997 -1.1519
   93SAPS   C35 9167   6.531   1.484   7.487  0.7426 -0.0782  0.6311
   93SAPS   H5X 9168   6.429   1.513   7.522 -0.4746  1.3968 -3.7436
   93SAPS   H5Y 9169   6.595   1.565   7.529 -0.3009  1.5136 -0.7580
   93SAPS   C36 9170   6.572   1.346   7.541  0.1431 -0.1501  0.2009
   93SAPS   H6X 9171   6.630   1.366   7.633 -0.7234  1.7107  0.3612
   93SAPS   H6Y 9172   6.625   1.281   7.468 -0.9167  0.7885 -1.4523
   93SAPS   C37 9173   6.443   1.266   7.581 -0.9518 -0.9295  0.0494
   93SAPS   H7X 9174   6.373   1.261   7.494  0.0177 -0.2285 -0.7837
   93SAPS   H7Y 9175   6.385   1.330   7.650  1.0933 -1.2109  2.0728
   93SAPS   C38 9176   6.468   1.120   7.638  0.2431 -0.4743  0.4616
   93SAPS   H8X 9177   6.544   1.068   7.575 -0.5061  2.5479 -3.1393
   93SAPS   H8Y 9178   6.370   1.069   7.625 -0.5411  1.3273 -0.8219
   93SAPS   C39 9179   6.506   1.125   7.787 -0.2677 -0.6920 -0.5755
   93SAPS   H9X 9180   6.426   1.168   7.851 -0.8135  1.9720 -2.9233
   93SAPS   H9Y 9181   6.593   1.194   7.791 -0.8198 -0.0787  1.3081
   93SAPS  C310 9182   6.534   0.983   7.841 -0.7806  0.1034 -0.3717
   93SAPS  H10X 9183   6.618   0.932   7.790  0.8301 -0.1975  2.4617
   93SAPS  H10Y 9184   6.443   0.925   7.817 -0.5094  0.5914 -2.6562
   93SAPS  C311 9185   6.569   0.982   7.990 -0.6100 -0.4460 -0.2822
   93SAPS  H11X 9186   6.488   1.041   8.038  0.1076 -0.0074  0.3963
   93SAPS  H11Y 9187   6.664   1.037   8.009 -0.8925  0.3287 -1.0820
   93SAPS  C312 9188   6.575   0.842   8.051 -0.1871 -0.3124 -0.3227
   93SAPS  H12X 9189   6.660   0.782   8.012  0.0337  0.6904 -1.4412
   93SAPS  H12Y 9190   6.477   0.794   8.030 -0.3656 -0.0899  0.0016
   93SAPS  C313 9191   6.608   0.858   8.206  0.2034 -0.5587  0.5850
   93SAPS  H13X 9192   6.534   0.931   8.247  0.2365 -0.9196  1.2919
   93SAPS  H13Y 9193   6.704   0.909   8.227 -0.0078 -0.3711  1.1014
   93SAPS  C314 9194   6.598   0.724   8.270  0.0596  0.1665  0.1354
   93SAPS  H14X 9195   6.672   0.657   8.222 -0.2045  1.5636 -2.2979
   93SAPS  H14Y 9196   6.498   0.682   8.244  0.5666 -1.2250  0.3847
   93SAPS  C315 9197   6.632   0.723   8.423 -0.2876  0.7106  0.4512
   93SAPS  H15X 9198   6.730   0.772   8.439  0.0299 -0.7914  3.5438
   93SAPS  H15Y 9199   6.626   0.623   8.472  2.2406 -0.9892 -2.5272
   93SAPS  C316 9200   6.528   0.809   8.504  0.0275  0.0074  0.7475
   93SAPS  H16X 9201   6.426   0.766   8.498  0.0710  0.2377 -1.9105
   93SAPS  H16Y 9202   6.520   0.910   8.458  0.5885 -0.7000 -0.9073
   93SAPS  C317 9203   6.580   0.839   8.643  0.8530 -0.7239 -0.4615
   93SAPS  H17X 9204   6.687   0.868   8.652 -0.1109  2.4747  1.3652
   93SAPS  H17Y 9205   6.567   0.749   8.707 -0.7926 -0.2251 -0.0772
   93SAPS  C318 9206   6.478   0.930   8.720  0.1616 -1.0422  0.7135
   93SAPS  H18X 9207   6.522   0.965   8.816  0.1317  1.3312 -0.1166
   93SAPS  H18Y 9208   6.391   0.866   8.747 -0.3929 -0.4264  0.4008
   93SAPS  H18Z 9209   6.433   1.009   8.656  0.3461 -2.6366 -1.4735
   94SAPS     N 9210   6.188   4.628   5.561  0.0062  0.0791  0.4471
   94SAPS   HN1 9211   6.237   4.543   5.596  1.4441  0.1657 -1.2717
   94SAPS   HN2 9212   6.087   4.625   5.584  0.0362 -0.0974  0.5606
   94SAPS   HN3 9213   6.197   4.643   5.459 -1.4796 -1.0043  0.1367
   94SAPS   C12 9214   6.245   4.748   5.627  0.2571 -0.1413  0.4579
   94SAPS  H12A 9215   6.344   4.770   5.589  0.3660  0.4776  1.0972
   94SAPS   C13 9216   6.154   4.869   5.628 -0.4437 -0.7244  0.5022
   94SAPS  O13A 9217   6.032   4.850   5.608  0.8852 -0.0882 -0.2196
   94SAPS  O13B 9218   6.208   4.983   5.632 -0.3038  0.2631 -0.5308
   94SAPS   C11 9219   6.270   4.707   5.779  0.8641  0.5111 -0.4062
   94SAPS  H11A 9220   6.171   4.709   5.831  1.4449  1.6729  0.6906
   94SAPS  H11B 9221   6.342   4.787   5.805  0.1815  1.2317 -0.7063
   94SAPS     P 9222   6.249   4.461   5.847  0.2610  0.4629 -0.0453
   94SAPS   O13 9223   6.134   4.443   5.754  0.1841 -0.1868  0.6702
   94SAPS   O14 9224   6.342   4.344   5.875  0.3846 -0.6034  0.3177
   94SAPS   O12 9225   6.329   4.581   5.803 -0.0599 -0.1022  0.9154
   94SAPS   O11 9226   6.193   4.512   5.985 -0.2028 -0.6433 -0.4899
   94SAPS    C1 9227   6.279   4.554   6.094 -0.8819 -0.8132 -0.3615
   94SAPS    HA 9228   6.358   4.477   6.105  0.6717  0.8576  0.5247
   94SAPS    HB 9229   6.328   4.653   6.080  1.5990 -1.6411  1.9648
   94SAPS    C2 9230   6.196   4.573   6.227  0.0869 -0.3754  0.6793
   94SAPS    HS 9231   6.126   4.659   6.218  0.4832 -0.0892  0.2998
   94SAPS   O21 9232   6.284   4.570   6.340 -0.3218  0.0726 -0.2887
   94SAPS   C21 9233   6.374   4.669   6.346  0.4700 -0.6514  0.8007
   94SAPS   O22 9234   6.374   4.773   6.281  0.6340  0.3325  0.4554
   94SAPS   C22 9235   6.486   4.635   6.453  0.4688  0.1506 -0.2183
   94SAPS   H2R 9236   6.580   4.643   6.394  1.7230  0.0483  1.7413
   94SAPS   H2S 9237   6.482   4.720   6.524  1.1534  0.8051 -0.9521
   94SAPS    C3 9238   6.097   4.448   6.240 -0.8114 -0.0805  0.3737
   94SAPS    HX 9239   6.160   4.364   6.275 -2.5390 -2.0102 -1.0586
   94SAPS    HY 9240   6.040   4.423   6.148  0.1090 -2.0890  0.3310
   94SAPS   O31 9241   6.000   4.479   6.344  1.1021 -0.1662 -0.1395
   94SAPS   C31 9242   5.938   4.375   6.393 -0.0783 -0.4404 -0.2632
   94SAPS   O32 9243   5.951   4.260   6.358 -0.0535 -0.0473 -0.2627
   94SAPS   C32 9244   5.850   4.420   6.509 -0.4760 -0.2734  0.5281
   94SAPS   H2X 9245   5.746   4.389   6.483  0.3482  0.2008 -3.7182
   94SAPS   H2Y 9246   5.858   4.531   6.518 -1.2615 -0.2417  0.8879
   94SAPS   C23 9247   6.473   4.501   6.536  0.2009  0.2760  0.1417
   94SAPS   H3R 9248   6.556   4.489   6.609  0.4405 -2.0905 -0.4835
   94SAPS   H3S 9249   6.470   4.405   6.480 -1.7244  1.2526 -1.5417
   94SAPS   C24 9250   6.334   4.496   6.622 -0.1191  0.3668 -0.4611
   94SAPS   H4R 9251   6.252   4.473   6.550 -0.1044  1.4473 -0.8327
   94SAPS   H4S 9252   6.314   4.596   6.664  2.0241 -0.0369  1.6107
   94SAPS   C25 9253   6.334   4.403   6.742  0.0307  0.2576  0.9108
   94SAPS   H5R 9254   6.394   4.311   6.733 -0.0092  0.4234 -1.4222
   94SAPS   C26 9255   6.274   4.436   6.859 -0.2453 -0.4289 -0.1011
   94SAPS   H6R 9256   6.277   4.359   6.937  1.1415 -0.5505 -0.2646
   94SAPS   C27 9257   6.204   4.574   6.888 -0.2537  0.0690 -0.2239
   94SAPS   H7R 9258   6.119   4.555   6.956  0.4589  1.0426  0.9530
   94SAPS   H7S 9259   6.154   4.625   6.802 -2.4971  0.0258  1.0226
   94SAPS   C28 9260   6.291   4.678   6.964 -0.0715 -0.6277  0.1032
   94SAPS   H8R 9261   6.338   4.753   6.899 -0.8210  0.4091  0.7423
   94SAPS   C29 9262   6.306   4.695   7.098  0.9670 -1.0226  0.1228
   94SAPS   H9R 9263   6.365   4.781   7.133  0.2429 -0.4156 -0.1198
   94SAPS  C210 9264   6.244   4.623   7.217 -0.1036  0.5005 -0.2264
   94SAPS  H10R 9265   6.324   4.579   7.281  0.6493  0.6655 -1.0342
   94SAPS  H10S 9266   6.193   4.528   7.188  3.1445 -1.4938  0.3124
   94SAPS  C211 9267   6.156   4.706   7.304  0.0385  0.4405 -1.0999
   94SAPS  H11R 9268   6.090   4.775   7.250 -1.7285 -0.1681  0.2237
   94SAPS  C212 9269   6.142   4.710   7.440  0.5832  0.3567  0.1700
   94SAPS  H12R 9270   6.054   4.766   7.473 -0.6772 -0.7930 -1.1657
   94SAPS  C213 9271   6.213   4.636   7.548  0.8131 -0.2665 -0.6548
   94SAPS  H13R 9272   6.311   4.591   7.522  2.1286  2.6376 -0.8229
   94SAPS  H13S 9273   6.150   4.547   7.573 -1.3793  1.8809  1.7013
   94SAPS  C214 9274   6.249   4.707   7.676  0.6848 -0.1205 -1.0191
   94SAPS  H14R 9275   6.298   4.805   7.667  0.0711  0.4907  1.7892
   94SAPS  C215 9276   6.220   4.673   7.805 -0.1965  0.2416 -0.4706
   94SAPS  H15R 9277   6.250   4.739   7.886  1.1268  0.2351 -0.9470
   94SAPS  C216 9278   6.149   4.545   7.842  0.5720  0.6794 -0.2195
   94SAPS  H16R 9279   6.225   4.466   7.860 -1.1348 -1.1949 -0.9224
   94SAPS  H16S 9280   6.085   4.517   7.755  2.5667  3.0368 -2.5107
   94SAPS  C217 9281   6.057   4.538   7.960 -0.3022  1.1404 -0.7668
   94SAPS  H17R 9282   5.993   4.448   7.975  1.4454  0.3253  2.2093
   94SAPS  H17S 9283   5.991   4.627   7.948 -0.6457  0.8674 -0.9199
   94SAPS  C218 9284   6.132   4.554   8.100  0.5638  0.2085  0.0251
   94SAPS  H18R 9285   6.188   4.650   8.097 -1.2558  1.2593 -1.3820
   94SAPS  H18S 9286   6.214   4.479   8.108 -0.3427 -0.5773  2.2669
   94SAPS  C219 9287   6.035   4.551   8.220 -0.3548 -0.2586 -0.4252
   94SAPS  H19R 9288   5.958   4.630   8.210 -1.0218 -0.5158  2.1853
   94SAPS  H19S 9289   6.090   4.579   8.313 -0.9558 -0.8455  0.1169
   94SAPS  C220 9290   5.972   4.415   8.240 -0.5752 -0.8688  0.3527
   94SAPS  H20R 9291   5.877   4.415   8.182  0.1467  3.3330 -0.9803
   94SAPS  H20S 9292   5.945   4.396   8.346 -2.6921 -2.0484 -0.3844
   94SAPS  H20T 9293   6.037   4.334   8.200  1.8230  1.3956 -0.4790
   94SAPS   C33 9294   5.887   4.360   6.654 -0.3277 -0.0804  0.1169
   94SAPS   H3X 9295   5.998   4.367   6.648 -0.3842 -0.9726 -2.4982
   94SAPS   H3Y 9296   5.860   4.252   6.657  0.6976 -0.5028 -3.2489
   94SAPS   C34 9297   5.822   4.430   6.776 -0.0435  0.4531 -0.2642
   94SAPS   H4X 9298   5.713   4.442   6.761 -0.0526  2.0244  0.8860
   94SAPS   H4Y 9299   5.864   4.533   6.773  0.0498  0.3781 -1.8857
   94SAPS   C35 9300   5.853   4.362   6.902 -0.3438 -0.3966  0.1222
   94SAPS   H5X 9301   5.963   4.370   6.919 -0.2006 -1.2069 -0.4123
   94SAPS   H5Y 9302   5.833   4.253   6.895  1.3884 -0.7358  0.2079
   94SAPS   C36 9303   5.778   4.421   7.019  0.5187  0.1571  0.3735
   94SAPS   H6X 9304   5.682   4.365   7.024 -0.8465  2.0224 -3.2419
   94SAPS   H6Y 9305   5.749   4.522   6.982  1.0028 -0.3833 -1.5678
   94SAPS   C37 9306   5.865   4.418   7.145  0.2481 -0.2255 -0.0659
   94SAPS   H7X 9307   5.946   4.493   7.143  0.1776 -0.0910  1.9409
   94SAPS   H7Y 9308   5.911   4.319   7.166  1.9421  0.7070  0.7228
   94SAPS   C38 9309   5.783   4.451   7.264 -1.1119  0.4796 -0.1920
   94SAPS   H8X 9310   5.693   4.387   7.253  0.3018 -1.1499 -2.6879
   94SAPS   H8Y 9311   5.755   4.557   7.241 -3.3034  0.5841  2.6526
   94SAPS   C39 9312   5.874   4.464   7.390 -0.0364  0.2965 -0.2769
   94SAPS   H9X 9313   5.845   4.549   7.455 -0.0504 -0.8320  1.2173
   94SAPS   H9Y 9314   5.980   4.479   7.359 -0.3703 -0.9126 -2.0801
   94SAPS  C310 9315   5.874   4.345   7.491 -0.7432 -0.1622 -1.1863
   94SAPS  H10X 9316   5.785   4.282   7.472 -1.4363 -0.2089  1.8438
   94SAPS  H10Y 9317   5.853   4.395   7.588 -1.2756 -0.3800 -1.1898
   94SAPS  C311 9318   5.995   4.254   7.496 -0.0587  0.3594 -0.3291
   94SAPS  H11X 9319   6.087   4.316   7.501 -0.2962  0.8777 -2.1338
   94SAPS  H11Y 9320   5.995   4.206   7.396 -2.4543 -2.0860  0.7954
   94SAPS  C312 9321   5.997   4.152   7.611 -0.3177  0.2864  0.0639
   94SAPS  H12X 9322   6.085   4.083   7.607  1.0682  1.9874  0.6792
   94SAPS  H12Y 9323   5.905   4.096   7.585  2.0225 -3.3835 -0.8967
   94SAPS  C313 9324   5.994   4.218   7.752 -0.1137 -1.0766 -0.5658
   94SAPS  H13X 9325   5.906   4.287   7.745 -0.4681 -1.3821  0.7168
   94SAPS  H13Y 9326   6.091   4.268   7.772  0.2643 -0.5732 -3.4932
   94SAPS  C314 9327   5.959   4.132   7.863 -0.0475  0.3025  0.1728
   94SAPS  H14X 9328   5.850   4.113   7.869 -0.0404  0.0658 -0.4369
   94SAPS  H14Y 9329   5.987   4.183   7.957  1.5687 -0.5017  0.1452
   94SAPS  C315 9330   6.037   4.003   7.860  0.3331 -0.4864  0.1848
   94SAPS  H15X 9331   6.145   4.022   7.848 -0.2293  1.9700 -1.4499
   94SAPS  H15Y 9332   5.992   3.933   7.786 -1.4034  1.3621 -0.5765
   94SAPS  C316 9333   6.030   3.937   8.003 -0.3455  0.7318  0.2184
   94SAPS  H16X 9334   5.930   3.893   8.020 -0.7875  1.7737  0.3874
   94SAPS  H16Y 9335   6.030   4.019   8.079 -2.9611  1.1959 -0.2537
   94SAPS  C317 9336   6.131   3.819   8.029  0.1912  0.4230 -0.1043
   94SAPS  H17X 9337   6.232   3.866   8.030 -0.2897  1.5416  2.7388
   94SAPS  H17Y 9338   6.120   3.750   7.943 -1.2610  1.7141 -0.9789
   94SAPS  C318 9339   6.111   3.743   8.159 -0.5214  0.3824  0.3073
   94SAPS  H18X 9340   6.202   3.686   8.187 -0.1825  0.0450 -1.3918
   94SAPS  H18Y 9341   6.018   3.683   8.159 -1.3635  1.6368 -1.7262
   94SAPS  H18Z 9342   6.082   3.815   8.238 -1.1299  0.4797 -0.0096
   95SAPS     N 9343   2.835   2.709   6.046  0.0369  0.6283  0.1165
   95SAPS   HN1 9344   2.790   2.787   5.993 -0.6368  0.0168 -0.2153
   95SAPS   HN2 9345   2.758   2.668   6.102 -1.7144  1.0323 -1.9219
   95SAPS   HN3 9346   2.912   2.748   6.104  1.3731 -1.1962 -0.3991
   95SAPS   C12 9347   2.886   2.610   5.944  0.5337  0.8044  0.4702
   95SAPS  H12A 9348   2.791   2.568   5.913  0.1514  0.7175  1.7425
   95SAPS   C13 9349   2.960   2.671   5.824  0.2675 -0.1919 -0.0049
   95SAPS  O13A 9350   2.992   2.796   5.825  0.2289 -0.7181 -0.0243
   95SAPS  O13B 9351   2.974   2.602   5.717 -0.2737  0.1916  0.0587
   95SAPS   C11 9352   2.980   2.508   6.018 -0.1425 -0.4835 -0.0146
   95SAPS  H11A 9353   3.008   2.434   5.939  1.6343 -0.7332  0.8264
   95SAPS  H11B 9354   2.911   2.460   6.091 -1.1954 -2.6412 -2.3485
   95SAPS     P 9355   3.196   2.493   6.151  0.1395  0.1557  0.5218
   95SAPS   O13 9356   3.232   2.397   6.046 -0.1350  0.5079  0.2352
   95SAPS   O14 9357   3.308   2.580   6.203 -0.5206 -0.3625  0.6510
   95SAPS   O12 9358   3.085   2.582   6.086 -0.3463 -0.4586  0.2464
   95SAPS   O11 9359   3.118   2.432   6.275 -0.1134  0.2995 -0.2262
   95SAPS    C1 9360   3.061   2.511   6.378 -0.2797  0.2903  0.5385
   95SAPS    HA 9361   3.142   2.562   6.435 -0.6902  2.6719 -0.9908
   95SAPS    HB 9362   3.004   2.592   6.328 -1.0423  0.3297  1.4519
   95SAPS    C2 9363   2.981   2.410   6.470 -0.1044  0.0474 -0.4728
   95SAPS    HS 9364   2.914   2.464   6.541 -0.5672  0.0684 -0.9246
   95SAPS   O21 9365   3.077   2.326   6.538  0.2098 -0.0958 -0.4663
   95SAPS   C21 9366   3.051   2.276   6.652  0.9338 -0.1144  0.9984
   95SAPS   O22 9367   2.954   2.306   6.725 -0.3366  0.6664  0.1993
   95SAPS   C22 9368   3.159   2.175   6.694 -0.2970  0.1852  0.1755
   95SAPS   H2R 9369   3.144   2.070   6.658 -2.1649 -0.3471  2.4317
   95SAPS   H2S 9370   3.256   2.217   6.661  0.2298 -1.8841 -1.0442
   95SAPS    C3 9371   2.884   2.329   6.383  0.4972  0.4468 -0.1399
   95SAPS    HX 9372   2.941   2.259   6.318 -0.5144  1.2361 -1.9408
   95SAPS    HY 9373   2.829   2.406   6.324 -0.8329  0.5311  1.1929
   95SAPS   O31 9374   2.790   2.253   6.463  0.2927 -0.3194 -0.6882
   95SAPS   C31 9375   2.803   2.125   6.491 -0.7011 -0.0366 -0.3314
   95SAPS   O32 9376   2.886   2.047   6.450 -0.3367  0.2442 -0.1391
   95SAPS   C32 9377   2.702   2.078   6.594  0.6634  0.2451  0.0680
   95SAPS   H2X 9378   2.621   2.037   6.530  2.0305 -1.8950 -0.3369
   95SAPS   H2Y 9379   2.668   2.162   6.658  0.1228  0.5251 -0.5786
   95SAPS   C23 9380   3.145   2.149   6.840  0.5769 -1.2995 -0.0715
   95SAPS   H3R 9381   3.213   2.074   6.885 -0.2781 -1.0122  1.7209
   95SAPS   H3S 9382   3.043   2.112   6.863 -0.3696 -0.8570 -3.2479
   95SAPS   C24 9383   3.174   2.278   6.925 -0.2866 -0.0534 -1.3359
   95SAPS   H4R 9384   3.161   2.247   7.031 -1.6370  0.1371 -1.4380
   95SAPS   H4S 9385   3.100   2.354   6.894  0.3342  0.3410 -1.8549
   95SAPS   C25 9386   3.307   2.346   6.911  0.9468 -0.4374  0.1915
   95SAPS   H5R 9387   3.346   2.346   6.808  1.0438 -0.6230  0.2280
   95SAPS   C26 9388   3.389   2.399   7.005 -0.3483 -0.4402  0.6368
   95SAPS   H6R 9389   3.472   2.462   6.971  0.0603 -1.3722 -0.1227
   95SAPS   C27 9390   3.359   2.414   7.149  0.6156  0.5535  0.4275
   95SAPS   H7R 9391   3.448   2.451   7.204  0.8659  1.2084 -0.4016
   95SAPS   H7S 9392   3.343   2.315   7.197  1.6228  0.2157  0.0763
   95SAPS   C28 9393   3.238   2.503   7.177 -0.5336  0.6547 -0.1981
   95SAPS   H8R 9394   3.166   2.513   7.095 -2.5087 -0.8887  1.3062
   95SAPS   C29 9395   3.205   2.556   7.294 -0.0220 -0.4494 -0.2487
   95SAPS   H9R 9396   3.122   2.628   7.291  1.7987  1.7296  0.4374
   95SAPS  C210 9397   3.285   2.539   7.427 -0.5331  0.5244 -0.7101
   95SAPS  H10R 9398   3.303   2.643   7.464 -0.4522  0.1178  0.4249
   95SAPS  H10S 9399   3.377   2.479   7.411 -1.6441 -1.5140  0.3789
   95SAPS  C211 9400   3.205   2.451   7.528 -0.1102 -0.0165 -0.5227
   95SAPS  H11R 9401   3.142   2.371   7.486  1.9138 -1.7423 -0.3677
   95SAPS  C212 9402   3.236   2.439   7.665 -0.0235 -0.8788  0.4251
   95SAPS  H12R 9403   3.172   2.380   7.732 -1.0229 -1.0230 -0.6424
   95SAPS  C213 9404   3.336   2.525   7.741 -0.8456  0.0726  0.2906
   95SAPS  H13R 9405   3.407   2.577   7.672  1.0460 -2.4050  0.3095
   95SAPS  H13S 9406   3.396   2.454   7.801  0.3818  1.8684  1.2311
   95SAPS  C214 9407   3.278   2.633   7.823 -0.1505  0.0826 -0.0385
   95SAPS  H14R 9408   3.229   2.708   7.760 -0.1149 -0.2370 -0.4496
   95SAPS  C215 9409   3.260   2.645   7.958  0.3826  0.5621 -0.0845
   95SAPS  H15R 9410   3.221   2.737   8.003 -0.8052 -0.8103  1.7575
   95SAPS  C216 9411   3.309   2.538   8.057  0.4548 -0.5020  0.4409
   95SAPS  H16R 9412   3.404   2.582   8.093 -0.0649  1.2957 -0.3461
   95SAPS  H16S 9413   3.327   2.436   8.017 -0.2541 -0.5142  0.1529
   95SAPS  C217 9414   3.213   2.521   8.173 -0.3863 -0.3939 -0.3317
   95SAPS  H17R 9415   3.183   2.613   8.228  2.2481  0.2385  0.1113
   95SAPS  H17S 9416   3.251   2.454   8.253 -1.8889  0.6279  1.2587
   95SAPS  C218 9417   3.074   2.469   8.133  0.5130  0.6252 -0.5016
   95SAPS  H18R 9418   3.096   2.387   8.061 -1.1901 -2.2196  2.1316
   95SAPS  H18S 9419   3.020   2.554   8.086 -2.3987 -0.0022  1.6032
   95SAPS  C219 9420   2.987   2.424   8.260 -0.3826  0.4169 -0.6638
   95SAPS  H19R 9421   2.973   2.516   8.320  0.5590  0.2724 -0.2210
   95SAPS  H19S 9422   3.044   2.348   8.318 -1.0649  0.4358  0.0340
   95SAPS  C220 9423   2.846   2.371   8.219 -0.5425  0.1287  0.6732
   95SAPS  H20R 9424   2.859   2.278   8.159  1.7255  1.8053 -1.5382
   95SAPS  H20S 9425   2.791   2.443   8.155 -0.2322 -0.8826 -0.7475
   95SAPS  H20T 9426   2.777   2.346   8.303 -0.6551 -0.7687  0.3149
   95SAPS   C33 9427   2.736   1.949   6.672 -0.1147 -0.4318  0.5230
   95SAPS   H3X 9428   2.824   1.977   6.734 -0.8419 -0.2625  1.4751
   95SAPS   H3Y 9429   2.776   1.875   6.599 -1.2073  2.5037 -3.2347
   95SAPS   C34 9430   2.625   1.904   6.762  0.0609 -0.2572 -0.0049
   95SAPS   H4X 9431   2.648   1.805   6.808 -1.0887 -0.3003  0.4932
   95SAPS   H4Y 9432   2.536   1.883   6.699  0.3051 -0.4446 -0.2874
   95SAPS   C35 9433   2.591   2.010   6.866 -0.4656 -0.6513 -0.4361
   95SAPS   H5X 9434   2.565   2.115   6.839  0.1112  0.2354  2.2255
   95SAPS   H5Y 9435   2.675   2.004   6.939 -0.8260  2.4918  0.3308
   95SAPS   C36 9436   2.462   1.976   6.948 -0.4386 -0.0999 -0.5237
   95SAPS   H6X 9437   2.475   1.867   6.960  0.7744  0.1923  1.0127
   95SAPS   H6Y 9438   2.371   1.999   6.888 -1.0510  0.0488  0.4548
   95SAPS   C37 9439   2.459   2.042   7.080 -0.9855 -0.0407 -0.7606
   95SAPS   H7X 9440   2.359   2.022   7.124 -0.7557  0.5524  0.0255
   95SAPS   H7Y 9441   2.464   2.152   7.069 -3.9467  0.0517 -1.7299
   95SAPS   C38 9442   2.576   1.997   7.186  0.3604 -0.0179 -0.2727
   95SAPS   H8X 9443   2.574   2.067   7.272 -1.7313 -1.0424  0.5478
   95SAPS   H8Y 9444   2.680   2.004   7.148  0.1509 -2.8990 -1.4929
   95SAPS   C39 9445   2.560   1.853   7.243  0.3221 -0.3578  0.4102
   95SAPS   H9X 9446   2.561   1.784   7.156  2.6435  2.0441 -1.5534
   95SAPS   H9Y 9447   2.467   1.835   7.302 -1.8124 -0.9725 -3.0359
   95SAPS  C310 9448   2.679   1.811   7.340  0.3618  0.4862 -0.5660
   95SAPS  H10X 9449   2.668   1.885   7.422  3.9278  0.4527  0.0189
   95SAPS  H10Y 9450   2.767   1.827   7.275  1.1716 -0.4858  0.2583
   95SAPS  C311 9451   2.664   1.661   7.388  0.2826  0.0255 -0.7110
   95SAPS  H11X 9452   2.675   1.596   7.298 -0.8301 -4.9268  2.4985
   95SAPS  H11Y 9453   2.566   1.643   7.436  1.1934  1.2823  1.6577
   95SAPS  C312 9454   2.771   1.632   7.495 -0.1047  0.2749 -1.1082
   95SAPS  H12X 9455   2.869   1.646   7.445 -1.3047  3.2679 -2.7579
   95SAPS  H12Y 9456   2.769   1.522   7.509 -1.2013  0.6657  2.3403
   95SAPS  C313 9457   2.754   1.707   7.626 -0.3565 -0.4888 -0.0637
   95SAPS  H13X 9458   2.656   1.682   7.671 -0.2519  0.3458  0.6461
   95SAPS  H13Y 9459   2.762   1.816   7.612  1.2525 -0.2737  2.3177
   95SAPS  C314 9460   2.855   1.662   7.731 -0.3521  0.7738 -0.2833
   95SAPS  H14X 9461   2.955   1.708   7.718  1.3440 -1.7863  2.7524
   95SAPS  H14Y 9462   2.852   1.551   7.732 -1.1509  0.7866 -0.6820
   95SAPS  C315 9463   2.822   1.702   7.883  0.5597  0.7265  0.4925
   95SAPS  H15X 9464   2.734   1.640   7.907  2.0566 -1.1905  1.1509
   95SAPS  H15Y 9465   2.808   1.811   7.899 -0.6657  0.7910 -0.8634
   95SAPS  C316 9466   2.928   1.657   7.981  0.2544  0.5735  0.0068
   95SAPS  H16X 9467   3.020   1.715   7.962  0.1870  0.2345 -1.3997
   95SAPS  H16Y 9468   2.936   1.549   7.957 -1.5814  0.1045  1.3526
   95SAPS  C317 9469   2.876   1.682   8.122 -0.4531 -0.2279 -0.5850
   95SAPS  H17X 9470   2.766   1.663   8.127 -0.5057  0.2049 -0.0863
   95SAPS  H17Y 9471   2.901   1.789   8.137 -1.1360 -0.3937  1.9458
   95SAPS  C318 9472   2.943   1.605   8.231 -0.0751 -0.1488  0.0748
   95SAPS  H18X 9473   2.926   1.496   8.219  0.4041 -0.6010  3.2598
   95SAPS  H18Y 9474   2.899   1.626   8.330  1.4907  0.2971  0.6907
   95SAPS  H18Z 9475   3.052   1.628   8.240 -0.0800 -0.2366  0.3494
   96SAPS     N 9476   3.173   2.928   5.959  0.2540 -0.2569 -0.2740
   96SAPS   HN1 9477   3.117   2.947   6.044 -0.6129  2.4831 -1.3965
   96SAPS   HN2 9478   3.110   2.968   5.886 -0.4731 -1.9452 -0.6040
   96SAPS   HN3 9479   3.166   2.824   5.946 -3.9621 -0.3089  1.6083
   96SAPS   C12 9480   3.308   2.990   5.961  0.6160  0.0435 -0.0037
   96SAPS  H12A 9481   3.366   2.926   6.026  0.0603  0.0361  0.4812
   96SAPS   C13 9482   3.380   3.000   5.822  0.8857 -0.2536 -0.6195
   96SAPS  O13A 9483   3.325   2.951   5.724  0.3096 -0.8225 -0.1329
   96SAPS  O13B 9484   3.500   3.039   5.826  1.1472 -0.2824  0.2904
   96SAPS   C11 9485   3.308   3.129   6.030  0.1004 -0.0621 -0.4738
   96SAPS  H11A 9486   3.257   3.200   5.961  0.2000 -1.3708 -1.9020
   96SAPS  H11B 9487   3.410   3.171   6.041  0.6531 -1.5569  0.2292
   96SAPS     P 9488   3.142   3.233   6.208 -0.3835  0.1129 -0.0212
   96SAPS   O13 9489   3.080   3.304   6.098  0.4452  0.0344 -0.1389
   96SAPS   O14 9490   3.055   3.164   6.307 -0.1438 -0.2112  0.6117
   96SAPS   O12 9491   3.240   3.117   6.160  0.5965 -0.1081  0.3069
   96SAPS   O11 9492   3.241   3.322   6.294  0.2298 -0.2322  0.4048
   96SAPS    C1 9493   3.368   3.279   6.331 -0.6467 -0.2473 -1.1312
   96SAPS    HA 9494   3.422   3.235   6.244 -1.7903 -1.5075 -1.1985
   96SAPS    HB 9495   3.424   3.372   6.357  1.0101 -1.3284 -0.7466
   96SAPS    C2 9496   3.378   3.170   6.445 -0.6936  0.3294  0.1392
   96SAPS    HS 9497   3.347   3.070   6.408  1.2892  0.4829 -2.0281
   96SAPS   O21 9498   3.292   3.226   6.547 -0.0707 -0.4520  0.7550
   96SAPS   C21 9499   3.304   3.160   6.659  0.5167 -1.1807  0.2374
   96SAPS   O22 9500   3.370   3.057   6.684  0.1959  0.4159 -0.5643
   96SAPS   C22 9501   3.222   3.230   6.771  0.1268  0.3482 -0.0504
   96SAPS   H2R 9502   3.252   3.336   6.755  2.1101  0.0024  1.2445
   96SAPS   H2S 9503   3.112   3.213   6.764 -0.3407  2.0557  2.3932
   96SAPS    C3 9504   3.531   3.159   6.483  0.6655 -0.1273 -0.2828
   96SAPS    HX 9505   3.601   3.175   6.399  2.3588  1.7606  1.4285
   96SAPS    HY 9506   3.545   3.053   6.512  1.1455 -0.1287 -0.5239
   96SAPS   O31 9507   3.557   3.240   6.596 -0.8495 -0.4594  0.1805
   96SAPS   C31 9508   3.678   3.216   6.652 -0.0232  0.7146 -0.3358
   96SAPS   O32 9509   3.753   3.133   6.608 -0.1913  0.3207  0.0955
   96SAPS   C32 9510   3.707   3.305   6.774  0.0904  0.4378  0.7448
   96SAPS   H2X 9511   3.660   3.404   6.754 -0.4677  0.3633  1.6907
   96SAPS   H2Y 9512   3.816   3.324   6.770  0.4025 -1.2309  1.1461
   96SAPS   C23 9513   3.250   3.181   6.914 -0.2481 -0.1891 -1.1064
   96SAPS   H3R 9514   3.348   3.222   6.949 -0.6081 -1.4493  1.5344
   96SAPS   H3S 9515   3.263   3.071   6.910 -0.3572 -0.2187 -0.6752
   96SAPS   C24 9516   3.144   3.221   7.019  0.4210 -0.1731  0.6398
   96SAPS   H4R 9517   3.167   3.155   7.106 -0.5201 -0.0760  0.9722
   96SAPS   H4S 9518   3.042   3.186   6.991  0.0781 -1.2367  3.1246
   96SAPS   C25 9519   3.135   3.365   7.056  0.2530 -0.1530  0.5096
   96SAPS   H5R 9520   3.148   3.422   6.962  0.3648 -0.5297  0.2948
   96SAPS   C26 9521   3.130   3.425   7.176  0.1182  0.2525  0.0046
   96SAPS   H6R 9522   3.124   3.535   7.178  1.6891  0.3538 -0.3304
   96SAPS   C27 9523   3.126   3.372   7.314 -0.5957 -0.8232 -0.3908
   96SAPS   H7R 9524   3.048   3.294   7.325  0.9894 -2.1118  2.0264
   96SAPS   H7S 9525   3.115   3.448   7.395 -0.1963  0.7899 -1.8102
   96SAPS   C28 9526   3.249   3.304   7.358  0.0230  0.1665 -0.5846
   96SAPS   H8R 9527   3.325   3.293   7.279 -0.9781 -1.9301 -1.3072
   96SAPS   C29 9528   3.278   3.270   7.486  0.2078 -0.1241 -0.3417
   96SAPS   H9R 9529   3.370   3.211   7.500  0.0238 -0.6549 -1.3116
   96SAPS  C210 9530   3.195   3.286   7.613 -0.7904  0.4150  0.2387
   96SAPS  H10R 9531   3.087   3.313   7.604 -0.8830  0.2809  0.8954
   96SAPS  H10S 9532   3.232   3.378   7.664  2.3521 -1.1439  0.8404
   96SAPS  C211 9533   3.201   3.160   7.693 -0.6389 -0.2075 -0.0540
   96SAPS  H11R 9534   3.213   3.068   7.633 -1.8976  0.9321 -2.1013
   96SAPS  C212 9535   3.194   3.152   7.834  0.2634  0.6951 -0.2718
   96SAPS  H12R 9536   3.180   3.053   7.878  0.3833  1.2457  1.0417
   96SAPS  C213 9537   3.179   3.266   7.931  0.1484  0.1056  0.0063
   96SAPS  H13R 9538   3.171   3.355   7.865 -0.8263 -0.1061 -0.1724
   96SAPS  H13S 9539   3.270   3.263   7.995 -0.0143  0.5802  0.2662
   96SAPS  C214 9540   3.054   3.262   8.007 -0.4007 -0.8293 -0.0928
   96SAPS  H14R 9541   2.965   3.250   7.943 -1.3006  0.6948  0.8392
   96SAPS  C215 9542   3.042   3.294   8.137  0.3163 -0.6610 -0.1323
   96SAPS  H15R 9543   2.940   3.290   8.178 -0.5474  2.3467 -1.8481
   96SAPS  C216 9544   3.156   3.334   8.233  0.4257 -0.2191 -0.7610
   96SAPS  H16R 9545   3.116   3.422   8.288 -0.5655 -1.3547  0.3652
   96SAPS  H16S 9546   3.251   3.366   8.186 -0.1413  2.3359 -0.2453
   96SAPS  C217 9547   3.189   3.226   8.331 -0.3175  0.4015 -1.0297
   96SAPS  H17R 9548   3.096   3.176   8.365 -1.1827  1.6539 -1.5196
   96SAPS  H17S 9549   3.229   3.277   8.422  0.4898 -1.5392 -0.2642
   96SAPS  C218 9550   3.299   3.130   8.288 -0.1200  0.2618  0.4351
   96SAPS  H18R 9551   3.389   3.191   8.266 -0.4444  0.8739  0.7787
   96SAPS  H18S 9552   3.267   3.069   8.201 -0.6539  0.2719  0.6222
   96SAPS  C219 9553   3.340   3.029   8.396 -0.3096  0.0876 -0.6442
   96SAPS  H19R 9554   3.386   3.092   8.475  0.4222  1.3199 -2.0199
   96SAPS  H19S 9555   3.424   2.968   8.357  0.3941  1.5112 -1.4177
   96SAPS  C220 9556   3.233   2.937   8.459 -0.2608 -0.0157  0.1811
   96SAPS  H20R 9557   3.215   2.858   8.382  0.3874  1.7476 -1.8274
   96SAPS  H20S 9558   3.133   2.978   8.483 -0.6211 -1.4923  1.2615
   96SAPS  H20T 9559   3.268   2.891   8.554 -0.4517 -1.4535 -0.4259
   96SAPS   C33 9560   3.677   3.240   6.910  0.5500 -0.2123  0.0010
   96SAPS   H3X 9561   3.729   3.142   6.906  1.1407  0.0152  1.6906
   96SAPS   H3Y 9562   3.576   3.226   6.953  0.8673  0.6877  1.0820
   96SAPS   C34 9563   3.757   3.329   7.013 -0.0330  0.1512 -0.2558
   96SAPS   H4X 9564   3.722   3.434   7.003 -2.5628 -0.6461 -0.1127
   96SAPS   H4Y 9565   3.864   3.322   6.985 -0.1733 -3.6946 -0.1406
   96SAPS   C35 9566   3.741   3.266   7.156 -0.3656 -0.3547 -0.0839
   96SAPS   H5X 9567   3.764   3.157   7.156 -0.7280 -0.4296  0.2704
   96SAPS   H5Y 9568   3.632   3.267   7.173 -0.3264 -0.7807  0.2119
   96SAPS   C36 9569   3.817   3.332   7.278 -0.5221 -0.4598  0.3886
   96SAPS   H6X 9570   3.765   3.415   7.331  1.6675  1.0943  0.1759
   96SAPS   H6Y 9571   3.910   3.377   7.237  0.2136 -1.4573  0.9493
   96SAPS   C37 9572   3.845   3.228   7.392 -0.5285 -0.0832  0.5015
   96SAPS   H7X 9573   3.901   3.145   7.343  1.1033  1.7378 -0.8004
   96SAPS   H7Y 9574   3.746   3.197   7.430 -1.4589  0.6780 -1.2220
   96SAPS   C38 9575   3.933   3.287   7.503 -0.4788 -0.5734  0.3288
   96SAPS   H8X 9576   3.888   3.385   7.532 -1.6485 -1.0966  0.3178
   96SAPS   H8Y 9577   4.032   3.314   7.461  0.3386  0.4207  2.7561
   96SAPS   C39 9578   3.932   3.207   7.634 -0.0239  0.5303 -0.2506
   96SAPS   H9X 9579   4.015   3.243   7.698 -0.6202 -0.3810  1.0553
   96SAPS   H9Y 9580   3.962   3.104   7.605 -0.0847  0.2786  0.5587
   96SAPS  C310 9581   3.794   3.198   7.717  0.0222  0.3093  0.1551
   96SAPS  H10X 9582   3.819   3.127   7.799 -1.2079  0.6331  0.8347
   96SAPS  H10Y 9583   3.709   3.145   7.668  0.5502  0.0008 -0.4262
   96SAPS  C311 9584   3.750   3.319   7.791 -0.3961  0.2182  0.0109
   96SAPS  H11X 9585   3.667   3.375   7.742 -1.7481 -0.9367  0.9414
   96SAPS  H11Y 9586   3.840   3.382   7.806  0.2066 -0.1466 -1.9310
   96SAPS  C312 9587   3.700   3.296   7.939  0.2275 -0.3511  0.8458
   96SAPS  H12X 9588   3.766   3.225   7.993  1.2286 -0.3070 -0.2663
   96SAPS  H12Y 9589   3.603   3.246   7.918  0.9679 -0.4848 -2.6019
   96SAPS  C313 9590   3.668   3.415   8.021 -0.3538 -0.3849 -0.1399
   96SAPS  H13X 9591   3.572   3.453   7.981 -1.6702 -0.5613  2.7519
   96SAPS  H13Y 9592   3.754   3.486   8.027  0.1007 -0.9452  0.0480
   96SAPS  C314 9593   3.628   3.364   8.165 -0.2385 -0.0680 -0.5105
   96SAPS  H14X 9594   3.714   3.329   8.225  0.2666 -3.9547 -3.2905
   96SAPS  H14Y 9595   3.562   3.275   8.159 -0.4182  0.1123 -1.2728
   96SAPS  C315 9596   3.563   3.480   8.242  0.3999 -0.9071 -0.4010
   96SAPS  H15X 9597   3.467   3.512   8.195 -0.4751 -2.5072  0.2523
   96SAPS  H15Y 9598   3.634   3.565   8.239  0.2312 -0.6503  1.8105
   96SAPS  C316 9599   3.523   3.447   8.390  0.5619  0.3402  0.6027
   96SAPS  H16X 9600   3.613   3.424   8.451  0.2780 -1.1225  0.4937
   96SAPS  H16Y 9601   3.451   3.363   8.393  3.7191 -2.4607  2.4934
   96SAPS  C317 9602   3.456   3.569   8.450 -0.2285 -0.1434 -0.8255
   96SAPS  H17X 9603   3.508   3.663   8.420 -3.5966  1.4730 -1.8075
   96SAPS  H17Y 9604   3.461   3.557   8.560  1.7674 -1.7561 -1.0496
   96SAPS  C318 9605   3.303   3.585   8.424  0.3776  0.4045 -0.4246
   96SAPS  H18X 9606   3.265   3.683   8.459 -3.1478 -0.6814 -0.9305
   96SAPS  H18Y 9607   3.251   3.498   8.468 -1.4163  0.1606 -2.8710
   96SAPS  H18Z 9608   3.294   3.583   8.313  1.8129 -0.0918 -0.5442
   97SAPS     N 9609   4.335   1.909   6.101  0.3164  0.0158 -0.4043
   97SAPS   HN1 9610   4.289   1.986   6.049  1.8715  0.3590 -1.2593
   97SAPS   HN2 9611   4.355   1.831   6.035 -3.0827 -1.2482 -0.0876
   97SAPS   HN3 9612   4.274   1.868   6.176  0.1579  2.5436  0.9107
   97SAPS   C12 9613   4.456   1.960   6.160  0.1950  0.1018 -0.8568
   97SAPS  H12A 9614   4.521   1.960   6.073 -2.6651 -0.2731 -3.0749
   97SAPS   C13 9615   4.449   2.105   6.200 -0.3672  0.1013 -0.0138
   97SAPS  O13A 9616   4.345   2.174   6.184  0.0283  0.2724 -0.1230
   97SAPS  O13B 9617   4.556   2.153   6.246 -0.0649 -0.6239  0.0782
   97SAPS   C11 9618   4.503   1.873   6.284  0.4513  0.2776  0.4202
   97SAPS  H11A 9619   4.589   1.927   6.328  1.6764 -2.5238  1.6322
   97SAPS  H11B 9620   4.541   1.777   6.242  1.4326  1.1744 -0.7391
   97SAPS     P 9621   4.361   1.716   6.433  0.0601 -0.3744  0.0992
   97SAPS   O13 9622   4.247   1.718   6.530  0.6829 -0.6421 -0.1890
   97SAPS   O14 9623   4.340   1.630   6.313  0.6257 -0.2327  0.4516
   97SAPS   O12 9624   4.393   1.856   6.373 -0.3559 -0.0710  0.0498
   97SAPS   O11 9625   4.498   1.676   6.508 -0.4848 -0.5124  0.6250
   97SAPS    C1 9626   4.552   1.761   6.612 -0.3280 -0.1495  1.3169
   97SAPS    HA 9627   4.625   1.834   6.572 -0.3655 -0.6638  0.2883
   97SAPS    HB 9628   4.467   1.815   6.661 -1.3195 -0.3561 -0.1561
   97SAPS    C2 9629   4.608   1.675   6.732  0.5044 -0.0198  0.6016
   97SAPS    HS 9630   4.645   1.737   6.817 -3.5112  1.1097  1.6418
   97SAPS   O21 9631   4.713   1.593   6.693 -0.5243  0.0192 -0.0915
   97SAPS   C21 9632   4.818   1.639   6.618 -0.1078  0.0522 -1.0133
   97SAPS   O22 9633   4.841   1.759   6.599  0.8292 -0.8516  0.4686
   97SAPS   C22 9634   4.921   1.533   6.569  0.0456 -0.1747  0.5004
   97SAPS   H2R 9635   4.888   1.479   6.478  3.4923  2.3745 -2.4414
   97SAPS   H2S 9636   5.016   1.584   6.541  0.1997 -0.3869  0.6381
   97SAPS    C3 9637   4.494   1.587   6.789 -0.6031  0.8487  0.4364
   97SAPS    HX 9638   4.540   1.531   6.872 -0.7679  0.9675  0.6086
   97SAPS    HY 9639   4.466   1.531   6.697  2.4948  1.4365 -0.9305
   97SAPS   O31 9640   4.388   1.666   6.837 -0.0226 -0.6085  0.3018
   97SAPS   C31 9641   4.261   1.627   6.830 -0.3304 -0.2414 -0.2880
   97SAPS   O32 9642   4.217   1.525   6.779  0.1347 -0.4045 -0.5644
   97SAPS   C32 9643   4.174   1.737   6.901  0.0252  0.0715  0.7041
   97SAPS   H2X 9644   4.093   1.767   6.831 -1.8884 -1.6926  2.0923
   97SAPS   H2Y 9645   4.234   1.828   6.923 -1.6545  1.4632 -0.3314
   97SAPS   C23 9646   4.956   1.429   6.677  0.8099 -0.1844  0.3391
   97SAPS   H3R 9647   4.987   1.342   6.615 -0.5624  0.7956 -1.7846
   97SAPS   H3S 9648   4.873   1.391   6.741  0.0445  2.1400  0.7499
   97SAPS   C24 9649   5.084   1.467   6.762 -0.5516  0.3232  0.7958
   97SAPS   H4R 9650   5.171   1.462   6.694 -2.3730  1.7360 -1.6757
   97SAPS   H4S 9651   5.106   1.385   6.835 -2.6001  0.5629  1.7190
   97SAPS   C25 9652   5.063   1.593   6.836  0.4581  0.0979 -0.7333
   97SAPS   H5R 9653   5.081   1.688   6.784 -3.8454  2.7310  2.3014
   97SAPS   C26 9654   5.008   1.609   6.956  0.2577  0.1504  1.1923
   97SAPS   H6R 9655   4.987   1.710   6.995 -0.3855  0.4875 -0.0021
   97SAPS   C27 9656   4.950   1.506   7.046  1.0598  0.4709 -1.3348
   97SAPS   H7R 9657   4.926   1.573   7.132 -3.5164  2.0801 -3.6562
   97SAPS   H7S 9658   5.033   1.436   7.068  0.8616  0.5235 -0.4122
   97SAPS   C28 9659   4.824   1.441   7.000 -0.5112 -0.0894  0.2838
   97SAPS   H8R 9660   4.826   1.377   6.911 -1.4985 -1.2486  1.0755
   97SAPS   C29 9661   4.707   1.451   7.062  0.3536  0.3683 -0.0144
   97SAPS   H9R 9662   4.625   1.383   7.035 -1.2334  1.8130  1.0776
   97SAPS  C210 9663   4.680   1.537   7.183 -0.1809 -0.0555 -0.2051
   97SAPS  H10R 9664   4.718   1.640   7.166  0.3784 -0.0974  0.7291
   97SAPS  H10S 9665   4.750   1.507   7.264 -1.4855  2.6835  2.0323
   97SAPS  C211 9666   4.539   1.548   7.230 -0.2523 -0.3750 -1.2158
   97SAPS  H11R 9667   4.474   1.627   7.190 -1.6811 -0.2160  1.2945
   97SAPS  C212 9668   4.487   1.480   7.338 -0.4110  0.1371 -0.8872
   97SAPS  H12R 9669   4.381   1.482   7.368 -0.6139 -0.5530 -1.5264
   97SAPS  C213 9670   4.560   1.379   7.431  0.2822 -0.2813  0.1501
   97SAPS  H13R 9671   4.663   1.414   7.454 -0.1064  1.0236 -0.0411
   97SAPS  H13S 9672   4.581   1.284   7.379 -2.9047 -1.5937  1.1214
   97SAPS  C214 9673   4.487   1.350   7.561  0.0357 -0.1774  0.2763
   97SAPS  H14R 9674   4.418   1.265   7.559 -0.7646  0.4677  0.4064
   97SAPS  C215 9675   4.490   1.440   7.667  0.5105 -0.0728  0.1094
   97SAPS  H15R 9676   4.428   1.415   7.755  1.5580 -2.6080  0.1557
   97SAPS  C216 9677   4.557   1.574   7.669  0.1079  0.6395 -0.2539
   97SAPS  H16R 9678   4.491   1.642   7.728 -1.9410  0.1838 -1.9525
   97SAPS  H16S 9679   4.578   1.614   7.567 -0.9534  0.2374 -0.6444
   97SAPS  C217 9680   4.687   1.580   7.750  0.0657 -0.5957  0.7141
   97SAPS  H17R 9681   4.744   1.668   7.712  1.1611 -1.7270 -0.3043
   97SAPS  H17S 9682   4.754   1.494   7.730  1.2694  0.6662 -0.8300
   97SAPS  C218 9683   4.670   1.578   7.901 -0.1871  1.2253 -0.0996
   97SAPS  H18R 9684   4.627   1.483   7.939 -0.3596  1.1264 -0.5451
   97SAPS  H18S 9685   4.607   1.664   7.932  0.5287  1.8695 -0.4019
   97SAPS  C219 9686   4.799   1.594   7.977 -0.0386 -0.0523 -0.3291
   97SAPS  H19R 9687   4.845   1.685   7.932 -0.7448  0.1577 -0.6349
   97SAPS  H19S 9688   4.863   1.507   7.949 -1.5354 -1.5722  0.8577
   97SAPS  C220 9689   4.786   1.610   8.125 -0.0024  0.1251  0.1732
   97SAPS  H20R 9690   4.882   1.629   8.178 -0.2771  1.3804  0.2404
   97SAPS  H20S 9691   4.741   1.519   8.169 -1.5043  1.8443  2.2362
   97SAPS  H20T 9692   4.724   1.698   8.150  1.2887  1.6382 -1.7761
   97SAPS   C33 9693   4.104   1.677   7.027 -0.2915  0.1464  0.9155
   97SAPS   H3X 9694   4.183   1.647   7.099  0.4439 -2.1165 -0.7838
   97SAPS   H3Y 9695   4.050   1.583   7.004 -0.2319 -0.3841  2.8052
   97SAPS   C34 9696   4.016   1.775   7.098 -0.8886 -0.0226  0.1042
   97SAPS   H4X 9697   3.913   1.764   7.058 -0.3535 -4.3443 -0.2978
   97SAPS   H4Y 9698   4.059   1.875   7.078 -1.3167  0.0843 -0.2837
   97SAPS   C35 9699   4.010   1.760   7.247  0.1092 -0.8530 -0.5588
   97SAPS   H5X 9700   3.941   1.683   7.286  1.9867 -2.5867 -0.5691
   97SAPS   H5Y 9701   3.961   1.853   7.283 -1.2675 -1.6541 -0.3593
   97SAPS   C36 9702   4.146   1.757   7.329 -0.4759 -0.0028 -0.1153
   97SAPS   H6X 9703   4.200   1.848   7.294 -0.1531  0.5531  1.7370
   97SAPS   H6Y 9704   4.202   1.662   7.321 -0.6433 -0.0364 -0.9490
   97SAPS   C37 9705   4.117   1.778   7.477 -0.3748  0.0090  0.7746
   97SAPS   H7X 9706   4.087   1.678   7.517  1.4364 -0.2061  1.6141
   97SAPS   H7Y 9707   4.037   1.851   7.503 -1.5076 -0.4417 -1.3469
   97SAPS   C38 9708   4.234   1.826   7.558 -0.0587 -0.0981  0.2678
   97SAPS   H8X 9709   4.261   1.930   7.529  1.1040  0.1991  2.3607
   97SAPS   H8Y 9710   4.320   1.757   7.543 -0.2583  0.4598 -4.5215
   97SAPS   C39 9711   4.208   1.840   7.713 -0.6581 -0.4557  0.7405
   97SAPS   H9X 9712   4.138   1.923   7.736  0.0312 -0.3348  2.4277
   97SAPS   H9Y 9713   4.310   1.867   7.750  0.3114 -0.7421 -1.6205
   97SAPS  C310 9714   4.168   1.708   7.779 -0.4039 -0.2383 -0.4460
   97SAPS  H10X 9715   4.244   1.633   7.747 -0.6610 -1.1358  0.9992
   97SAPS  H10Y 9716   4.072   1.674   7.735  0.9361 -1.7197 -2.3387
   97SAPS  C311 9717   4.154   1.704   7.935 -0.7491 -0.3535 -0.0229
   97SAPS  H11X 9718   4.133   1.600   7.969 -0.9428 -0.4248 -0.3641
   97SAPS  H11Y 9719   4.067   1.765   7.970  0.3022  0.5039  1.1279
   97SAPS  C312 9720   4.288   1.743   8.009 -0.1793  0.4411 -0.5330
   97SAPS  H12X 9721   4.324   1.846   7.989  0.3018  0.5776  0.9810
   97SAPS  H12Y 9722   4.375   1.679   7.978 -1.4703 -1.1874 -0.8855
   97SAPS  C313 9723   4.279   1.712   8.159 -0.1106  0.0743 -0.1212
   97SAPS  H13X 9724   4.227   1.614   8.169  1.4530 -0.6880  0.6000
   97SAPS  H13Y 9725   4.222   1.796   8.204  0.1247  0.6463 -0.8715
   97SAPS  C314 9726   4.419   1.704   8.227 -0.1059  0.3176  0.1698
   97SAPS  H14X 9727   4.461   1.807   8.224  1.5651 -0.3526 -0.0955
   97SAPS  H14Y 9728   4.479   1.638   8.161 -0.9325 -0.0661 -0.2065
   97SAPS  C315 9729   4.405   1.676   8.376 -0.0591  0.4741  0.5197
   97SAPS  H15X 9730   4.333   1.592   8.384  0.6275 -0.1680  0.0886
   97SAPS  H15Y 9731   4.358   1.765   8.423 -2.0982  0.5268 -1.5475
   97SAPS  C316 9732   4.539   1.617   8.444  1.0516  0.3249  0.0873
   97SAPS  H16X 9733   4.615   1.697   8.434  0.8412  0.5212  0.0440
   97SAPS  H16Y 9734   4.563   1.519   8.395 -1.2867 -0.4824  0.4804
   97SAPS  C317 9735   4.541   1.598   8.599 -0.3452  0.1135  0.5654
   97SAPS  H17X 9736   4.516   1.695   8.647 -2.2838 -0.1506  0.1417
   97SAPS  H17Y 9737   4.647   1.575   8.621 -0.1650 -0.0804 -0.5191
   97SAPS  C318 9738   4.457   1.489   8.653 -0.1107  0.4702  0.0741
   97SAPS  H18X 9739   4.448   1.486   8.764 -0.6588 -0.0076  0.0165
   97SAPS  H18Y 9740   4.484   1.392   8.607  0.2168  0.4700  0.2664
   97SAPS  H18Z 9741   4.353   1.510   8.618  0.2237  0.2608 -1.0667
   98SAPS     N 9742   2.347   2.043   6.333 -0.5556 -0.0367 -0.2624
   98SAPS   HN1 9743   2.419   2.034   6.258  1.3283  1.6874  1.2886
   98SAPS   HN2 9744   2.368   2.128   6.389 -1.3747 -0.7334  1.1009
   98SAPS   HN3 9745   2.371   1.959   6.388  0.5785  0.1238 -0.4977
   98SAPS   C12 9746   2.216   2.049   6.275  0.1476  0.8381 -0.4778
   98SAPS  H12A 9747   2.154   2.111   6.338  0.7416  2.6846 -1.6734
   98SAPS   C13 9748   2.225   2.110   6.133 -0.0324 -0.7497 -0.2591
   98SAPS  O13A 9749   2.330   2.170   6.102  0.3558  0.0763 -0.7266
   98SAPS  O13B 9750   2.110   2.137   6.082 -0.1327 -0.1607 -0.2718
   98SAPS   C11 9751   2.154   1.904   6.266  0.0930 -0.2817 -0.3953
   98SAPS  H11A 9752   2.054   1.900   6.217 -0.9859 -0.7322  1.8086
   98SAPS  H11B 9753   2.137   1.867   6.369  1.3136 -0.7422 -0.3461
   98SAPS     P 9754   2.217   1.665   6.179  0.5918 -0.0853  0.3320
   98SAPS   O13 9755   2.079   1.638   6.127 -0.0496  0.2580  0.0614
   98SAPS   O14 9756   2.322   1.605   6.097  0.1544 -0.3038  0.0861
   98SAPS   O12 9757   2.236   1.821   6.200 -0.2532 -0.2326  0.3301
   98SAPS   O11 9758   2.235   1.614   6.328  0.1374  0.0781  0.2984
   98SAPS    C1 9759   2.230   1.470   6.354 -0.1607  0.2632  0.3384
   98SAPS    HA 9760   2.128   1.429   6.339 -0.7682  1.0752  2.1833
   98SAPS    HB 9761   2.295   1.417   6.281 -3.4468  1.6762 -3.8257
   98SAPS    C2 9762   2.291   1.443   6.500 -0.0803  0.6942 -0.1334
   98SAPS    HS 9763   2.257   1.343   6.535 -1.4074  1.4646  0.8210
   98SAPS   O21 9764   2.254   1.542   6.605  0.7596 -0.0948  0.5591
   98SAPS   C21 9765   2.122   1.546   6.625  0.1831  1.2174  0.2109
   98SAPS   O22 9766   2.035   1.486   6.567 -0.0332 -0.3289 -0.3444
   98SAPS   C22 9767   2.099   1.645   6.740  0.7496 -0.3975 -0.1932
   98SAPS   H2R 9768   2.199   1.687   6.766 -0.6201  2.5953  0.4590
   98SAPS   H2S 9769   2.048   1.730   6.692  1.1442 -1.3538 -2.3732
   98SAPS    C3 9770   2.440   1.430   6.489  0.3363 -0.5438  0.2810
   98SAPS    HX 9771   2.491   1.509   6.430  1.5301 -0.8856  0.8378
   98SAPS    HY 9772   2.460   1.343   6.422  0.4301 -1.6661  1.7546
   98SAPS   O31 9773   2.496   1.409   6.626  0.0631  0.4875  0.2234
   98SAPS   C31 9774   2.555   1.513   6.678 -0.0870  0.2817  0.4359
   98SAPS   O32 9775   2.556   1.625   6.626 -0.0609 -0.0729  0.0218
   98SAPS   C32 9776   2.614   1.484   6.818 -0.3081  0.6033 -0.4113
   98SAPS   H2X 9777   2.557   1.391   6.842  1.2746 -0.6363 -1.3640
   98SAPS   H2Y 9778   2.585   1.558   6.896 -2.9745  0.4359 -1.1859
   98SAPS   C23 9779   2.036   1.592   6.871  0.4057 -0.0292 -0.6705
   98SAPS   H3R 9780   1.948   1.530   6.844 -0.3586  1.3202 -1.2704
   98SAPS   H3S 9781   1.995   1.677   6.930 -2.6344 -0.7835 -1.6178
   98SAPS   C24 9782   2.147   1.512   6.949  1.1590  0.0839 -0.2901
   98SAPS   H4R 9783   2.205   1.452   6.875 -2.2762 -0.3033 -2.8169
   98SAPS   H4S 9784   2.110   1.440   7.024  1.1401 -0.7053 -1.0471
   98SAPS   C25 9785   2.235   1.621   7.017 -0.1904  0.2124  0.5338
   98SAPS   H5R 9786   2.319   1.657   6.955 -1.2709  0.3069 -0.8990
   98SAPS   C26 9787   2.219   1.669   7.134  0.3312  0.0987  0.0669
   98SAPS   H6R 9788   2.287   1.749   7.165 -0.4246  0.5324  0.6094
   98SAPS   C27 9789   2.117   1.641   7.241  0.2586  0.5699 -0.2152
   98SAPS   H7R 9790   2.156   1.555   7.299  1.0723  1.3942  0.4685
   98SAPS   H7S 9791   2.030   1.592   7.191  0.0450 -0.1826  0.8890
   98SAPS   C28 9792   2.056   1.748   7.325 -0.2040 -0.8816  0.3277
   98SAPS   H8R 9793   1.959   1.787   7.292 -1.3260 -3.4522  0.4902
   98SAPS   C29 9794   2.106   1.803   7.437 -0.0766  0.5468  0.1036
   98SAPS   H9R 9795   2.050   1.887   7.482 -0.7464  0.8607 -1.3006
   98SAPS  C210 9796   2.230   1.753   7.507 -0.8990  0.3099 -0.2663
   98SAPS  H10R 9797   2.282   1.683   7.438  0.6333  1.0720  0.1028
   98SAPS  H10S 9798   2.210   1.690   7.597  2.2447  1.4314  1.2816
   98SAPS  C211 9799   2.303   1.883   7.542 -0.5885  0.2064  0.7841
   98SAPS  H11R 9800   2.296   1.971   7.476 -1.0842  0.3212  0.9842
   98SAPS  C212 9801   2.369   1.904   7.658  0.3271  1.0629 -0.4199
   98SAPS  H12R 9802   2.419   2.001   7.664  0.3182  1.0779 -0.5941
   98SAPS  C213 9803   2.406   1.806   7.767 -0.8543  0.1908  0.1669
   98SAPS  H13R 9804   2.509   1.841   7.791  0.3144 -1.1521 -2.6330
   98SAPS  H13S 9805   2.425   1.704   7.729  0.7762  0.3920  0.4058
   98SAPS  C214 9806   2.325   1.805   7.893 -0.1228 -0.7358 -0.2541
   98SAPS  H14R 9807   2.233   1.863   7.883  1.3268  1.7705  0.5879
   98SAPS  C215 9808   2.362   1.738   8.002  0.0553 -0.5907 -1.0115
   98SAPS  H15R 9809   2.292   1.752   8.086 -1.8218  0.1715 -2.6789
   98SAPS  C216 9810   2.486   1.656   8.028  0.1429 -0.3143 -0.1672
   98SAPS  H16R 9811   2.574   1.724   8.028 -0.4883  0.5431  1.7952
   98SAPS  H16S 9812   2.493   1.586   7.942  0.5055 -1.5831  0.8819
   98SAPS  C217 9813   2.465   1.570   8.160 -0.3806  0.2234  0.3784
   98SAPS  H17R 9814   2.363   1.528   8.156 -0.5787  0.7209  0.1542
   98SAPS  H17S 9815   2.463   1.636   8.250 -1.4982 -1.0384  1.2986
   98SAPS  C218 9816   2.554   1.451   8.187  0.4729 -0.0353  0.8400
   98SAPS  H18R 9817   2.656   1.488   8.210 -0.3109  2.4181  0.5405
   98SAPS  H18S 9818   2.565   1.404   8.087  0.4451  0.3292  0.6650
   98SAPS  C219 9819   2.503   1.361   8.295  0.0487 -0.0411  0.1197
   98SAPS  H19R 9820   2.578   1.279   8.297  0.0339 -0.1313 -1.8285
   98SAPS  H19S 9821   2.406   1.318   8.260  0.2662 -0.8998  0.5443
   98SAPS  C220 9822   2.494   1.421   8.439  0.1047  0.2427 -0.7890
   98SAPS  H20R 9823   2.594   1.466   8.458  0.7592 -1.0276 -1.1217
   98SAPS  H20S 9824   2.465   1.343   8.513 -0.8020 -1.7932 -3.2266
   98SAPS  H20T 9825   2.427   1.509   8.436  1.1096  0.9891 -2.0282
   98SAPS   C33 9826   2.765   1.444   6.810 -0.1453 -0.1051  0.3153
   98SAPS   H3X 9827   2.789   1.381   6.722  0.5378  2.5667 -1.4941
   98SAPS   H3Y 9828   2.793   1.373   6.891 -0.8484 -0.6936  0.0469
   98SAPS   C34 9829   2.850   1.566   6.817  0.3403  0.0056  0.1576
   98SAPS   H4X 9830   2.797   1.638   6.752  0.2271 -0.3923 -0.1944
   98SAPS   H4Y 9831   2.950   1.542   6.775 -0.3341 -0.3088 -1.2918
   98SAPS   C35 9832   2.875   1.617   6.960 -0.8537  0.0172  0.0023
   98SAPS   H5X 9833   2.920   1.540   7.026  0.3553 -0.2354 -1.0977
   98SAPS   H5Y 9834   2.772   1.634   6.999 -0.3847 -0.2574  1.3822
   98SAPS   C36 9835   2.953   1.748   6.963 -0.5413  0.1873 -0.3861
   98SAPS   H6X 9836   2.905   1.837   6.917  0.9198  0.1865 -1.9536
   98SAPS   H6Y 9837   3.037   1.730   6.893 -0.9086 -1.8558 -0.3293
   98SAPS   C37 9838   3.005   1.787   7.102 -0.1802 -0.7210 -0.2325
   98SAPS   H7X 9839   3.050   1.706   7.163  1.7161  2.2495  2.5129
   98SAPS   H7Y 9840   2.917   1.828   7.156  2.7758  1.9973  2.7717
   98SAPS   C38 9841   3.101   1.908   7.091 -0.1023  0.7225  0.2379
   98SAPS   H8X 9842   3.042   1.994   7.051 -0.1292  0.1804 -0.9007
   98SAPS   H8Y 9843   3.176   1.870   7.018  0.1837 -1.0887  1.4457
   98SAPS   C39 9844   3.176   1.951   7.218  0.8024 -0.1489  0.4352
   98SAPS   H9X 9845   3.236   2.036   7.179 -1.3807  0.4043 -1.8257
   98SAPS   H9Y 9846   3.247   1.871   7.249  0.2175 -0.3436  1.3037
   98SAPS  C310 9847   3.105   1.975   7.352 -0.0203 -0.0135 -0.2817
   98SAPS  H10X 9848   3.055   1.880   7.381 -1.6789  0.4762 -1.4816
   98SAPS  H10Y 9849   3.025   2.051   7.352 -1.2984 -1.3415  0.3635
   98SAPS  C311 9850   3.205   2.020   7.456 -0.2966 -0.1906  0.3253
   98SAPS  H11X 9851   3.260   2.117   7.444  1.0591 -0.7948  1.5461
   98SAPS  H11Y 9852   3.288   1.947   7.447  0.2840  0.5912 -0.7934
   98SAPS  C312 9853   3.146   2.020   7.596 -0.1671 -0.3170 -0.2389
   98SAPS  H12X 9854   3.093   1.925   7.618  0.5898 -0.4279  1.1311
   98SAPS  H12Y 9855   3.065   2.097   7.598 -1.5745 -1.7711 -0.0358
   98SAPS  C313 9856   3.255   2.058   7.699 -0.3318  0.2158 -0.5532
   98SAPS  H13X 9857   3.291   2.160   7.674  1.1297 -0.0838  0.2786
   98SAPS  H13Y 9858   3.339   1.985   7.694  0.1689  0.8941 -1.9958
   98SAPS  C314 9859   3.201   2.062   7.850 -0.2083  0.0472  0.1170
   98SAPS  H14X 9860   3.158   1.960   7.861 -2.8714  0.4971 -4.7652
   98SAPS  H14Y 9861   3.116   2.132   7.862 -0.8042  0.0689 -3.8036
   98SAPS  C315 9862   3.316   2.080   7.948 -0.2971  0.5797 -0.8004
   98SAPS  H15X 9863   3.369   2.174   7.922  0.4712  0.3522 -0.0949
   98SAPS  H15Y 9864   3.391   1.998   7.944 -2.1080 -1.1012 -0.7916
   98SAPS  C316 9865   3.278   2.081   8.096  0.3651  0.0795  0.4628
   98SAPS  H16X 9866   3.197   2.155   8.113 -0.3555 -0.7624  0.7139
   98SAPS  H16Y 9867   3.367   2.089   8.162 -0.6723  0.9498  1.8078
   98SAPS  C317 9868   3.216   1.941   8.129 -0.7228  0.2358 -0.0672
   98SAPS  H17X 9869   3.288   1.860   8.108 -0.0054  0.8364  0.0627
   98SAPS  H17Y 9870   3.127   1.924   8.064 -1.4213  3.5209 -0.0685
   98SAPS  C318 9871   3.190   1.949   8.279 -0.0768 -0.1384 -0.0338
   98SAPS  H18X 9872   3.125   2.039   8.286  0.9004  0.6696 -1.1876
   98SAPS  H18Y 9873   3.281   1.973   8.338 -0.9445 -0.9929  1.6955
   98SAPS  H18Z 9874   3.131   1.866   8.325 -1.7264  2.3147  2.4332
   99SAPS     N 9875   2.088   5.709   6.240  0.1663  0.3977 -0.2927
   99SAPS   HN1 9876   2.134   5.618   6.223  0.1906 -0.5156  4.1922
   99SAPS   HN2 9877   2.144   5.777   6.295 -3.3492  1.1734  2.5002
   99SAPS   HN3 9878   2.000   5.690   6.293 -1.1391  1.0843 -2.1293
   99SAPS   C12 9879   2.047   5.782   6.108 -0.5407 -0.3578  0.0435
   99SAPS  H12A 9880   2.136   5.801   6.049 -0.5295  1.6913  0.6588
   99SAPS   C13 9881   1.956   5.705   6.013 -0.6526 -0.5401 -0.8679
   99SAPS  O13A 9882   1.891   5.604   6.051  0.1251 -1.0203 -0.3222
   99SAPS  O13B 9883   1.964   5.737   5.887 -0.1365 -0.1208  0.2422
   99SAPS   C11 9884   1.980   5.908   6.154 -0.1748 -0.4622  0.1020
   99SAPS  H11A 9885   1.950   5.954   6.057 -0.8453  1.8405  1.3504
   99SAPS  H11B 9886   2.042   5.982   6.209  0.4654  0.9360 -2.4232
   99SAPS     P 9887   1.738   5.977   6.224 -0.1882 -0.2963 -0.0918
   99SAPS   O13 9888   1.752   6.097   6.140 -0.0418 -0.2849 -0.0616
   99SAPS   O14 9889   1.621   5.887   6.190  0.0276 -0.8972 -0.0836
   99SAPS   O12 9890   1.865   5.886   6.233  0.0248  0.1069 -0.3423
   99SAPS   O11 9891   1.723   6.020   6.372  0.2012 -0.3842  0.2658
   99SAPS    C1 9892   1.840   6.073   6.444  0.3809 -0.0793  0.2151
   99SAPS    HA 9893   1.933   6.066   6.384  0.3265 -0.8076  0.2118
   99SAPS    HB 9894   1.830   6.177   6.482 -1.2454  0.2112 -0.9760
   99SAPS    C2 9895   1.857   5.994   6.577 -0.6063  1.1389  0.7947
   99SAPS    HS 9896   1.893   5.894   6.545 -1.9372  1.6625 -2.5046
   99SAPS   O21 9897   1.732   5.988   6.651  0.3674  0.1565 -0.0173
   99SAPS   C21 9898   1.668   5.871   6.630  0.8116 -0.3939 -0.2611
   99SAPS   O22 9899   1.703   5.790   6.550  0.4476  0.0936  0.4739
   99SAPS   C22 9900   1.524   5.875   6.688 -0.1977 -0.7030 -0.2619
   99SAPS   H2R 9901   1.510   5.974   6.737 -1.3444 -0.9026 -0.1644
   99SAPS   H2S 9902   1.470   5.870   6.591 -0.8639  1.1130 -0.0075
   99SAPS    C3 9903   1.966   6.053   6.665 -0.0209  0.0443 -0.4168
   99SAPS    HX 9904   1.920   6.146   6.705  0.2937 -0.6751  1.7023
   99SAPS    HY 9905   2.043   6.087   6.593 -0.4071 -1.6934 -1.6840
   99SAPS   O31 9906   2.032   5.968   6.761 -0.0786 -0.1925 -0.0645
   99SAPS   C31 9907   1.956   5.929   6.870  0.6635  0.0804 -0.6219
   99SAPS   O32 9908   1.867   5.991   6.919  0.2973 -0.0885 -0.0610
   99SAPS   C32 9909   2.010   5.803   6.936 -0.5838  0.0617 -0.2681
   99SAPS   H2X 9910   2.087   5.843   7.005  1.1066 -2.8491 -0.3795
   99SAPS   H2Y 9911   2.059   5.755   6.848 -0.7273  0.9426 -0.8321
   99SAPS   C23 9912   1.504   5.750   6.775 -0.2885 -0.1255  0.4661
   99SAPS   H3R 9913   1.553   5.663   6.726  0.2051  0.3790  0.0449
   99SAPS   H3S 9914   1.397   5.721   6.781 -0.4861  0.3705 -0.4790
   99SAPS   C24 9915   1.558   5.767   6.916 -0.3637 -0.4227  0.8581
   99SAPS   H4R 9916   1.505   5.857   6.953 -0.4190 -0.3620  0.6267
   99SAPS   H4S 9917   1.663   5.803   6.923 -0.0116 -0.2973 -3.6689
   99SAPS   C25 9918   1.526   5.634   6.981 -0.3364 -0.0749  0.5942
   99SAPS   H5R 9919   1.557   5.550   6.918 -0.5427  0.7997 -0.6749
   99SAPS   C26 9920   1.463   5.609   7.097 -0.4838  0.2795 -0.6986
   99SAPS   H6R 9921   1.453   5.507   7.136  1.2250 -0.9176 -3.2759
   99SAPS   C27 9922   1.410   5.712   7.191  0.4190 -0.1312 -0.1848
   99SAPS   H7R 9923   1.335   5.657   7.252 -1.1462 -0.8310 -2.6832
   99SAPS   H7S 9924   1.351   5.794   7.146  0.1297 -0.2280  0.0211
   99SAPS   C28 9925   1.521   5.765   7.271  0.0691 -0.3612  0.7460
   99SAPS   H8R 9926   1.597   5.821   7.215 -1.0967  0.2202 -0.2622
   99SAPS   C29 9927   1.543   5.741   7.400  0.4827  0.5640 -0.3478
   99SAPS   H9R 9928   1.632   5.782   7.451  0.5707  1.4303 -1.1791
   99SAPS  C210 9929   1.455   5.660   7.487  0.9537  0.0562  0.0368
   99SAPS  H10R 9930   1.370   5.605   7.443 -0.1846  0.1925  1.9897
   99SAPS  H10S 9931   1.409   5.732   7.558  0.4309  1.5937 -1.8534
   99SAPS  C211 9932   1.541   5.564   7.559 -0.4301 -0.2572 -0.7504
   99SAPS  H11R 9933   1.594   5.494   7.492  1.3274 -2.0109  2.3631
   99SAPS  C212 9934   1.568   5.554   7.692  0.1886  0.2966 -0.0464
   99SAPS  H12R 9935   1.660   5.503   7.724 -0.7604 -2.3478 -1.3954
   99SAPS  C213 9936   1.501   5.639   7.798  0.4159 -0.1333 -0.0973
   99SAPS  H13R 9937   1.494   5.575   7.889 -0.7779 -1.5129 -1.1275
   99SAPS  H13S 9938   1.402   5.666   7.758  0.1181  0.9974  1.3702
   99SAPS  C214 9939   1.590   5.759   7.834 -0.0939  0.1971 -0.2290
   99SAPS  H14R 9940   1.697   5.758   7.812 -0.0481 -0.5255  0.0187
   99SAPS  C215 9941   1.533   5.867   7.895  0.0686  0.4092 -0.7052
   99SAPS  H15R 9942   1.601   5.952   7.911  0.9557 -0.6376  1.3296
   99SAPS  C216 9943   1.399   5.884   7.944  0.1690 -0.2567 -0.4446
   99SAPS  H16R 9944   1.334   5.799   7.913  2.0185 -2.0148  0.3732
   99SAPS  H16S 9945   1.363   5.983   7.909 -1.2773 -1.1977 -1.7206
   99SAPS  C217 9946   1.411   5.881   8.097 -0.4217  0.0606 -0.6893
   99SAPS  H17R 9947   1.475   5.968   8.122 -1.0367  0.0862  0.8067
   99SAPS  H17S 9948   1.467   5.792   8.134 -1.2071  0.0645  0.5325
   99SAPS  C218 9949   1.278   5.884   8.163  0.4298  0.2265  1.0233
   99SAPS  H18R 9950   1.195   5.850   8.098 -0.1368  2.5809  0.4377
   99SAPS  H18S 9951   1.248   5.987   8.195 -0.0989 -0.1216  1.6584
   99SAPS  C219 9952   1.278   5.806   8.293  0.5274  0.2985  0.8174
   99SAPS  H19R 9953   1.336   5.711   8.291  0.6168  0.3152  2.0996
   99SAPS  H19S 9954   1.170   5.781   8.302  0.3934  0.5319 -0.1522
   99SAPS  C220 9955   1.322   5.882   8.416 -0.1447  0.8383  0.0562
   99SAPS  H20R 9956   1.318   5.806   8.497 -1.2252 -1.4481 -2.0891
   99SAPS  H20S 9957   1.257   5.971   8.433  1.6160  1.6169  3.0825
   99SAPS  H20T 9958   1.426   5.915   8.398  0.1146  0.1062  0.2111
   99SAPS   C33 9959   1.928   5.694   7.008  0.5580 -0.3147  0.1249
   99SAPS   H3X 9960   1.872   5.636   6.931  2.7925 -0.3262 -1.5576
   99SAPS   H3Y 9961   1.855   5.746   7.073  1.9374  1.9475 -0.0816
   99SAPS   C34 9962   2.009   5.595   7.092 -0.2184  0.8565  0.7336
   99SAPS   H4X 9963   2.107   5.577   7.044 -1.0404  0.8155 -0.9546
   99SAPS   H4Y 9964   1.940   5.509   7.107  0.4175  0.5440  1.9312
   99SAPS   C35 9965   2.022   5.645   7.241 -0.1620  0.4041  0.2928
   99SAPS   H5X 9966   2.077   5.741   7.231  1.2675 -0.5053 -0.8283
   99SAPS   H5Y 9967   2.101   5.592   7.297  1.1411  1.6434 -0.3159
   99SAPS   C36 9968   1.894   5.645   7.325  0.0941 -0.5184 -0.8637
   99SAPS   H6X 9969   1.853   5.543   7.339  0.7522 -0.5670  0.8362
   99SAPS   H6Y 9970   1.817   5.709   7.277  1.8831  0.1971 -2.8823
   99SAPS   C37 9971   1.922   5.696   7.469  0.3690 -0.0232 -0.6598
   99SAPS   H7X 9972   1.980   5.620   7.523  0.0918  0.6484  0.5937
   99SAPS   H7Y 9973   1.825   5.710   7.522  1.5821 -1.6209  2.0448
   99SAPS   C38 9974   1.999   5.825   7.475 -0.6630  1.0347 -1.0802
   99SAPS   H8X 9975   1.965   5.901   7.401  0.6786  2.3958 -0.3250
   99SAPS   H8Y 9976   2.104   5.811   7.441 -1.4680 -0.2191 -3.1900
   99SAPS   C39 9977   1.995   5.899   7.612 -0.0561 -0.5264 -0.0314
   99SAPS   H9X 9978   1.898   5.951   7.600  1.0662  2.1243  2.0203
   99SAPS   H9Y 9979   2.072   5.978   7.618 -0.1980 -0.5880  3.6464
   99SAPS  C310 9980   1.989   5.808   7.734  0.3260 -0.3505  0.1736
   99SAPS  H10X 9981   2.092   5.767   7.743  0.9990  1.1720 -0.4138
   99SAPS  H10Y 9982   1.919   5.724   7.720 -0.6275  0.7095 -1.6497
   99SAPS  C311 9983   1.957   5.888   7.868 -0.4666 -0.2271  0.1006
   99SAPS  H11X 9984   1.852   5.926   7.862 -0.2503  0.8419  2.5050
   99SAPS  H11Y 9985   2.032   5.969   7.877 -1.7412  1.1226 -1.1855
   99SAPS  C312 9986   1.976   5.802   7.993 -0.1490  0.0947 -0.6071
   99SAPS  H12X 9987   2.076   5.756   7.978 -0.0709  0.5186 -1.4253
   99SAPS  H12Y 9988   1.902   5.720   8.001  0.9525 -1.0943 -2.1644
   99SAPS  C313 9989   1.972   5.894   8.112  0.0800  0.1350  0.2570
   99SAPS  H13X 9990   2.051   5.972   8.118 -0.9709  1.3359 -1.1201
   99SAPS  H13Y 9991   1.994   5.830   8.199  2.9125 -0.4477 -0.8357
   99SAPS  C314 9992   1.835   5.962   8.135 -0.6766  0.3587  0.1644
   99SAPS  H14X 9993   1.754   5.886   8.144 -0.1782 -0.2365 -0.3560
   99SAPS  H14Y 9994   1.807   6.022   8.046  1.2394  1.5670  0.3411
   99SAPS  C315 9995   1.826   6.054   8.256  0.3911 -0.0307 -0.6159
   99SAPS  H15X 9996   1.904   6.132   8.245  1.1237 -0.8671 -1.4929
   99SAPS  H15Y 9997   1.852   5.991   8.343  0.5662 -0.9396 -1.3123
   99SAPS  C316 9998   1.682   6.113   8.281 -0.1083 -0.0837 -0.2097
   99SAPS  H16X 9999   1.598   6.041   8.271 -2.1151  1.8265  2.2904
   99SAPS  H16Y10000   1.663   6.192   8.204  2.6035  0.6818 -0.1338
   99SAPS  C31710001   1.672   6.185   8.417 -0.4461 -0.4268 -0.1633
   99SAPS  H17X10002   1.746   6.264   8.442 -0.3285 -0.6825  0.2882
   99SAPS  H17Y10003   1.698   6.109   8.493 -0.0802 -0.9978 -0.8535
   99SAPS  C31810004   1.531   6.247   8.436 -0.5524  0.1466 -0.1131
   99SAPS  H18X10005   1.492   6.302   8.347  0.1322  2.4495  0.9688
   99SAPS  H18Y10006   1.541   6.309   8.528  1.8734 -1.4982  0.7736
   99SAPS  H18Z10007   1.452   6.171   8.453 -1.7434  1.7501  1.7794
  100SAPS     N10008   4.301   1.501   6.085 -0.4013 -0.0874 -0.1756
  100SAPS   HN110009   4.342   1.536   6.174  1.0044 -2.8272  0.3206
  100SAPS   HN210010   4.252   1.581   6.041  0.2812  0.0111 -0.7728
  100SAPS   HN310011   4.231   1.428   6.109 -0.6954  0.5508  0.9214
  100SAPS   C1210012   4.413   1.469   5.987  0.4907  1.0947 -0.1150
  100SAPS  H12A10013   4.362   1.418   5.907 -0.6044  0.6330  0.8664
  100SAPS   C1310014   4.482   1.597   5.934 -0.6192 -0.2494 -0.1575
  100SAPS  O13A10015   4.444   1.713   5.972 -0.3921 -0.0183 -0.1604
  100SAPS  O13B10016   4.561   1.585   5.834 -0.3055  0.0451  0.1216
  100SAPS   C1110017   4.514   1.385   6.068  0.6729  0.0338 -1.3044
  100SAPS  H11A10018   4.547   1.449   6.152 -0.5141 -0.8962 -0.1154
  100SAPS  H11B10019   4.607   1.368   6.010  0.6502 -0.7056 -1.1238
  100SAPS     P10020   4.559   1.178   6.222  0.0491  0.1429 -0.1681
  100SAPS   O1310021   4.491   1.065   6.284  0.9462  0.3542  0.9563
  100SAPS   O1410022   4.689   1.146   6.160 -0.2758 -0.4085  0.0038
  100SAPS   O1210023   4.466   1.256   6.114 -0.0701 -0.0240  0.1314
  100SAPS   O1110024   4.581   1.300   6.325  0.3753  0.4740  0.0449
  100SAPS    C110025   4.483   1.312   6.431 -0.3415 -0.6673 -0.5133
  100SAPS    HA10026   4.488   1.418   6.462 -1.2728 -0.4836 -0.9500
  100SAPS    HB10027   4.382   1.294   6.387  0.6903 -3.4510 -1.9142
  100SAPS    C210028   4.510   1.222   6.551 -0.3313  0.2811  0.3297
  100SAPS    HS10029   4.528   1.115   6.524  0.8522  0.2004  1.4433
  100SAPS   O2110030   4.408   1.240   6.651  0.5675 -0.4016 -0.6370
  100SAPS   C2110031   4.353   1.125   6.694  0.4814  0.4501 -0.4771
  100SAPS   O2210032   4.367   1.017   6.640  0.3914 -0.4381 -0.7680
  100SAPS   C2210033   4.272   1.160   6.821 -0.3787  0.4870 -0.5651
  100SAPS   H2R10034   4.213   1.254   6.813 -1.1044  0.2079  1.3578
  100SAPS   H2S10035   4.199   1.081   6.849  1.4829 -1.7613 -1.8329
  100SAPS    C310036   4.647   1.272   6.606 -0.2714  0.7212 -0.1192
  100SAPS    HX10037   4.629   1.363   6.666 -0.3660 -0.1256  1.1464
  100SAPS    HY10038   4.721   1.294   6.526  0.1872  1.4512  0.4996
  100SAPS   O3110039   4.704   1.175   6.699 -0.0815 -0.7240 -0.2500
  100SAPS   C3110040   4.752   1.060   6.657  0.3425  0.0260  0.7605
  100SAPS   O3210041   4.755   1.014   6.540  0.1710  0.0267  0.2908
  100SAPS   C3210042   4.804   0.980   6.779 -0.3616 -0.5227 -0.4947
  100SAPS   H2X10043   4.863   1.051   6.840 -1.8481  1.6600 -1.5176
  100SAPS   H2Y10044   4.858   0.889   6.744  0.8226 -0.0459  0.0486
  100SAPS   C2310045   4.358   1.188   6.949 -0.1209  0.5278  0.2982
  100SAPS   H3R10046   4.449   1.248   6.925 -0.5388  1.3207  0.6446
  100SAPS   H3S10047   4.380   1.091   6.998  5.4600  0.5633 -1.7160
  100SAPS   C2410048   4.286   1.269   7.048 -0.0355 -0.5067  0.2543
  100SAPS   H4R10049   4.254   1.365   7.001  0.0085 -0.6281 -0.0222
  100SAPS   H4S10050   4.355   1.292   7.132  2.7350  0.9394 -2.3225
  100SAPS   C2510051   4.173   1.188   7.109 -0.2053  0.5739 -0.0476
  100SAPS   H5R10052   4.116   1.134   7.032 -1.0852  0.3653  0.7322
  100SAPS   C2610053   4.147   1.151   7.235  0.0406 -0.0839 -0.0129
  100SAPS   H6R10054   4.055   1.091   7.239 -0.2492  0.1401 -2.8385
  100SAPS   C2710055   4.219   1.196   7.359 -0.4571 -0.2607  0.0783
  100SAPS   H7R10056   4.155   1.253   7.429 -2.8553  0.2399 -2.4341
  100SAPS   H7S10057   4.287   1.275   7.321 -0.8851  0.8247  1.5555
  100SAPS   C2810058   4.302   1.085   7.421 -0.6172  0.1423 -0.3582
  100SAPS   H8R10059   4.387   1.067   7.353 -2.2660 -0.3970 -2.3383
  100SAPS   C2910060   4.299   1.007   7.531 -0.4630  0.3257  0.6645
  100SAPS   H9R10061   4.382   0.938   7.552 -1.2749 -1.3645 -1.3974
  100SAPS  C21010062   4.188   1.016   7.631  0.3158  0.2092  0.1103
  100SAPS  H10R10063   4.096   0.960   7.602 -1.0438  2.0860  0.6992
  100SAPS  H10S10064   4.154   1.122   7.630 -1.3959 -0.2924  1.4339
  100SAPS  C21110065   4.234   0.977   7.774  0.1285 -0.6778  0.0364
  100SAPS  H11R10066   4.311   0.899   7.769 -0.9777 -1.6994 -2.0265
  100SAPS  C21210067   4.212   1.038   7.891  0.3124  0.7120 -0.5023
  100SAPS  H12R10068   4.268   1.006   7.980 -1.2389 -1.3071 -0.2178
  100SAPS  C21310069   4.134   1.160   7.918  0.1212 -0.5503 -0.6233
  100SAPS  H13R10070   4.040   1.121   7.963  0.2421 -1.6141 -1.2865
  100SAPS  H13S10071   4.103   1.214   7.825 -2.5098  0.0967  0.5571
  100SAPS  C21410072   4.198   1.257   8.019 -0.3019  0.1966  0.7605
  100SAPS  H14R10073   4.263   1.332   7.972  1.9083 -2.7055 -0.9616
  100SAPS  C21510074   4.208   1.244   8.151 -0.3229  0.4051  0.0312
  100SAPS  H15R10075   4.249   1.327   8.211 -0.2012  0.4079 -0.0533
  100SAPS  C21610076   4.147   1.129   8.239 -0.5289 -0.4096 -0.9571
  100SAPS  H16R10077   4.083   1.059   8.182  0.1273 -1.4221 -0.4620
  100SAPS  H16S10078   4.092   1.178   8.323  0.4504 -0.9771  0.0253
  100SAPS  C21710079   4.271   1.043   8.289  0.0255 -0.2524 -0.4643
  100SAPS  H17R10080   4.351   1.109   8.330  1.5332 -0.4476 -3.0172
  100SAPS  H17S10081   4.312   0.991   8.200  2.6702  0.7684  0.1048
  100SAPS  C21810082   4.224   0.956   8.395 -0.1797 -0.7394  0.6995
  100SAPS  H18R10083   4.307   0.883   8.410  1.1900  0.2425 -1.8420
  100SAPS  H18S10084   4.148   0.886   8.356  1.7411 -1.9120 -1.0744
  100SAPS  C21910085   4.186   1.024   8.532 -0.0480  0.9310  0.4756
  100SAPS  H19R10086   4.138   0.940   8.586  0.9239  0.2445  0.2812
  100SAPS  H19S10087   4.114   1.108   8.527 -2.0649 -0.7768 -0.0210
  100SAPS  C22010088   4.307   1.063   8.614 -0.1544 -0.6266 -0.1605
  100SAPS  H20R10089   4.373   1.138   8.564  0.2269 -1.1809 -0.4966
  100SAPS  H20S10090   4.386   0.989   8.639 -0.6588 -0.5797  1.6351
  100SAPS  H20T10091   4.273   1.114   8.707  0.5335 -1.9886  0.8616
  100SAPS   C3310092   4.698   0.933   6.886  0.2082  0.4876 -0.0673
  100SAPS   H3X10093   4.636   0.849   6.848  0.8070  0.3548 -0.7762
  100SAPS   H3Y10094   4.631   1.018   6.908 -0.5584 -0.1670  0.1537
  100SAPS   C3410095   4.762   0.907   7.023  0.1405  0.1102 -0.7264
  100SAPS   H4X10096   4.840   0.984   7.041  1.7769 -1.4759 -0.8025
  100SAPS   H4Y10097   4.819   0.812   7.032 -0.2212 -0.0200  0.2713
  100SAPS   C3510098   4.671   0.912   7.151  0.2164 -0.1587 -0.0251
  100SAPS   H5X10099   4.574   0.859   7.135  0.3566  0.2959 -2.5867
  100SAPS   H5Y10100   4.639   1.018   7.168 -0.1181 -0.4041  0.9018
  100SAPS   C3610101   4.730   0.867   7.287 -0.3957 -0.3323  1.1306
  100SAPS   H6X10102   4.814   0.936   7.310 -1.2591  0.7123  1.1697
  100SAPS   H6Y10103   4.777   0.767   7.284 -0.7526 -0.4582 -1.3004
  100SAPS   C3710104   4.641   0.859   7.411 -0.0008  0.4243  0.0488
  100SAPS   H7X10105   4.574   0.770   7.418  0.6279 -0.0123  0.5744
  100SAPS   H7Y10106   4.570   0.944   7.404  0.0905  0.6260  1.5554
  100SAPS   C3810107   4.716   0.874   7.545  0.6126  0.5360 -0.2321
  100SAPS   H8X10108   4.795   0.952   7.541  0.7030  0.3797 -2.1981
  100SAPS   H8Y10109   4.772   0.779   7.560 -1.0595 -0.3768  0.3508
  100SAPS   C3910110   4.632   0.900   7.665  0.5987  0.0559 -0.5270
  100SAPS   H9X10111   4.565   0.814   7.687  0.3833  0.7610  1.6954
  100SAPS   H9Y10112   4.562   0.985   7.647  0.9635  0.8108  1.4852
  100SAPS  C31010113   4.708   0.957   7.792  0.0729 -0.5107 -0.0193
  100SAPS  H10X10114   4.782   1.032   7.758  0.7384 -0.8311  0.6927
  100SAPS  H10Y10115   4.759   0.873   7.845  1.7278 -0.3035 -1.2404
  100SAPS  C31110116   4.608   1.012   7.894 -0.8375  0.4083  0.1931
  100SAPS  H11X10117   4.533   0.942   7.936  0.9704 -0.6696  1.7628
  100SAPS  H11Y10118   4.559   1.104   7.857 -0.6124 -0.0090 -1.1544
  100SAPS  C31210119   4.674   1.076   8.023 -0.0336  0.0060  0.1256
  100SAPS  H12X10120   4.757   1.140   7.987 -0.7199  0.1462 -1.2448
  100SAPS  H12Y10121   4.715   0.994   8.087 -1.7872 -0.5410  0.5732
  100SAPS  C31310122   4.575   1.164   8.103 -0.9322  0.2661 -0.7505
  100SAPS  H13X10123   4.495   1.099   8.144  1.9446 -4.1376 -1.7197
  100SAPS  H13Y10124   4.529   1.223   8.021 -1.8214 -0.4240 -0.7554
  100SAPS  C31410125   4.641   1.252   8.215  0.1072 -0.0654  0.2934
  100SAPS  H14X10126   4.568   1.316   8.269 -0.8322  0.8986 -2.0672
  100SAPS  H14Y10127   4.722   1.311   8.167  0.7741 -1.6858 -0.6114
  100SAPS  C31510128   4.713   1.166   8.322 -0.0147  0.0903  0.1272
  100SAPS  H15X10129   4.769   1.085   8.269  3.2538  1.9876  0.5679
  100SAPS  H15Y10130   4.636   1.114   8.384 -0.1124 -0.1356 -0.1786
  100SAPS  C31610131   4.818   1.249   8.391 -0.5050  0.6300  0.4720
  100SAPS  H16X10132   4.831   1.340   8.329  3.3246 -2.0296 -2.9096
  100SAPS  H16Y10133   4.919   1.203   8.404 -0.3323  0.4614 -1.3692
  100SAPS  C31710134   4.778   1.276   8.535 -0.0702 -0.1262 -0.4303
  100SAPS  H17X10135   4.668   1.286   8.527  0.0887  0.2621 -2.1561
  100SAPS  H17Y10136   4.809   1.375   8.575  0.8569 -1.1260  1.3986
  100SAPS  C31810137   4.832   1.175   8.637 -0.1523  0.4625 -0.5710
  100SAPS  H18X10138   4.811   1.070   8.605  2.1566 -0.2274  0.0602
  100SAPS  H18Y10139   4.780   1.194   8.733 -0.3248 -0.0226 -0.5655
  100SAPS  H18Z10140   4.943   1.183   8.632  0.0683 -3.0191 -3.6558
  101OSM      N10141   2.625   2.258  10.756  0.7154 -0.1364 -0.4654
  101OSM    C1510142   2.543   2.190  10.862 -0.0986  0.4374 -0.7442
  101OSM   H15A10143   2.507   2.098  10.819  0.2642 -0.7570  1.4484
  101OSM   H15B10144   2.462   2.256  10.892 -0.0735  0.2499 -0.2547
  101OSM   H15C10145   2.601   2.152  10.945 -0.1781  0.2203 -0.7894
  101OSM    C1410146   2.535   2.300  10.642 -0.7164 -0.3627 -0.4121
  101OSM   H14A10147   2.461   2.366  10.684 -0.1027  0.3238 -0.4036
  101OSM   H14B10148   2.473   2.220  10.604  0.1156 -0.2468 -2.0676
  101OSM   H14C10149   2.589   2.346  10.560  0.9573 -1.9114 -0.2084
  101OSM    C1310150   2.697   2.374  10.819 -0.1236 -0.1667  0.0241
  101OSM   H13A10151   2.613   2.424  10.865 -0.9630 -0.3189 -1.2853
  101OSM   H13B10152   2.737   2.441  10.745 -2.8376  0.2139 -1.1937
  101OSM   H13C10153   2.767   2.352  10.898 -0.7104  2.9666  1.4832
  101OSM    C1210154   2.725   2.158  10.705  0.2822 -0.0315 -0.1907
  101OSM   H12A10155   2.771   2.119  10.794  0.1142 -1.9930 -0.9392
  101OSM   H12B10156   2.807   2.214  10.662  1.1681 -0.7514  0.5617
  101OSM    C1110157   2.678   2.048  10.617 -0.2236  0.1625 -0.6395
  101OSM   H11A10158   2.766   1.996  10.574  0.6437  0.7929  0.3374
  101OSM   H11B10159   2.632   2.085  10.523 -0.2643  0.5372 -0.4721
  101OSM      P10160   2.635   1.851  10.767 -0.0417  0.2087 -0.2685
  101OSM    O1310161   2.767   1.882  10.824 -0.0752  0.0621  0.5581
  101OSM    O1410162   2.529   1.819  10.863 -0.5007  0.1790  0.1598
  101OSM    O1110163   2.649   1.738  10.652  0.2979 -0.0917 -0.2296
  101OSM    O1210164   2.583   1.973  10.683  0.2893  0.0467 -0.6933
  101OSM    C1S10165   2.546   1.716  10.561  0.0438  0.2501 -0.3796
  101OSM    H1S10166   2.471   1.796  10.577  1.0791  1.1023  0.3695
  101OSM    H1T10167   2.494   1.621  10.583 -1.0810  1.3712  2.0421
  101OSM     NF10168   2.482   1.723  10.336 -0.1548 -0.0208  0.2638
  101OSM    HNF10169   2.438   1.642  10.297 -1.6911  0.6014  0.6713
  101OSM    C2S10170   2.601   1.711  10.417  0.1198  0.5702  0.3526
  101OSM    H2S10171   2.656   1.806  10.398  0.4943  0.5210  1.1543
  101OSM    C3S10172   2.691   1.589  10.393 -0.7920  0.0847 -0.3478
  101OSM    H3S10173   2.626   1.500  10.400  0.7184 -0.8320  2.7431
  101OSM     O310174   2.790   1.560  10.493 -0.2079 -0.2864  0.3793
  101OSM    HO310175   2.763   1.613  10.568  1.6849  2.2103 -0.6601
  101OSM    C4S10176   2.762   1.595  10.258  0.0589 -0.1572 -0.0001
  101OSM    H4S10177   2.719   1.527  10.183 -2.2387  0.6596  0.5496
  101OSM    C5S10178   2.883   1.653  10.234  0.0339 -0.0571 -0.9907
  101OSM    H5S10179   2.941   1.702  10.314 -0.5856 -1.6958  0.4973
  101OSM    C6S10180   2.955   1.645  10.100 -0.5679 -0.3291  0.1229
  101OSM    H6S10181   3.060   1.608  10.108 -0.1260  0.9459  0.2789
  101OSM    H6T10182   2.972   1.747  10.061  2.3347  0.3575  2.9897
  101OSM    C7S10183   2.889   1.582   9.987  0.2222  0.2738  0.6235
  101OSM    H7S10184   2.782   1.612   9.985  0.4096  1.0045  1.2369
  101OSM    H7T10185   2.883   1.472   9.999 -2.1871  0.6707  3.6748
  101OSM    C8S10186   2.956   1.624   9.854 -0.0911 -0.1817 -1.4005
  101OSM    H8S10187   3.061   1.592   9.864 -0.0686  0.4092  0.5762
  101OSM    H8T10188   2.957   1.735   9.842  0.3045 -0.0986 -0.6354
  101OSM    C9S10189   2.888   1.552   9.736  0.1465 -0.0726 -0.2581
  101OSM    H9S10190   2.777   1.554   9.734  0.1670  1.6672  0.1576
  101OSM    H9T10191   2.911   1.444   9.752 -1.0340 -0.4300 -0.8893
  101OSM   C10S10192   2.936   1.615   9.604 -0.1436 -1.0161  0.0278
  101OSM   H10S10193   3.044   1.598   9.583  0.8787  1.7061  2.7040
  101OSM   H10T10194   2.918   1.725   9.605  0.0272 -0.9893  1.0216
  101OSM   C11S10195   2.851   1.555   9.493 -0.3596  0.4662  0.1533
  101OSM   H11S10196   2.741   1.563   9.505 -0.0754  0.5111  3.0309
  101OSM   H11T10197   2.866   1.446   9.477  0.3656  0.6496 -0.4219
  101OSM   C12S10198   2.890   1.628   9.358 -0.5323  0.4594  0.0984
  101OSM   H12S10199   3.000   1.623   9.347 -0.3694 -0.0200  1.8159
  101OSM   H12T10200   2.854   1.733   9.364  1.4503  1.1032  0.9985
  101OSM   C13S10201   2.828   1.551   9.241  0.0046  0.0527 -0.0596
  101OSM   H13S10202   2.726   1.515   9.267  0.0369 -0.2282 -0.3230
  101OSM   H13T10203   2.887   1.460   9.219  1.0198  1.1110 -1.8627
  101OSM   C14S10204   2.842   1.627   9.110 -0.0296 -0.4261  0.3067
  101OSM   H14S10205   2.950   1.651   9.104  0.5306 -1.9841  3.0908
  101OSM   H14T10206   2.794   1.725   9.131  0.3194 -0.5622  1.8071
  101OSM   C15S10207   2.799   1.556   8.980  0.9105  0.0008  0.6524
  101OSM   H15S10208   2.695   1.521   8.997  1.0299  0.1393  1.7049
  101OSM   H15T10209   2.854   1.461   8.962 -3.2844 -2.6936  1.3942
  101OSM   C16S10210   2.813   1.647   8.866 -0.0353 -0.1364  0.4016
  101OSM   H16S10211   2.899   1.716   8.879 -1.2748  1.5396 -0.1889
  101OSM   H16T10212   2.728   1.719   8.861  0.5399  0.5446  0.3770
  101OSM   C17S10213   2.810   1.575   8.730 -0.1477  0.4009  0.6767
  101OSM   H17S10214   2.780   1.656   8.661  2.2651  0.4063 -0.4183
  101OSM   H17T10215   2.728   1.500   8.727 -1.4017  1.7257  1.1949
  101OSM   C18S10216   2.942   1.525   8.676 -0.6141 -0.0407 -0.3798
  101OSM   H18S10217   2.990   1.616   8.634 -0.9945  0.2517 -0.1711
  101OSM   H18T10218   2.929   1.457   8.589  0.9328 -0.2674 -0.4567
  101OSM   H18U10219   3.021   1.488   8.745 -0.3557 -1.6197 -1.4947
  101OSM    C1F10220   2.414   1.838  10.322  0.0660 -0.1358 -0.0376
  101OSM     OF10221   2.469   1.942  10.353  0.6734 -0.4324 -0.5626
  101OSM    C2F10222   2.273   1.834  10.268  0.1771  0.7644 -0.0956
  101OSM    H2F10223   2.203   1.852  10.352 -1.5962 -4.3914 -0.2462
  101OSM    H2G10224   2.259   1.732  10.226  0.7547  0.0589  1.3723
  101OSM    C3F10225   2.240   1.944  10.165  1.2355  0.4040 -0.2147
  101OSM    H3F10226   2.236   2.040  10.221 -0.1756  0.0714  0.2861
  101OSM    H3G10227   2.135   1.936  10.128  1.2417  0.9240 -0.3475
  101OSM    C4F10228   2.341   1.938  10.053  0.3960 -0.0433 -0.4677
  101OSM    H4F10229   2.334   1.837  10.007  0.5991  0.5969 -1.9172
  101OSM    H4G10230   2.446   1.940  10.090 -0.3349 -2.9315  1.9955
  101OSM    C5F10231   2.323   2.045   9.944  0.4763  0.2168  0.6450
  101OSM    H5F10232   2.424   2.063   9.902 -0.6729 -0.5034 -2.6092
  101OSM    H5G10233   2.301   2.143   9.993  0.3463  0.5947 -0.1629
  101OSM    C6F10234   2.225   2.004   9.833 -0.2904  0.3080  0.1365
  101OSM    H6F10235   2.135   1.951   9.872 -0.9160  1.6393  0.5114
  101OSM    H6G10236   2.272   1.928   9.767 -0.4367  0.1165  0.2514
  101OSM    C7F10237   2.188   2.117   9.733 -0.3603 -0.3184  0.0341
  101OSM    H7F10238   2.143   2.059   9.650  0.3822 -0.1474 -0.4860
  101OSM    H7G10239   2.283   2.166   9.705  0.4218 -1.3921  0.7611
  101OSM    C8F10240   2.098   2.234   9.782 -0.1726  0.6815 -0.3745
  101OSM    H8F10241   2.099   2.306   9.697  1.4438  0.6326 -0.4239
  101OSM    H8G10242   2.136   2.270   9.880 -1.5951  1.1123  0.0353
  101OSM    C9F10243   1.954   2.180   9.800  0.5211 -0.0878  0.0799
  101OSM    H9F10244   1.915   2.136   9.893 -2.4125 -0.9481 -1.4949
  101OSM   C10F10245   1.857   2.200   9.709  0.6730 -0.2814 -0.1429
  101OSM   H10F10246   1.756   2.164   9.734 -0.2693  3.1476  1.3720
  101OSM   C11F10247   1.865   2.260   9.571 -0.1293 -0.7341 -0.7249
  101OSM   H11F10248   1.961   2.312   9.550 -0.6378  0.2654 -0.6134
  101OSM   H11G10249   1.787   2.339   9.565 -0.4755 -1.0078  0.1681
  101OSM   C12F10250   1.850   2.168   9.445  0.9403  0.0981 -0.7857
  101OSM   H12F10251   1.778   2.084   9.451  1.3054 -0.1664 -0.0215
  101OSM   H12G10252   1.945   2.111   9.429  0.9053  0.1476 -1.1803
  101OSM   C13F10253   1.838   2.251   9.312 -0.2715  0.3958  0.5793
  101OSM   H13F10254   1.926   2.316   9.295 -1.0590  1.0873 -1.0030
  101OSM   H13G10255   1.748   2.314   9.330 -1.2375 -1.0745  0.9830
  101OSM   C14F10256   1.810   2.159   9.195  0.1237  0.1630 -0.4574
  101OSM   H14F10257   1.751   2.071   9.231  0.9260 -0.3862 -0.4643
  101OSM   H14G10258   1.907   2.122   9.155  1.9114  2.3419  1.7171
  101OSM   C15F10259   1.722   2.220   9.086 -0.3384 -0.0887 -0.0731
  101OSM   H15F10260   1.624   2.263   9.115  0.4233  2.2453 -0.7719
  101OSM   H15G10261   1.715   2.139   9.011  0.0629  0.5151 -0.7762
  101OSM   C16F10262   1.793   2.340   9.026 -0.6861 -0.1129  0.0668
  101OSM   H16F10263   1.889   2.295   8.993 -0.9049  0.5587 -1.5358
  101OSM   H16G10264   1.807   2.414   9.108  4.1229 -1.6733  0.8331
  101OSM   C17F10265   1.705   2.409   8.918 -0.6215  0.3238 -0.0848
  101OSM   H17F10266   1.628   2.459   8.981 -0.0270 -0.6943  1.4781
  101OSM   H17G10267   1.658   2.338   8.848 -1.5728  2.0002 -1.1943
  101OSM   C18F10268   1.774   2.521   8.851  0.1775 -0.1029  0.4128
  101OSM   H18F10269   1.704   2.569   8.779 -0.5044  0.4114  1.4082
  101OSM   H18G10270   1.860   2.485   8.792  0.2913 -1.4132  1.3767
  101OSM   H18H10271   1.816   2.594   8.923 -1.1419  1.8146 -0.6843
  102OSM      N10272   2.812   1.276  10.765 -0.0108  0.1317  0.5111
  102OSM    C1510273   2.708   1.347  10.843  0.9275 -0.1822  0.4382
  102OSM   H15A10274   2.747   1.374  10.940 -1.7843  1.8394  1.0331
  102OSM   H15B10275   2.623   1.280  10.846  1.8777 -1.4898 -1.2747
  102OSM   H15C10276   2.671   1.434  10.790  0.3718 -1.2540 -0.9424
  102OSM    C1410277   2.931   1.371  10.751 -0.8230 -0.0546 -0.0956
  102OSM   H14A10278   2.974   1.386  10.849  1.5699 -2.7785 -0.6511
  102OSM   H14B10279   2.902   1.466  10.710  2.5669  1.1606  0.1076
  102OSM   H14C10280   3.009   1.329  10.689  0.5894 -1.5437  2.5726
  102OSM    C1310281   2.855   1.158  10.843  0.1816 -0.0151  0.4641
  102OSM   H13A10282   2.932   1.096  10.800 -0.6282 -0.4621 -0.3680
  102OSM   H13B10283   2.776   1.084  10.844 -0.2382  0.4316  0.1638
  102OSM   H13C10284   2.877   1.172  10.948  0.2314 -0.5935  0.5313
  102OSM    C1210285   2.757   1.235  10.631 -1.2061  0.7000  0.0789
  102OSM   H12A10286   2.841   1.202  10.572 -1.1788 -3.6670  2.3211
  102OSM   H12B10287   2.726   1.324  10.578  1.6414  0.8693 -1.3852
  102OSM    C1110288   2.646   1.129  10.625 -0.1493  0.8034 -0.1033
  102OSM   H11A10289   2.694   1.034  10.656 -3.7805 -1.6914 -1.8005
  102OSM   H11B10290   2.611   1.110  10.522  2.6213  0.6369 -1.0587
  102OSM      P10291   2.416   1.229  10.682  0.0550  0.3041 -0.1198
  102OSM    O1310292   2.374   1.286  10.813 -0.2985  0.7688  0.6876
  102OSM    O1410293   2.441   1.332  10.572 -0.1584  0.7149  0.5806
  102OSM    O1110294   2.312   1.114  10.630  0.6760  0.1645 -0.6167
  102OSM    O1210295   2.538   1.150  10.710 -0.2217  0.5807 -0.3888
  102OSM    C1S10296   2.215   1.136  10.528 -0.1123  0.0950 -0.1932
  102OSM    H1S10297   2.205   1.246  10.515  2.3618  0.7024  2.4706
  102OSM    H1T10298   2.111   1.105  10.552 -1.3573  2.3967 -2.4050
  102OSM     NF10299   2.171   1.096  10.291  0.3226 -0.3094 -0.3365
  102OSM    HNF10300   2.097   1.029  10.280 -0.9418  0.7806  1.3171
  102OSM    C2S10301   2.265   1.062  10.400 -0.2543  0.3348 -0.6170
  102OSM    H2S10302   2.366   1.102  10.379 -0.5227  1.3892  0.0968
  102OSM    C3S10303   2.279   0.910  10.432 -0.0253 -0.3592  0.3540
  102OSM    H3S10304   2.178   0.877  10.464 -0.9473  1.6730 -0.4285
  102OSM     O310305   2.377   0.892  10.530 -0.0434 -0.4293 -0.0947
  102OSM    HO310306   2.379   0.981  10.565  1.6528  0.9545 -3.4365
  102OSM    C4S10307   2.337   0.843  10.313 -0.9988 -0.2179  0.1322
  102OSM    H4S10308   2.438   0.876  10.286 -0.5985  0.2593  2.1788
  102OSM    C5S10309   2.267   0.780  10.214  0.4165  0.7789  0.2519
  102OSM    H5S10310   2.158   0.789  10.208  0.4476  0.7599 -0.3291
  102OSM    C6S10311   2.321   0.719  10.092  0.7058 -0.7648  0.0728
  102OSM    H6S10312   2.291   0.615  10.069 -1.5923  0.1966 -1.4043
  102OSM    H6T10313   2.431   0.723  10.108  0.6001  1.6272  0.4200
  102OSM    C7S10314   2.302   0.810   9.967  0.7164 -0.6507 -0.2125
  102OSM    H7S10315   2.200   0.853   9.969  0.7855 -0.5006  0.0263
  102OSM    H7T10316   2.309   0.744   9.877  2.2525 -1.0531  0.1824
  102OSM    C8S10317   2.407   0.922   9.953  0.5794 -0.9367 -0.2365
  102OSM    H8S10318   2.506   0.874   9.966 -0.0173 -1.3466  3.6278
  102OSM    H8T10319   2.399   0.995  10.036  0.2144  1.5637 -2.4106
  102OSM    C9S10320   2.411   0.997   9.820  0.1369  0.1533 -0.4362
  102OSM    H9S10321   2.497   1.068   9.819 -0.2985  0.7619  2.0063
  102OSM    H9T10322   2.327   1.070   9.823 -0.6464 -0.8136  3.0463
  102OSM   C10S10323   2.407   0.913   9.695 -0.4788  0.1459  0.5586
  102OSM   H10S10324   2.311   0.862   9.675 -0.9826  1.5396 -0.7059
  102OSM   H10T10325   2.483   0.833   9.704  2.1781  2.2932 -1.6893
  102OSM   C11S10326   2.431   1.007   9.571 -0.7589  0.3661 -0.2281
  102OSM   H11S10327   2.526   1.063   9.588  0.1962 -0.9778 -1.0542
  102OSM   H11T10328   2.348   1.081   9.573 -1.4973 -0.4594  2.3478
  102OSM   C12S10329   2.424   0.937   9.438 -0.2350  0.2369  1.0684
  102OSM   H12S10330   2.330   0.877   9.443  0.1437 -0.5845 -1.3475
  102OSM   H12T10331   2.519   0.880   9.430 -0.0540  0.4437  1.6537
  102OSM   C13S10332   2.414   1.029   9.319  0.3111 -0.7343 -0.7566
  102OSM   H13S10333   2.491   1.108   9.326 -1.4634  1.0454 -0.7949
  102OSM   H13T10334   2.316   1.082   9.324  0.6432 -0.2291  0.9284
  102OSM   C14S10335   2.419   0.949   9.187  0.0172 -0.9035 -0.4406
  102OSM   H14S10336   2.337   0.875   9.195  0.5150 -1.4639 -0.4398
  102OSM   H14T10337   2.518   0.899   9.186  1.4154  1.5551  2.7738
  102OSM   C15S10338   2.429   1.030   9.057 -0.0722  0.6914 -0.3447
  102OSM   H15S10339   2.524   1.086   9.070  0.5518 -0.6844  1.2991
  102OSM   H15T10340   2.342   1.094   9.032 -1.7562 -0.9555  1.1794
  102OSM   C16S10341   2.447   0.944   8.931 -0.8991 -0.0523 -0.0738
  102OSM   H16S10342   2.532   0.873   8.942 -0.5052  0.6218  1.2848
  102OSM   H16T10343   2.467   0.998   8.835 -1.1001 -0.8227 -0.5546
  102OSM   C17S10344   2.327   0.854   8.883 -0.0456  0.5909 -0.8313
  102OSM   H17S10345   2.239   0.922   8.889  1.0458  1.7462  4.3652
  102OSM   H17T10346   2.290   0.773   8.950  2.0521  2.6955  3.0191
  102OSM   C18S10347   2.352   0.776   8.753 -0.1312  0.1752 -0.2022
  102OSM   H18S10348   2.268   0.711   8.723 -0.4036 -0.1885  1.2961
  102OSM   H18T10349   2.437   0.707   8.773  0.7030  1.3552  0.4499
  102OSM   H18U10350   2.391   0.847   8.677  0.4591 -0.5855 -0.6148
  102OSM    C1F10351   2.169   1.215  10.240  0.4184  0.1875  0.0766
  102OSM     OF10352   2.248   1.302  10.275 -0.2355 -0.0054 -0.4969
  102OSM    C2F10353   2.057   1.259  10.157  0.1550  0.5276  0.2305
  102OSM    H2F10354   2.047   1.369  10.169  1.6117  0.5550  1.3323
  102OSM    H2G10355   1.956   1.225  10.188  0.4714 -1.7665 -1.1330
  102OSM    C3F10356   2.086   1.210  10.017 -0.0966  0.2111 -0.0837
  102OSM    H3F10357   2.066   1.101  10.007  1.3460 -0.0324 -0.3235
  102OSM    H3G10358   2.191   1.222   9.984 -0.6478 -0.2071 -2.0781
  102OSM    C4F10359   1.998   1.273   9.909  0.3268 -0.4690 -0.1362
  102OSM    H4F10360   2.004   1.384   9.912 -1.0070 -0.3876 -0.4103
  102OSM    H4G10361   1.891   1.246   9.918  0.1145  0.6599  0.8926
  102OSM    C5F10362   2.039   1.228   9.767 -0.6990 -0.0938  0.2746
  102OSM    H5F10363   2.032   1.118   9.781  3.0721 -0.5051 -0.3446
  102OSM    H5G10364   2.144   1.263   9.748 -0.9174 -1.3848 -3.7231
  102OSM    C6F10365   1.968   1.283   9.647 -0.8618  0.4813 -0.2970
  102OSM    H6F10366   1.960   1.393   9.639  3.4136  0.7529 -1.8295
  102OSM    H6G10367   1.870   1.231   9.641 -1.3317  0.9675  2.4009
  102OSM    C7F10368   2.043   1.256   9.515  0.1366 -0.0594 -0.2618
  102OSM    H7F10369   2.065   1.147   9.507  1.0201  0.1664 -0.9562
  102OSM    H7G10370   2.131   1.323   9.510 -0.0072  0.0293 -1.6456
  102OSM    C8F10371   1.953   1.292   9.392  0.1297  0.0210 -0.0971
  102OSM    H8F10372   1.853   1.270   9.437  0.5474  0.5403  1.1044
  102OSM    H8G10373   1.974   1.216   9.313  1.3198  0.8678 -0.5972
  102OSM    C9F10374   1.943   1.423   9.317 -0.6508 -0.0743 -0.5664
  102OSM    H9F10375   2.023   1.497   9.333 -0.7980 -0.1720  0.7133
  102OSM   C10F10376   1.839   1.458   9.237  0.3432 -0.1578  0.3995
  102OSM   H10F10377   1.856   1.541   9.166  0.7613 -0.7382 -0.1817
  102OSM   C11F10378   1.718   1.376   9.205  0.5930  0.0301  0.6691
  102OSM   H11F10379   1.629   1.431   9.167  2.0718  1.9671 -0.0596
  102OSM   H11G10380   1.677   1.332   9.298  0.5807 -2.1087 -0.3142
  102OSM   C12F10381   1.752   1.280   9.091 -0.2369 -0.3294  0.2413
  102OSM   H12F10382   1.669   1.207   9.076 -0.5964 -0.1701  1.3811
  102OSM   H12G10383   1.836   1.217   9.129  0.1028 -1.0861 -1.7169
  102OSM   C13F10384   1.785   1.341   8.960 -0.4806 -0.2365  0.6297
  102OSM   H13F10385   1.867   1.414   8.978  0.2704 -0.6764 -0.8751
  102OSM   H13G10386   1.706   1.416   8.936  0.9201  1.2971  0.7035
  102OSM   C14F10387   1.803   1.246   8.839 -0.7344  0.0282 -0.6361
  102OSM   H14F10388   1.707   1.195   8.816 -1.7194  0.9577  1.3558
  102OSM   H14G10389   1.874   1.170   8.880  2.3752  1.6466 -2.7898
  102OSM   C15F10390   1.856   1.312   8.711 -0.1393 -0.5685  0.1912
  102OSM   H15F10391   1.957   1.354   8.727 -0.7933  0.2706  2.2331
  102OSM   H15G10392   1.783   1.389   8.677 -1.8283 -3.1253 -2.1532
  102OSM   C16F10393   1.856   1.212   8.595  0.1122 -0.4435  0.7882
  102OSM   H16F10394   1.753   1.175   8.578  1.2381 -1.8884 -3.4702
  102OSM   H16G10395   1.922   1.126   8.622  0.6670  0.3210  1.9017
  102OSM   C17F10396   1.920   1.286   8.473  0.0099  0.1010  0.3839
  102OSM   H17F10397   2.015   1.335   8.504  2.1099 -0.9529 -3.9314
  102OSM   H17G10398   1.851   1.364   8.435  0.3293  1.0022  1.6422
  102OSM   C18F10399   1.947   1.189   8.359 -0.3089  0.3536  0.9582
  102OSM   H18F10400   1.855   1.133   8.332  0.0144 -0.5872  1.7648
  102OSM   H18G10401   2.023   1.117   8.397  1.0429  0.3351 -1.6754
  102OSM   H18H10402   1.983   1.233   8.264 -0.0822  1.6205  1.6277
  103OSM      N10403   3.286   3.259  11.145 -0.5055  0.1662 -0.6783
  103OSM    C1510404   3.143   3.222  11.145  0.2009 -0.5890  0.5847
  103OSM   H15A10405   3.093   3.196  11.237 -1.3324  1.0967  0.2588
  103OSM   H15B10406   3.122   3.144  11.073 -2.3334 -0.2833  0.9512
  103OSM   H15C10407   3.095   3.309  11.101  2.5576  0.3571 -0.2019
  103OSM    C1410408   3.305   3.371  11.236  0.5721  0.9354  0.5100
  103OSM   H14A10409   3.246   3.358  11.325  1.1937  0.2109  0.8238
  103OSM   H14B10410   3.304   3.460  11.174  1.3326  0.8115  0.3139
  103OSM   H14C10411   3.407   3.379  11.272  0.6592  1.6878  0.1240
  103OSM    C1310412   3.355   3.139  11.200  0.7753 -0.0530 -0.0722
  103OSM   H13A10413   3.333   3.116  11.303 -0.4340  0.7721 -0.1294
  103OSM   H13B10414   3.462   3.152  11.204  0.6379  0.8654  0.8493
  103OSM   H13C10415   3.330   3.051  11.143 -2.3996  0.0898  0.9806
  103OSM    C1210416   3.347   3.291  11.013  0.0658 -0.4560 -0.0800
  103OSM   H12A10417   3.350   3.190  10.975  1.5313  0.1337 -1.5810
  103OSM   H12B10418   3.452   3.315  11.023 -0.3120  0.8677  0.8259
  103OSM    C1110419   3.267   3.377  10.916 -0.9197  0.4918 -0.3133
  103OSM   H11A10420   3.165   3.338  10.891 -0.4334 -3.8352  3.6218
  103OSM   H11B10421   3.322   3.368  10.821  0.5505 -1.4961  0.6875
  103OSM      P10422   3.387   3.604  10.944  0.2954 -0.0019 -0.1206
  103OSM    O1310423   3.346   3.733  11.008 -0.0797 -0.2415  0.6255
  103OSM    O1410424   3.509   3.540  10.984  0.4830 -0.4397  0.1127
  103OSM    O1110425   3.377   3.632  10.787 -0.7357  0.3570 -0.5792
  103OSM    O1210426   3.263   3.511  10.964 -0.2291  0.5258 -0.5755
  103OSM    C1S10427   3.256   3.652  10.723 -0.5570 -0.9203 -0.7749
  103OSM    H1S10428   3.210   3.750  10.750  0.2278 -0.4788 -1.0174
  103OSM    H1T10429   3.176   3.576  10.736  0.8158 -2.1451  0.7916
  103OSM     NF10430   3.145   3.681  10.510  0.1664  0.2323  0.7730
  103OSM    HNF10431   3.107   3.599  10.469 -1.1721  2.3570 -2.3998
  103OSM    C2S10432   3.279   3.665  10.568 -0.2174 -0.6715  0.3685
  103OSM    H2S10433   3.328   3.762  10.547 -0.4756 -0.5373  0.3919
  103OSM    C3S10434   3.359   3.545  10.504  0.0157 -0.0733  0.3164
  103OSM    H3S10435   3.295   3.455  10.487 -2.0175  1.3120  0.4545
  103OSM     O310436   3.464   3.489  10.586  0.1092 -0.3592  0.0938
  103OSM    HO310437   3.451   3.532  10.670  1.7189 -1.2537  0.8353
  103OSM    C4S10438   3.420   3.591  10.372  0.0182 -0.7879 -0.2167
  103OSM    H4S10439   3.479   3.682  10.391 -0.8524 -0.4032  0.6966
  103OSM    C5S10440   3.408   3.537  10.250 -0.1396 -0.4004 -0.2512
  103OSM    H5S10441   3.368   3.435  10.241  1.8473 -1.2255 -0.0829
  103OSM    C6S10442   3.486   3.599  10.131 -0.2898 -0.1362 -1.0014
  103OSM    H6S10443   3.578   3.546  10.100  2.0366  2.2105  1.5914
  103OSM    H6T10444   3.510   3.706  10.149 -0.4827 -0.4982  1.6085
  103OSM    C7S10445   3.396   3.602  10.009 -0.1495 -0.5006 -0.2645
  103OSM    H7S10446   3.314   3.674  10.032  1.3215  0.4727  2.2086
  103OSM    H7T10447   3.359   3.502   9.980  1.1404 -1.0517 -0.0093
  103OSM    C8S10448   3.462   3.677   9.890 -0.3282 -0.2010  0.2771
  103OSM    H8S10449   3.540   3.610   9.848 -1.4679 -0.8781 -0.8170
  103OSM    H8T10450   3.502   3.775   9.923  1.6041 -0.5909 -0.7918
  103OSM    C9S10451   3.371   3.679   9.767  0.0547 -0.2234  0.0600
  103OSM    H9S10452   3.283   3.745   9.782  0.8442  0.7776  0.4018
  103OSM    H9T10453   3.314   3.587   9.746 -0.5283  0.2391 -0.4121
  103OSM   C10S10454   3.456   3.735   9.648  0.1250 -0.2258 -0.0841
  103OSM   H10S10455   3.389   3.733   9.560  1.1584 -1.4886 -0.8427
  103OSM   H10T10456   3.532   3.664   9.612  0.8159  1.2882 -1.6673
  103OSM   C11S10457   3.500   3.883   9.669  0.2016 -0.6332  0.4702
  103OSM   H11S10458   3.578   3.880   9.748  2.5914 -0.9407 -1.8341
  103OSM   H11T10459   3.418   3.954   9.693  0.0461 -0.7699  0.3500
  103OSM   C12S10460   3.566   3.950   9.539  0.4804 -0.4254 -0.9991
  103OSM   H12S10461   3.665   3.901   9.523  0.1421 -1.5277  0.2080
  103OSM   H12T10462   3.572   4.058   9.564 -1.1063  0.1480 -2.9775
  103OSM   C13S10463   3.473   3.951   9.415 -0.0842 -0.1941 -0.1033
  103OSM   H13S10464   3.376   4.001   9.434 -0.8653 -1.2094 -1.2938
  103OSM   H13T10465   3.460   3.847   9.376  0.4132  0.7057 -2.7472
  103OSM   C14S10466   3.535   4.017   9.286 -0.3927 -0.4460 -0.0765
  103OSM   H14S10467   3.629   3.960   9.266 -1.5973 -2.0547 -1.2934
  103OSM   H14T10468   3.553   4.125   9.301  0.3005 -0.4397 -0.9040
  103OSM   C15S10469   3.443   3.994   9.162 -0.2492 -0.4390 -0.0545
  103OSM   H15S10470   3.339   4.019   9.192  0.3079 -0.5850  2.0961
  103OSM   H15T10471   3.452   3.886   9.137 -0.1108 -0.6018  0.6730
  103OSM   C16S10472   3.479   4.078   9.038 -0.4178  0.1113  0.0077
  103OSM   H16S10473   3.509   4.182   9.065  0.9381  0.1381 -1.4840
  103OSM   H16T10474   3.393   4.084   8.967  1.4867  1.5175 -2.2522
  103OSM   C17S10475   3.595   4.015   8.953  0.4943 -0.5829 -0.6090
  103OSM   H17S10476   3.669   3.988   9.032 -1.9762 -3.2995  0.9110
  103OSM   H17T10477   3.631   4.093   8.884  0.1259  1.3813  1.3515
  103OSM   C18S10478   3.557   3.894   8.872  0.7098 -0.8720 -0.2024
  103OSM   H18S10479   3.483   3.921   8.794  1.6397  2.3258 -0.0441
  103OSM   H18T10480   3.515   3.811   8.932 -0.9971  0.1352  0.0189
  103OSM   H18U10481   3.642   3.858   8.809  1.1902 -1.9751  1.0603
  103OSM    C1F10482   3.076   3.800  10.512 -0.5004  0.2698  0.5870
  103OSM     OF10483   3.136   3.896  10.559  0.0893 -0.0328 -0.3506
  103OSM    C2F10484   2.942   3.812  10.441 -0.4414  0.1357 -0.1764
  103OSM    H2F10485   2.904   3.916  10.446  3.0574  1.4719  0.3365
  103OSM    H2G10486   2.865   3.758  10.500  0.3391  1.1058  1.7779
  103OSM    C3F10487   2.939   3.779  10.294 -0.0629  0.2291 -0.1811
  103OSM    H3F10488   2.835   3.781  10.255 -1.2957 -1.3324  2.9051
  103OSM    H3G10489   2.959   3.670  10.285 -0.6521  0.2632 -2.1618
  103OSM    C4F10490   3.032   3.854  10.201  0.0849 -0.2756 -0.4843
  103OSM    H4F10491   3.120   3.893  10.256 -0.9691 -0.6562  1.5292
  103OSM    H4G10492   2.980   3.949  10.178  0.2660 -0.3674 -1.2567
  103OSM    C5F10493   3.067   3.777  10.074  0.3270 -0.0138 -0.1431
  103OSM    H5F10494   3.109   3.679  10.104  0.3716  0.9033  2.9644
  103OSM    H5G10495   3.138   3.843  10.018 -0.7365 -1.1920 -2.9804
  103OSM    C6F10496   2.948   3.746   9.985  0.3862  0.4928  0.4890
  103OSM    H6F10497   2.875   3.829   9.978  0.4779  0.5154 -0.3016
  103OSM    H6G10498   2.889   3.665  10.032  1.0957 -0.9433 -1.0561
  103OSM    C7F10499   2.991   3.704   9.841 -0.0785 -0.6878 -0.1568
  103OSM    H7F10500   2.916   3.630   9.805 -0.7536  1.0644 -2.4891
  103OSM    H7G10501   3.093   3.664   9.860  0.2181  0.6287  1.1566
  103OSM    C8F10502   3.018   3.826   9.747  0.0085 -0.1441  0.0278
  103OSM    H8F10503   3.096   3.797   9.673  0.6930  1.8033 -0.0445
  103OSM    H8G10504   3.071   3.901   9.810 -1.0179  1.6565 -1.2408
  103OSM    C9F10505   2.887   3.870   9.676 -0.0435  0.7294 -0.2097
  103OSM    H9F10506   2.813   3.914   9.744 -1.8266 -0.7196 -1.1919
  103OSM   C10F10507   2.857   3.849   9.546 -0.1682 -0.8540 -0.1926
  103OSM   H10F10508   2.776   3.904   9.495 -0.7168 -2.1796 -0.7934
  103OSM   C11F10509   2.941   3.765   9.450 -0.5592 -0.5013 -0.5426
  103OSM   H11F10510   2.879   3.721   9.370 -0.8913 -1.4768  0.2471
  103OSM   H11G10511   2.979   3.668   9.489 -2.2209 -0.8115  0.3381
  103OSM   C12F10512   3.066   3.848   9.391  0.1543 -0.1593 -0.1193
  103OSM   H12F10513   3.115   3.897   9.478  1.4321  0.1566 -0.9958
  103OSM   H12G10514   3.023   3.923   9.321 -4.1629 -2.8284 -0.5132
  103OSM   C13F10515   3.164   3.768   9.314 -0.7267 -0.1808  0.3848
  103OSM   H13F10516   3.249   3.835   9.291 -1.1559  0.5912  1.0291
  103OSM   H13G10517   3.204   3.687   9.378  0.0528  0.8015  1.1435
  103OSM   C14F10518   3.116   3.698   9.183  0.0032 -0.1775  0.3491
  103OSM   H14F10519   3.019   3.644   9.185  0.5643 -1.1792  1.2322
  103OSM   H14G10520   3.195   3.623   9.161  0.8669  0.4224  1.3706
  103OSM   C15F10521   3.124   3.781   9.054  0.4997  0.8250  0.2568
  103OSM   H15F10522   3.227   3.816   9.032  0.3936  1.6208  0.9728
  103OSM   H15G10523   3.064   3.873   9.074 -1.3241 -0.4471  0.7525
  103OSM   C16F10524   3.084   3.704   8.926  0.8130 -0.9374  0.6067
  103OSM   H16F10525   3.003   3.634   8.957  0.6881 -1.2977 -0.5249
  103OSM   H16G10526   3.163   3.633   8.893  1.7500  1.0769 -1.6492
  103OSM   C17F10527   3.060   3.801   8.808  0.2312 -0.8695  0.5626
  103OSM   H17F10528   2.997   3.890   8.830  1.3068 -0.0008  0.1356
  103OSM   H17G10529   3.019   3.730   8.733 -2.0617  0.4424  0.5189
  103OSM   C18F10530   3.201   3.843   8.757  0.8433 -0.1893  0.5421
  103OSM   H18F10531   3.272   3.866   8.839  0.8973 -0.0579  0.4593
  103OSM   H18G10532   3.200   3.925   8.682  0.5293  0.2998  1.0815
  103OSM   H18H10533   3.242   3.755   8.702  0.4788  0.2005 -0.3640
  104OSM      N10534   0.849   3.210  10.801 -0.5378 -0.2985  0.0663
  104OSM    C1510535   0.997   3.235  10.760  0.3436 -0.9830  0.6791
  104OSM   H15A10536   1.060   3.236  10.848 -0.3992 -1.0017  1.2109
  104OSM   H15B10537   1.008   3.326  10.703 -0.4798  0.1038  2.2275
  104OSM   H15C10538   1.025   3.151  10.697  3.1869 -0.2613  0.9027
  104OSM    C1410539   0.762   3.160  10.688 -0.4368  0.1867  0.3764
  104OSM   H14A10540   0.746   3.237  10.615 -1.2748 -1.7584 -1.5512
  104OSM   H14B10541   0.668   3.137  10.737  0.4729 -0.8950  1.6635
  104OSM   H14C10542   0.786   3.069  10.635 -0.2893  0.0506  0.6709
  104OSM    C1310543   0.855   3.097  10.907 -0.6956  0.3833 -0.1758
  104OSM   H13A10544   0.945   3.116  10.964 -0.1451  2.0728 -1.5538
  104OSM   H13B10545   0.869   2.996  10.872 -1.3437  0.2607 -0.0740
  104OSM   H13C10546   0.766   3.088  10.966 -0.4757 -0.1294  0.0817
  104OSM    C1210547   0.784   3.323  10.872 -0.3054  0.5657 -0.1652
  104OSM   H12A10548   0.848   3.362  10.948 -0.7802  2.8309 -0.8977
  104OSM   H12B10549   0.689   3.297  10.917 -0.3649  0.6011 -0.2681
  104OSM    C1110550   0.758   3.446  10.792  0.0412 -1.0523  0.5787
  104OSM   H11A10551   0.849   3.471  10.734  1.8627 -1.8818  3.0239
  104OSM   H11B10552   0.729   3.536  10.850 -0.1302  0.2408 -1.4597
  104OSM      P10553   0.495   3.427  10.745  0.4357 -0.1819  0.3359
  104OSM    O1310554   0.459   3.321  10.839  0.0590  0.4149  0.3861
  104OSM    O1410555   0.461   3.558  10.787 -0.4150 -0.5827 -0.0579
  104OSM    O1110556   0.434   3.395  10.608  0.3536 -0.2444  0.0940
  104OSM    O1210557   0.644   3.411  10.715 -0.0496  0.1799 -0.3940
  104OSM    C1S10558   0.407   3.489  10.506  0.1256 -0.1411 -1.3826
  104OSM    H1S10559   0.473   3.578  10.511  0.4219 -0.4929  1.5291
  104OSM    H1T10560   0.305   3.534  10.513  0.0996 -0.6340  2.3952
  104OSM     NF10561   0.456   3.524  10.273  0.1032  0.5399  0.2475
  104OSM    HNF10562   0.375   3.570  10.238  0.3325  0.3259 -0.5694
  104OSM    C2S10563   0.437   3.420  10.375 -0.4925 -0.0248 -0.3191
  104OSM    H2S10564   0.536   3.373  10.392 -0.1113  1.0259  0.3889
  104OSM    C3S10565   0.323   3.321  10.340  0.6445 -0.2569  0.0902
  104OSM    H3S10566   0.228   3.372  10.311 -0.0040  0.1101  2.7667
  104OSM     O310567   0.289   3.242  10.451 -0.1650 -0.1063 -0.1086
  104OSM    HO310568   0.351   3.272  10.519  1.8588 -1.2767 -1.3857
  104OSM    C4S10569   0.371   3.243  10.222  0.9812  0.6993  0.4867
  104OSM    H4S10570   0.456   3.176  10.240  1.7269  1.5493  0.1702
  104OSM    C5S10571   0.305   3.249  10.096 -0.1148 -0.1080 -0.4298
  104OSM    H5S10572   0.205   3.295  10.091  0.7489  1.9872  0.7297
  104OSM    C6S10573   0.350   3.178   9.971 -0.0760 -0.0133 -0.1298
  104OSM    H6S10574   0.461   3.178   9.974 -0.0183  0.7625 -1.7028
  104OSM    H6T10575   0.316   3.240   9.884  0.1609 -0.1758 -0.3395
  104OSM    C7S10576   0.292   3.039   9.967  0.1994 -0.4242 -0.1656
  104OSM    H7S10577   0.181   3.043   9.976  0.0117 -1.4332 -1.8105
  104OSM    H7T10578   0.335   2.979  10.049  0.3586 -0.2730 -0.1381
  104OSM    C8S10579   0.328   2.962   9.837  0.1072  0.1142 -1.3495
  104OSM    H8S10580   0.301   2.855   9.850 -0.6164  0.3377 -1.0033
  104OSM    H8T10581   0.438   2.971   9.823  0.4373  0.3398  1.1290
  104OSM    C9S10582   0.238   3.008   9.716 -0.4085 -0.0655  0.1693
  104OSM    H9S10583   0.255   3.116   9.699  1.0072 -0.0588  1.5452
  104OSM    H9T10584   0.134   2.986   9.749 -0.1316 -2.6138 -0.5329
  104OSM   C10S10585   0.283   2.931   9.587  0.0887 -0.3688 -0.9365
  104OSM   H10S10586   0.278   2.826   9.624 -1.0051 -0.1314 -0.3851
  104OSM   H10T10587   0.387   2.962   9.564 -0.4708  0.0761 -2.9277
  104OSM   C11S10588   0.195   2.956   9.467 -0.5241 -0.0774 -0.2613
  104OSM   H11S10589   0.208   3.062   9.436  1.1926 -0.3607 -0.5733
  104OSM   H11T10590   0.089   2.956   9.501 -0.1602  0.4395  0.9233
  104OSM   C12S10591   0.240   2.862   9.360  0.1420  0.3229  0.0889
  104OSM   H12S10592   0.216   2.754   9.374  1.3705 -0.0788 -0.7446
  104OSM   H12T10593   0.345   2.871   9.324 -0.3516  1.0788 -1.2218
  104OSM   C13S10594   0.157   2.886   9.236  0.7367  0.6000  0.2053
  104OSM   H13S10595   0.184   2.989   9.203  0.0826  0.3120 -1.2574
  104OSM   H13T10596   0.050   2.888   9.265  1.1848  1.7351  1.8460
  104OSM   C14S10597   0.173   2.790   9.123  0.1646  0.2034 -0.2142
  104OSM   H14S10598   0.146   2.686   9.153  1.8485 -0.3647 -0.6008
  104OSM   H14T10599   0.266   2.801   9.062  0.7499 -0.7460  0.4864
  104OSM   C15S10600   0.066   2.835   9.014  0.5144  0.1249 -0.1179
  104OSM   H15S10601   0.040   2.941   9.034  0.2390 -0.0550  0.4862
  104OSM   H15T10602  -0.028   2.781   9.036  0.3572  1.3904  2.5613
  104OSM   C16S10603   0.095   2.803   8.870 -0.5034 -0.1024 -0.3611
  104OSM   H16S10604   0.131   2.699   8.860 -1.4950 -0.3771 -1.1244
  104OSM   H16T10605   0.185   2.864   8.846 -0.3036 -0.0432  0.5274
  104OSM   C17S10606  -0.002   2.833   8.760 -0.5323  0.2097 -0.0610
  104OSM   H17S10607  -0.016   2.942   8.746  0.5503 -0.1488 -4.7233
  104OSM   H17T10608  -0.103   2.809   8.800  0.0484 -0.7436  0.8528
  104OSM   C18S10609   0.019   2.777   8.617  0.1150  0.5002  0.2320
  104OSM   H18S10610   0.047   2.670   8.628 -0.0320  0.4211 -0.1797
  104OSM   H18T10611   0.099   2.827   8.558  0.5853 -1.0172 -0.4414
  104OSM   H18U10612  -0.076   2.797   8.565 -0.0928  3.3244  1.6072
  104OSM    C1F10613   0.566   3.601  10.282  0.4826  1.1217  0.4894
  104OSM     OF10614   0.665   3.562  10.341  0.6654  0.2610 -0.0872
  104OSM    C2F10615   0.548   3.744  10.237  0.1867 -0.5296  0.4583
  104OSM    H2F10616   0.527   3.811  10.324  1.0765 -0.2116  0.4347
  104OSM    H2G10617   0.459   3.751  10.171  0.0471  0.5527  0.7505
  104OSM    C3F10618   0.673   3.792  10.161 -0.0800  0.9854  0.3697
  104OSM    H3F10619   0.764   3.790  10.224 -0.9761  0.0661  1.6668
  104OSM    H3G10620   0.655   3.897  10.132 -0.3839  0.8618  0.1086
  104OSM    C4F10621   0.703   3.708  10.044  0.1037 -0.2231  0.3629
  104OSM    H4F10622   0.610   3.656  10.014  0.2071  0.6161 -1.4796
  104OSM    H4G10623   0.775   3.627  10.068 -1.7693 -1.8242  0.6911
  104OSM    C5F10624   0.749   3.790   9.925  0.0238  0.2027  0.4030
  104OSM    H5F10625   0.848   3.830   9.954 -0.6971  2.5048 -0.1725
  104OSM    H5G10626   0.674   3.870   9.906 -1.2417 -1.1093 -0.2817
  104OSM    C6F10627   0.753   3.713   9.785  0.0220 -0.1906  0.7511
  104OSM    H6F10628   0.795   3.789   9.715 -2.2952 -0.0361 -0.5242
  104OSM    H6G10629   0.649   3.685   9.760  0.7947 -2.2224 -0.2671
  104OSM    C7F10630   0.843   3.584   9.796 -0.2315 -0.0618 -0.5641
  104OSM    H7F10631   0.788   3.503   9.848  2.9277 -1.1168  1.2663
  104OSM    H7G10632   0.942   3.602   9.843 -0.3396  1.4192 -0.8655
  104OSM    C8F10633   0.877   3.526   9.653  0.0442 -0.0191 -0.0975
  104OSM    H8F10634   0.789   3.515   9.585  0.2874  0.5225 -0.5063
  104OSM    H8G10635   0.922   3.425   9.663 -0.3797 -0.2096 -0.0732
  104OSM    C9F10636   0.973   3.613   9.582  0.1850 -0.2716 -0.3758
  104OSM    H9F10637   1.068   3.631   9.634  0.2847 -2.7914  0.3423
  104OSM   C10F10638   0.962   3.680   9.468  0.3095 -0.0879  0.0497
  104OSM   H10F10639   1.043   3.749   9.441  1.0821 -0.4123  1.5237
  104OSM   C11F10640   0.840   3.685   9.380  0.1883  0.1925  0.2435
  104OSM   H11F10641   0.845   3.785   9.331 -3.1462  0.6464  0.7149
  104OSM   H11G10642   0.739   3.677   9.425 -0.5365 -0.0755 -1.4040
  104OSM   C12F10643   0.849   3.585   9.262  0.9699 -0.5946  0.2735
  104OSM   H12F10644   0.848   3.482   9.306  3.1006 -0.1389  1.4478
  104OSM   H12G10645   0.948   3.594   9.213  0.5596  0.4329 -0.3696
  104OSM   C13F10646   0.745   3.601   9.146  0.5782 -0.1164 -0.2458
  104OSM   H13F10647   0.711   3.707   9.144  3.3249  0.8742  1.7061
  104OSM   H13G10648   0.655   3.547   9.182 -0.0248  1.3892  0.5580
  104OSM   C14F10649   0.798   3.559   9.013  0.2182  0.2737  0.7329
  104OSM   H14F10650   0.840   3.457   9.024 -1.0592 -0.4157 -0.5119
  104OSM   H14G10651   0.884   3.618   8.975 -0.4162 -0.0548 -1.2688
  104OSM   C15F10652   0.680   3.546   8.912 -0.1986 -0.3643 -1.0371
  104OSM   H15F10653   0.596   3.615   8.929 -0.1993 -0.4128 -0.8512
  104OSM   H15G10654   0.627   3.450   8.929 -0.8113  0.2613  0.5860
  104OSM   C16F10655   0.721   3.545   8.768  0.5629 -0.4822  0.8825
  104OSM   H16F10656   0.802   3.468   8.766 -0.2992 -1.3662 -0.6891
  104OSM   H16G10657   0.765   3.637   8.724  1.2418 -1.7073 -1.0457
  104OSM   C17F10658   0.601   3.525   8.668 -0.6734 -0.3767 -0.0855
  104OSM   H17F10659   0.522   3.603   8.671  1.1268  1.4539  0.8970
  104OSM   H17G10660   0.551   3.430   8.695 -0.7850 -1.1154 -2.7520
  104OSM   C18F10661   0.632   3.514   8.520 -0.0429  0.0727  0.3897
  104OSM   H18F10662   0.539   3.505   8.459  0.1848 -0.3044  0.0944
  104OSM   H18G10663   0.689   3.420   8.500  2.0515  1.2697  0.6252
  104OSM   H18H10664   0.689   3.602   8.483 -0.5441  0.8489  1.4582
  105OSM      N10665   0.510   2.666  11.215 -0.5736 -0.0345 -0.0989
  105OSM    C1510666   0.450   2.571  11.310 -0.1789  0.0821  0.1931
  105OSM   H15A10667   0.488   2.472  11.293  0.3609 -0.0640  2.2297
  105OSM   H15B10668   0.344   2.568  11.291 -0.8237  0.1824  3.5681
  105OSM   H15C10669   0.471   2.594  11.413 -0.3414  0.7782  0.0756
  105OSM    C1410670   0.438   2.801  11.239 -0.0762 -0.3277 -0.0232
  105OSM   H14A10671   0.454   2.829  11.342  0.9391  2.2826 -0.8504
  105OSM   H14B10672   0.333   2.782  11.223  0.1240  0.1381 -1.9563
  105OSM   H14C10673   0.462   2.876  11.165 -1.6315  0.2327  0.0235
  105OSM    C1310674   0.660   2.684  11.242  0.1698 -0.2186  0.0041
  105OSM   H13A10675   0.696   2.761  11.176  1.8724 -1.8767 -1.0481
  105OSM   H13B10676   0.713   2.591  11.229 -0.5362 -1.2759  3.8508
  105OSM   H13C10677   0.685   2.712  11.344  0.3340  0.5145 -0.2367
  105OSM    C1210678   0.496   2.618  11.070  0.3403  0.2090  0.0739
  105OSM   H12A10679   0.392   2.596  11.050  0.5520 -0.6352 -0.0943
  105OSM   H12B10680   0.561   2.532  11.070  0.6967  0.4000 -3.4644
  105OSM    C1110681   0.547   2.705  10.946 -0.3032 -0.3190 -0.5278
  105OSM   H11A10682   0.469   2.777  10.913  0.7582  0.5711 -1.1588
  105OSM   H11B10683   0.544   2.636  10.858  0.4850  0.6669 -1.3416
  105OSM      P10684   0.801   2.691  10.908 -0.4248  0.3784 -0.2791
  105OSM    O1310685   0.914   2.780  10.922 -0.2256 -0.0729 -0.2584
  105OSM    O1410686   0.813   2.560  10.967  0.4299 -0.2973 -0.3364
  105OSM    O1110687   0.759   2.670  10.755 -0.0667  0.1839  0.3855
  105OSM    O1210688   0.678   2.765  10.966  0.3865 -0.0616  0.0811
  105OSM    C1S10689   0.733   2.763  10.656  0.3397 -0.6409  0.4000
  105OSM    H1S10690   0.822   2.829  10.648 -0.1344  0.4920  3.5841
  105OSM    H1T10691   0.648   2.830  10.681  0.9593 -0.1167  1.1098
  105OSM     NF10692   0.695   2.830  10.419  0.0858 -0.4052  0.4231
  105OSM    HNF10693   0.601   2.850  10.391  0.4218 -0.3073 -0.6526
  105OSM    C2S10694   0.709   2.713  10.511  0.2957  0.6991  0.7499
  105OSM    H2S10695   0.803   2.659  10.484  0.4482  0.9978  0.6799
  105OSM    C3S10696   0.588   2.619  10.514  0.1396 -0.0470 -0.4362
  105OSM    H3S10697   0.506   2.690  10.539 -0.3861 -2.0668  4.0358
  105OSM     O310698   0.585   2.524  10.618 -0.0150  0.8806 -0.5962
  105OSM    HO310699   0.658   2.553  10.673  0.6391  1.5489 -1.7883
  105OSM    C4S10700   0.553   2.553  10.376  0.1962  0.0562 -0.0286
  105OSM    H4S10701   0.636   2.498  10.328 -0.2152 -2.6309  2.2103
  105OSM    C5S10702   0.437   2.577  10.316 -0.0992  0.1237  0.3822
  105OSM    H5S10703   0.359   2.640  10.362 -0.7269  0.5745 -1.2534
  105OSM    C6S10704   0.403   2.525  10.184 -0.8267 -0.1672 -0.0395
  105OSM    H6S10705   0.329   2.601  10.149 -1.1343  0.1616  1.2894
  105OSM    H6T10706   0.352   2.426  10.185  1.1643 -1.2130 -0.0163
  105OSM    C7S10707   0.507   2.524  10.073 -0.4201 -0.6871  0.3294
  105OSM    H7S10708   0.577   2.445  10.108 -0.2560 -1.2641 -1.2334
  105OSM    H7T10709   0.559   2.622  10.069 -1.8973  0.0633 -1.0463
  105OSM    C8S10710   0.442   2.480   9.943  0.2376 -0.9202  0.0551
  105OSM    H8S10711   0.377   2.392   9.964 -0.1377 -0.5100  0.6320
  105OSM    H8T10712   0.519   2.448   9.870 -1.2325 -1.1442 -1.4350
  105OSM    C9S10713   0.358   2.593   9.877  0.0861  0.3186  0.1947
  105OSM    H9S10714   0.412   2.688   9.852  1.1051 -0.3835 -0.3163
  105OSM    H9T10715   0.276   2.613   9.949 -0.1157  0.5102 -0.0856
  105OSM   C10S10716   0.283   2.547   9.747  0.5825 -0.6100  0.6088
  105OSM   H10S10717   0.211   2.630   9.732  0.5086 -0.8612 -0.5058
  105OSM   H10T10718   0.230   2.455   9.777  2.0699 -0.7834  2.7909
  105OSM   C11S10719   0.367   2.533   9.628  0.1890  0.2646  0.0389
  105OSM   H11S10720   0.459   2.477   9.655  0.2736  0.3926  0.0197
  105OSM   H11T10721   0.403   2.637   9.607  4.9594 -1.6890 -2.1988
  105OSM   C12S10722   0.295   2.475   9.501 -0.0242  0.7096 -0.6621
  105OSM   H12S10723   0.217   2.551   9.480 -1.7306 -1.6432 -3.1017
  105OSM   H12T10724   0.246   2.384   9.540  0.2145  1.0076  0.3429
  105OSM   C13S10725   0.390   2.454   9.383 -0.5617 -0.2451  0.8393
  105OSM   H13S10726   0.465   2.378   9.415 -0.6983 -0.1628  1.3681
  105OSM   H13T10727   0.444   2.547   9.356 -1.3908  0.1602  0.5557
  105OSM   C14S10728   0.318   2.401   9.258 -0.7301 -0.7162 -0.5420
  105OSM   H14S10729   0.249   2.478   9.218  2.5957  2.3854 -0.5771
  105OSM   H14T10730   0.250   2.320   9.293 -0.7375 -0.5747 -0.2259
  105OSM   C15S10731   0.414   2.353   9.147  0.1442 -0.4703 -0.3235
  105OSM   H15S10732   0.481   2.276   9.191 -0.2866  0.0930  1.3622
  105OSM   H15T10733   0.475   2.442   9.120 -0.8968 -0.0438 -1.3158
  105OSM   C16S10734   0.337   2.312   9.023  0.0355  0.3416 -1.0339
  105OSM   H16S10735   0.247   2.377   9.015 -0.0017  0.1288 -2.6223
  105OSM   H16T10736   0.290   2.212   9.039 -2.8588  1.7073 -0.6904
  105OSM   C17S10737   0.422   2.307   8.892 -0.1238 -0.0326 -0.3306
  105OSM   H17S10738   0.504   2.233   8.903  0.4736  0.7008  0.1797
  105OSM   H17T10739   0.481   2.400   8.878 -0.4472  0.6339  2.4562
  105OSM   C18S10740   0.346   2.282   8.761  0.0937  0.5977 -0.5698
  105OSM   H18S10741   0.387   2.191   8.711  1.3510 -0.7074  2.6574
  105OSM   H18T10742   0.341   2.368   8.692  1.0872  1.2306  0.1384
  105OSM   H18U10743   0.241   2.265   8.792 -0.2472  0.2062 -1.9214
  105OSM    C1F10744   0.785   2.925  10.399  0.0276 -0.7646  0.5140
  105OSM     OF10745   0.895   2.925  10.444  0.3346  0.3584 -0.2310
  105OSM    C2F10746   0.737   3.038  10.313  0.5807 -0.1208 -0.0715
  105OSM    H2F10747   0.696   3.118  10.378 -0.6034  0.3110 -1.3295
  105OSM    H2G10748   0.662   2.998  10.242  0.8640 -1.1964  0.2297
  105OSM    C3F10749   0.846   3.098  10.221  0.3250  0.2324 -0.2972
  105OSM    H3F10750   0.898   3.018  10.164  0.8571 -0.5302  1.2229
  105OSM    H3G10751   0.910   3.161  10.287  0.4448  0.0151 -0.2048
  105OSM    C4F10752   0.787   3.194  10.117 -0.4917 -0.3322 -0.2479
  105OSM    H4F10753   0.740   3.284  10.163 -0.6682 -0.7472  0.3814
  105OSM    H4G10754   0.709   3.142  10.059 -1.1279 -0.1163  0.4058
  105OSM    C5F10755   0.885   3.251  10.014 -0.5080 -0.0072  0.7439
  105OSM    H5F10756   0.967   3.292  10.076 -0.1632  2.6784 -1.3838
  105OSM    H5G10757   0.835   3.341   9.972 -1.4511  0.2158  2.3231
  105OSM    C6F10758   0.936   3.145   9.923  0.4538 -0.7676 -0.8177
  105OSM    H6F10759   0.854   3.105   9.860 -2.1514  0.0761  1.9393
  105OSM    H6G10760   0.970   3.059   9.985 -0.3921  0.9831  2.1619
  105OSM    C7F10761   1.060   3.199   9.840  0.5761  0.6405  0.1223
  105OSM    H7F10762   1.130   3.263   9.899  0.4372  1.8200 -0.9671
  105OSM    H7G10763   1.017   3.274   9.770 -1.1556  0.7681  1.2889
  105OSM    C8F10764   1.142   3.083   9.779 -0.0039  0.5169 -0.1631
  105OSM    H8F10765   1.199   3.020   9.851 -2.2010 -1.8221 -0.4066
  105OSM    H8G10766   1.211   3.140   9.714 -1.4408  2.1674 -0.2824
  105OSM    C9F10767   1.058   2.991   9.696  0.3282  0.6078 -0.3235
  105OSM    H9F10768   0.982   2.937   9.754  2.6602 -1.5863  0.7490
  105OSM   C10F10769   1.059   2.971   9.558 -0.5800  0.3165  0.3072
  105OSM   H10F10770   0.989   2.902   9.508 -0.1679  0.7238 -0.8529
  105OSM   C11F10771   1.147   3.030   9.455 -0.1814 -0.3534 -0.1744
  105OSM   H11F10772   1.245   2.978   9.465  0.2311  0.7745  1.9731
  105OSM   H11G10773   1.155   3.136   9.486  3.2961 -0.1336 -1.5908
  105OSM   C12F10774   1.080   3.035   9.313 -0.1562 -1.0308 -0.3357
  105OSM   H12F10775   1.041   2.936   9.283 -0.2322 -1.4851  1.2060
  105OSM   H12G10776   1.166   3.061   9.247 -0.5300  0.4321 -0.2743
  105OSM   C13F10777   0.978   3.148   9.314 -0.3503  0.3896  0.2212
  105OSM   H13F10778   1.008   3.235   9.375  1.1208  0.3650 -0.4330
  105OSM   H13G10779   0.885   3.117   9.367 -0.6579  2.4881  0.9206
  105OSM   C14F10780   0.937   3.199   9.177 -0.2456  0.2906  0.4441
  105OSM   H14F10781   1.028   3.238   9.125  0.1319 -0.2599  0.6846
  105OSM   H14G10782   0.859   3.276   9.191 -3.5203 -3.0481  1.3633
  105OSM   C15F10783   0.878   3.107   9.074 -0.0691  0.5985 -0.3216
  105OSM   H15F10784   0.794   3.054   9.125  0.7689 -0.6598 -0.2259
  105OSM   H15G10785   0.947   3.028   9.037  0.9027  1.1976  0.1946
  105OSM   C16F10786   0.827   3.182   8.943 -0.8461 -0.3205 -0.4623
  105OSM   H16F10787   0.894   3.254   8.891  1.3699 -2.2572 -0.4171
  105OSM   H16G10788   0.734   3.235   8.969  0.1538  1.1064  0.2684
  105OSM   C17F10789   0.771   3.080   8.840  0.0268 -0.2255  0.1388
  105OSM   H17F10790   0.703   3.000   8.876  0.1776  0.6147  2.3410
  105OSM   H17G10791   0.861   3.027   8.802  0.5509  0.3636  0.5647
  105OSM   C18F10792   0.714   3.147   8.718 -0.6372  0.6217 -0.0889
  105OSM   H18F10793   0.616   3.191   8.744 -1.2911 -2.6457  3.4295
  105OSM   H18G10794   0.690   3.069   8.643  1.3459 -0.3789  0.2689
  105OSM   H18H10795   0.796   3.207   8.672  0.0480 -0.7475 -0.6777
  106OSM      N10796   2.227   0.709  10.914 -0.6678 -0.5417  0.3191
  106OSM    C1510797   2.092   0.653  10.912 -0.5177 -0.2573  0.4109
  106OSM   H15A10798   2.074   0.594  10.823 -0.4369 -0.5207  0.5707
  106OSM   H15B10799   2.013   0.726  10.923  0.6167  1.4065 -2.1352
  106OSM   H15C10800   2.087   0.575  10.986  0.7745 -1.2883 -0.5501
  106OSM    C1410801   2.263   0.732  11.053 -0.5119 -0.5814  0.2343
  106OSM   H14A10802   2.362   0.772  11.069 -1.2684  2.0932 -1.4505
  106OSM   H14B10803   2.259   0.645  11.118  0.8177 -0.4690  0.4852
  106OSM   H14C10804   2.195   0.810  11.085 -0.3271  0.1720 -1.1673
  106OSM    C1310805   2.327   0.615  10.849  0.2316 -0.2809 -0.4076
  106OSM   H13A10806   2.302   0.591  10.747  0.0802  0.9570 -0.6639
  106OSM   H13B10807   2.342   0.520  10.899 -1.1985 -0.7753 -0.8980
  106OSM   H13C10808   2.428   0.653  10.851  0.9618 -2.1569 -0.7686
  106OSM    C1210809   2.228   0.841  10.833  1.1289 -0.5471  0.1210
  106OSM   H12A10810   2.179   0.820  10.739 -1.0049 -0.0894  1.1003
  106OSM   H12B10811   2.331   0.864  10.808  0.6567  3.2113  1.3036
  106OSM    C1110812   2.165   0.969  10.893  0.0966  0.1371  0.4824
  106OSM   H11A10813   2.191   1.057  10.830  1.1071 -1.8919 -2.0244
  106OSM   H11B10814   2.212   0.973  10.993  2.1413 -0.1613 -0.4288
  106OSM      P10815   1.923   0.995  10.795 -0.4542  0.6738 -0.0366
  106OSM    O1310816   1.788   0.994  10.857 -0.6280  0.0777  0.7213
  106OSM    O1410817   1.976   1.124  10.741  0.1145  0.0222 -0.0897
  106OSM    O1110818   1.939   0.883  10.688  0.1473 -0.0541 -0.3995
  106OSM    O1210819   2.022   0.957  10.911 -0.2356 -0.0944  0.4713
  106OSM    C1S10820   1.873   0.893  10.559 -0.5438 -0.6558  0.1481
  106OSM    H1S10821   1.911   0.985  10.510  0.0587 -1.4466 -0.8887
  106OSM    H1T10822   1.764   0.894  10.580 -1.3050 -0.7518 -3.4455
  106OSM     NF10823   1.814   0.773  10.350 -0.0873 -0.3804 -0.1829
  106OSM    HNF10824   1.724   0.730  10.344 -0.6948  0.5744  1.7544
  106OSM    C2S10825   1.893   0.761  10.476  0.0639  0.8920 -0.2612
  106OSM    H2S10826   1.997   0.765  10.438  0.2853  2.1350  0.4700
  106OSM    C3S10827   1.848   0.634  10.553 -0.4714  0.2937 -0.5965
  106OSM    H3S10828   1.737   0.645  10.563 -1.0288 -2.4896 -3.1519
  106OSM     O310829   1.888   0.625  10.685 -0.0163 -0.5410  0.0753
  106OSM    HO310830   1.931   0.711  10.693 -2.8436  1.0007 -0.8624
  106OSM    C4S10831   1.886   0.511  10.474 -0.6278 -0.9230  0.6389
  106OSM    H4S10832   1.824   0.470  10.394  1.4953 -0.6184 -1.2045
  106OSM    C5S10833   2.007   0.449  10.483 -0.3080  0.1521  0.0561
  106OSM    H5S10834   2.069   0.479  10.569  0.6915  0.7013 -0.8486
  106OSM    C6S10835   2.059   0.340  10.396  1.6204  0.3063 -0.1397
  106OSM    H6S10836   2.034   0.244  10.446 -0.6295  1.0323  0.1509
  106OSM    H6T10837   2.169   0.338  10.381  1.4310  2.8453 -2.0892
  106OSM    C7S10838   1.990   0.330  10.254 -0.1188  0.1322 -0.0651
  106OSM    H7S10839   1.880   0.314  10.258 -0.2279  0.7868 -0.3262
  106OSM    H7T10840   2.029   0.236  10.210  1.1320  0.4275  0.3996
  106OSM    C8S10841   2.025   0.445  10.161 -0.6942 -0.0166 -0.0073
  106OSM    H8S10842   2.133   0.432  10.139 -0.7813  0.4634 -0.7287
  106OSM    H8T10843   2.006   0.543  10.209  0.1849 -0.3887  1.1326
  106OSM    C9S10844   1.949   0.451  10.021 -0.8382 -0.2613 -0.2268
  106OSM    H9S10845   1.849   0.492  10.043 -0.7444  1.0783 -2.1455
  106OSM    H9T10846   1.924   0.347   9.991  1.7374 -1.4434  1.5298
  106OSM   C10S10847   2.029   0.532   9.917  0.1056 -0.2077  0.5790
  106OSM   H10S10848   2.129   0.487   9.895  1.2128  2.9812 -1.2492
  106OSM   H10T10849   2.059   0.631   9.957  0.3742 -0.6240  1.4247
  106OSM   C11S10850   1.945   0.552   9.786 -0.2042  0.3280  0.0836
  106OSM   H11S10851   1.859   0.622   9.794 -0.5507 -0.1671  0.7163
  106OSM   H11T10852   1.905   0.454   9.755  0.6085  0.0055  0.0510
  106OSM   C12S10853   2.031   0.613   9.670  0.4912  0.2631 -0.6995
  106OSM   H12S10854   2.124   0.553   9.656 -0.5214 -0.9427 -2.5092
  106OSM   H12T10855   2.059   0.715   9.704 -2.4219  0.8875 -0.0737
  106OSM   C13S10856   1.957   0.617   9.539  0.0154  0.0737 -0.6054
  106OSM   H13S10857   1.870   0.682   9.563  1.1122  1.1024  0.7379
  106OSM   H13T10858   1.917   0.517   9.513  1.3892 -0.4620 -0.7079
  106OSM   C14S10859   2.033   0.685   9.420  0.2072  0.5715 -0.2491
  106OSM   H14S10860   2.126   0.626   9.416 -0.6935 -0.7616 -1.8811
  106OSM   H14T10861   2.065   0.784   9.461  0.9067  0.0077  0.5697
  106OSM   C15S10862   1.959   0.671   9.288  0.2929 -1.3268 -0.3064
  106OSM   H15S10863   1.889   0.757   9.286  1.3318 -0.4699 -0.7455
  106OSM   H15T10864   1.909   0.572   9.282 -0.4216 -1.1218  2.0746
  106OSM   C16S10865   2.059   0.681   9.166 -0.2052 -0.8479 -0.1785
  106OSM   H16S10866   2.138   0.603   9.167 -1.9527 -2.6433  1.4328
  106OSM   H16T10867   2.112   0.779   9.162 -0.8044 -0.5414 -0.6545
  106OSM   C17S10868   1.978   0.660   9.035  0.5213  1.3943  0.7954
  106OSM   H17S10869   1.886   0.721   9.022  0.6011  0.9970 -1.8918
  106OSM   H17T10870   1.941   0.556   9.039  1.6652  0.9056 -0.9960
  106OSM   C18S10871   2.045   0.676   8.895 -0.0895  0.1489  0.1070
  106OSM   H18S10872   2.146   0.629   8.891  0.0416  0.5844 -2.2580
  106OSM   H18T10873   2.057   0.786   8.887  0.1464  0.1106 -0.0977
  106OSM   H18U10874   1.992   0.641   8.804 -0.7261  2.6746 -0.5356
  106OSM    C1F10875   1.856   0.848  10.245 -0.1457  0.4855 -0.7343
  106OSM     OF10876   1.959   0.910  10.250  0.0189 -0.1868 -0.1724
  106OSM    C2F10877   1.761   0.854  10.127 -0.3118 -0.1607  0.5955
  106OSM    H2F10878   1.671   0.916  10.149  0.2033  1.1311 -0.8582
  106OSM    H2G10879   1.727   0.750  10.107 -3.0984  1.1374 -1.8196
  106OSM    C3F10880   1.819   0.896   9.991  0.3450 -0.1996  0.2277
  106OSM    H3F10881   1.905   0.833   9.958  0.1570 -0.7534  0.7751
  106OSM    H3G10882   1.865   0.996  10.003  2.5081 -0.9937 -1.2711
  106OSM    C4F10883   1.712   0.886   9.883 -0.1006 -0.0517 -0.5909
  106OSM    H4F10884   1.633   0.963   9.897  0.5926  0.2928  1.4868
  106OSM    H4G10885   1.664   0.786   9.894  0.5401 -0.2023  0.9629
  106OSM    C5F10886   1.768   0.920   9.746 -0.1650  0.2446  0.7033
  106OSM    H5F10887   1.827   0.836   9.703 -0.8005 -0.5162  1.3293
  106OSM    H5G10888   1.833   1.009   9.760 -0.9221  0.8345  0.5060
  106OSM    C6F10889   1.658   0.945   9.643  0.2452  0.2821  0.4336
  106OSM    H6F10890   1.605   1.035   9.679 -0.1199  0.5304 -0.7322
  106OSM    H6G10891   1.588   0.860   9.661 -1.2809  1.2137 -0.9522
  106OSM    C7F10892   1.709   0.957   9.500  0.4213  0.3648 -0.3266
  106OSM    H7F10893   1.739   0.853   9.476  1.0798  0.1927  1.1819
  106OSM    H7G10894   1.805   1.012   9.503  0.0402  1.0658 -0.9231
  106OSM    C8F10895   1.620   1.020   9.396  0.5248  0.2234 -0.1010
  106OSM    H8F10896   1.673   1.027   9.298  1.8486 -0.2315  0.5744
  106OSM    H8G10897   1.605   1.127   9.421 -0.4550  0.3340 -1.0916
  106OSM    C9F10898   1.490   0.944   9.393 -0.4518  0.1263  0.5780
  106OSM    H9F10899   1.410   0.971   9.463 -0.5976 -1.8815  1.2342
  106OSM   C10F10900   1.454   0.850   9.307  0.9291  0.8002  0.1749
  106OSM   H10F10901   1.355   0.805   9.316  1.1950  0.3696  1.0437
  106OSM   C11F10902   1.533   0.793   9.191 -0.7932 -0.3030 -0.4648
  106OSM   H11F10903   1.499   0.688   9.176 -1.1826 -0.1623 -0.5749
  106OSM   H11G10904   1.638   0.781   9.225 -0.7716 -0.9146 -0.7357
  106OSM   C12F10905   1.512   0.879   9.064  0.5361  0.2290  0.8148
  106OSM   H12F10906   1.541   0.983   9.091 -1.1955  0.7160  0.8234
  106OSM   H12G10907   1.404   0.884   9.042 -0.2345 -3.0871  3.5296
  106OSM   C13F10908   1.594   0.828   8.943  1.2721  1.4627  0.1199
  106OSM   H13F10909   1.696   0.820   8.986  1.3041 -0.0794 -0.2222
  106OSM   H13G10910   1.587   0.895   8.855 -0.8043 -0.5104 -1.2549
  106OSM   C14F10911   1.547   0.687   8.896 -0.0258 -0.0304  0.0104
  106OSM   H14F10912   1.437   0.689   8.887 -0.2946 -2.6565  2.0428
  106OSM   H14G10913   1.569   0.618   8.980 -0.5559 -1.9135 -1.3674
  106OSM   C15F10914   1.603   0.631   8.763  0.6056  0.0355  0.1805
  106OSM   H15F10915   1.556   0.530   8.759  0.7277 -0.2396  3.9596
  106OSM   H15G10916   1.711   0.605   8.775 -0.0709 -2.3835  1.3361
  106OSM   C16F10917   1.589   0.714   8.635  0.1859 -0.1545 -0.2836
  106OSM   H16F10918   1.655   0.802   8.620  0.8188 -0.0999  2.6090
  106OSM   H16G10919   1.484   0.751   8.647  0.1090 -0.8731  1.3954
  106OSM   C17F10920   1.577   0.641   8.502  1.0771 -0.0034  0.0303
  106OSM   H17F10921   1.495   0.568   8.518 -1.3147  2.4277 -0.7104
  106OSM   H17G10922   1.671   0.583   8.486 -0.2993 -2.5351  0.8604
  106OSM   C18F10923   1.549   0.730   8.382 -0.0631  0.0127 -0.0872
  106OSM   H18F10924   1.625   0.811   8.382  0.9015 -0.8697 -1.1040
  106OSM   H18G10925   1.450   0.780   8.393  0.4560  0.7213  1.6322
  106OSM   H18H10926   1.568   0.664   8.295 -0.1551  0.0628 -0.1455
  107OSM      N10927   3.139   5.066  11.201 -0.0280  0.9757 -0.5488
  107OSM    C1510928   3.251   4.990  11.254  0.1085  0.5105  0.3005
  107OSM   H15A10929   3.218   4.888  11.265  0.9089  0.4340  2.0846
  107OSM   H15B10930   3.267   5.014  11.358  2.8166 -0.0626  0.0410
  107OSM   H15C10931   3.336   5.001  11.188 -0.3488 -2.8441 -0.9495
  107OSM    C1410932   3.013   5.024  11.268 -0.2369 -0.6349 -0.1195
  107OSM   H14A10933   2.990   4.920  11.246  1.3493 -1.1111  0.4167
  107OSM   H14B10934   2.932   5.088  11.238  0.3898 -0.0090 -0.4970
  107OSM   H14C10935   3.015   5.024  11.376  0.1536  2.4757 -0.0948
  107OSM    C1310936   3.174   5.203  11.237 -0.0351 -0.2644 -0.1766
  107OSM   H13A10937   3.254   5.257  11.190  0.8024 -0.0090  1.5153
  107OSM   H13B10938   3.179   5.219  11.344  0.8574  0.6150 -0.3474
  107OSM   H13C10939   3.088   5.263  11.211  0.7456  1.2040  0.5758
  107OSM    C1210940   3.121   5.048  11.047  0.0347  0.3333  0.5081
  107OSM   H12A10941   3.221   5.061  11.008 -0.7508 -0.6047 -1.8885
  107OSM   H12B10942   3.049   5.120  11.010  1.3307  1.6245  0.4516
  107OSM    C1110943   3.084   4.903  10.996  0.7201 -0.0611 -0.1783
  107OSM   H11A10944   3.178   4.845  11.007  0.6033 -0.1087  0.5885
  107OSM   H11B10945   3.067   4.911  10.887  1.3944 -0.0518 -0.2870
  107OSM      P10946   2.834   4.810  11.034  0.1076 -0.3286 -0.3670
  107OSM    O1310947   2.784   4.694  11.109  0.1391  0.3670 -0.3773
  107OSM    O1410948   2.756   4.937  11.055  0.5103  0.5544 -0.6227
  107OSM    O1110949   2.845   4.776  10.881 -0.4923  0.0498  0.0561
  107OSM    O1210950   2.981   4.837  11.070  0.2982 -0.6460 -0.1268
  107OSM    C1S10951   2.727   4.758  10.800 -1.2755 -0.1350 -1.0159
  107OSM    H1S10952   2.635   4.806  10.839 -0.4587 -0.0408  0.8470
  107OSM    H1T10953   2.707   4.649  10.793  0.4321 -0.5975  0.9938
  107OSM     NF10954   2.632   4.822  10.586 -0.3017  0.7843 -0.0461
  107OSM    HNF10955   2.598   4.736  10.548  0.0897  0.7181 -0.2491
  107OSM    C2S10956   2.753   4.819  10.662  0.3094 -0.6562 -0.4196
  107OSM    H2S10957   2.796   4.922  10.673  0.3496 -0.7709  0.5208
  107OSM    C3S10958   2.865   4.739  10.586  0.1721 -0.3747  0.1010
  107OSM    H3S10959   2.824   4.638  10.562  0.3541 -0.6737  1.0584
  107OSM     O310960   2.984   4.715  10.662  0.4409 -0.3063  0.2413
  107OSM    HO310961   2.967   4.744  10.752  0.0359  0.5977 -0.1105
  107OSM    C4S10962   2.898   4.798  10.452  0.1226  0.0333  0.0128
  107OSM    H4S10963   2.906   4.908  10.455  2.0197 -0.1567  3.0882
  107OSM    C5S10964   2.919   4.736  10.336 -0.0233  0.5364  0.0661
  107OSM    H5S10965   2.919   4.626  10.339 -1.4582  0.5507  2.0258
  107OSM    C6S10966   2.965   4.809  10.218  0.3664  0.4324 -0.9903
  107OSM    H6S10967   3.064   4.771  10.184 -0.1716 -0.5276 -1.5194
  107OSM    H6T10968   2.973   4.918  10.232  1.3183  0.1349  0.8466
  107OSM    C7S10969   2.872   4.799  10.093 -0.1957  0.5768 -0.9763
  107OSM    H7S10970   2.766   4.828  10.114  0.4437  1.2455  1.4789
  107OSM    H7T10971   2.884   4.695  10.055  1.8601  0.6526 -0.5974
  107OSM    C8S10972   2.923   4.889   9.989  0.3006 -0.7335  0.0862
  107OSM    H8S10973   3.024   4.849   9.966  1.5538 -0.1896  4.2081
  107OSM    H8T10974   2.927   4.996  10.017 -0.8667 -0.8413  0.7109
  107OSM    C9S10975   2.845   4.868   9.859  0.1325 -0.7655 -0.1476
  107OSM    H9S10976   2.738   4.888   9.882  0.5250 -0.2413  1.2494
  107OSM    H9T10977   2.854   4.762   9.826  3.9756  0.4202 -3.3096
  107OSM   C10S10978   2.884   4.953   9.741  1.2482 -0.3144 -0.3938
  107OSM   H10S10979   2.982   4.927   9.696  1.7363  0.5885  0.1246
  107OSM   H10T10980   2.889   5.056   9.781  0.8734 -0.6626  0.5570
  107OSM   C11S10981   2.771   4.956   9.636 -0.4523  0.4298  0.1957
  107OSM   H11S10982   2.685   5.023   9.657  1.0148  2.0843  1.0844
  107OSM   H11T10983   2.740   4.852   9.616  0.7366  0.4024 -1.6343
  107OSM   C12S10984   2.829   5.012   9.506 -0.2717 -0.0663 -0.2293
  107OSM   H12S10985   2.914   4.946   9.476  0.0152 -0.5673  1.6157
  107OSM   H12T10986   2.858   5.119   9.514  1.6693 -0.6924  1.4585
  107OSM   C13S10987   2.729   4.996   9.392 -0.0574 -0.3178  0.1346
  107OSM   H13S10988   2.651   5.075   9.394 -0.3046 -0.5337 -0.7335
  107OSM   H13T10989   2.677   4.898   9.394  1.3784 -1.1616 -1.9163
  107OSM   C14S10990   2.794   5.017   9.249  0.1371  0.7129 -0.8752
  107OSM   H14S10991   2.875   4.941   9.239 -0.9938 -0.6021 -0.2912
  107OSM   H14T10992   2.865   5.103   9.246 -0.9700  1.8086  2.2408
  107OSM   C15S10993   2.703   5.032   9.121  0.2795 -0.5341 -0.8774
  107OSM   H15S10994   2.651   5.130   9.137 -0.0459 -1.1296  2.0037
  107OSM   H15T10995   2.619   4.959   9.113 -1.2659  0.8477  1.8721
  107OSM   C16S10996   2.785   5.038   8.993  0.5228  0.2721  0.9017
  107OSM   H16S10997   2.883   5.086   9.012  1.3537 -0.9623 -0.1600
  107OSM   H16T10998   2.726   5.101   8.923  0.5279  0.5224  1.1269
  107OSM   C17S10999   2.810   4.900   8.932  0.3702 -0.3963 -0.4637
  107OSM   H17S11000   2.711   4.850   8.931  0.6253 -0.8878 -0.8532
  107OSM   H17T11001   2.873   4.839   9.002  0.0988  1.0675  1.1006
  107OSM   C18S11002   2.882   4.900   8.797  0.1223  0.6673 -0.2422
  107OSM   H18S11003   2.918   4.798   8.772  0.2731  0.5933  0.2865
  107OSM   H18T11004   2.974   4.963   8.800  0.4914  0.0901  0.8718
  107OSM   H18U11005   2.816   4.932   8.713 -0.2011  1.7336  0.4180
  107OSM    C1F11006   2.542   4.923  10.586 -0.0788  0.1662  0.0866
  107OSM     OF11007   2.548   5.007  10.673 -0.2010 -0.7598  1.0093
  107OSM    C2F11008   2.442   4.931  10.474 -0.3063 -0.6614  1.2982
  107OSM    H2F11009   2.346   4.896  10.518 -0.4295  1.9543  3.2217
  107OSM    H2G11010   2.482   4.863  10.396  0.7270  1.4333 -0.0373
  107OSM    C3F11011   2.411   5.080  10.432 -0.7306  0.3406 -0.2765
  107OSM    H3F11012   2.500   5.139  10.402 -0.5068  0.2041  0.1195
  107OSM    H3G11013   2.350   5.124  10.514  1.3364  1.3678  0.7323
  107OSM    C4F11014   2.330   5.076  10.293 -0.3538  0.1970  0.2348
  107OSM    H4F11015   2.299   5.182  10.281  0.7136  0.2704 -2.2637
  107OSM    H4G11016   2.239   5.015  10.308  0.6604 -1.1610  1.0363
  107OSM    C5F11017   2.420   5.050  10.167  0.5783 -0.3450  0.4644
  107OSM    H5F11018   2.483   4.958  10.172  1.2205 -0.0650 -1.9117
  107OSM    H5G11019   2.494   5.130  10.148 -0.2018  0.4268  0.6591
  107OSM    C6F11020   2.332   5.022  10.042  0.5349 -0.0716 -0.0484
  107OSM    H6F11021   2.274   5.117  10.032  0.6089  0.0806  0.9124
  107OSM    H6G11022   2.254   4.950  10.075  0.1558 -0.3575 -1.5053
  107OSM    C7F11023   2.411   5.002   9.917  0.2743 -0.1097  0.7398
  107OSM    H7F11024   2.464   4.905   9.910  0.3484 -0.2537  2.9013
  107OSM    H7G11025   2.494   5.075   9.906  0.1712 -0.4735 -2.9567
  107OSM    C8F11026   2.318   5.001   9.797  0.0228 -0.3791 -0.2483
  107OSM    H8F11027   2.284   5.105   9.784 -1.6288 -0.8431  0.2963
  107OSM    H8G11028   2.229   4.941   9.824  0.0966 -0.2980  0.1759
  107OSM    C9F11029   2.382   4.951   9.675  0.0732  0.4784 -0.3516
  107OSM    H9F11030   2.458   4.875   9.698 -0.1971 -0.4442 -2.4043
  107OSM   C10F11031   2.345   4.957   9.542 -0.6249  0.0167  0.4841
  107OSM   H10F11032   2.410   4.913   9.465  0.6462  0.9875  0.9704
  107OSM   C11F11033   2.226   5.021   9.475  0.2235 -0.3017  0.3549
  107OSM   H11F11034   2.140   5.029   9.544  0.3316 -1.7137  0.6628
  107OSM   H11G11035   2.178   4.954   9.401  1.0961 -2.5604  1.8132
  107OSM   C12F11036   2.244   5.164   9.420  0.0060  0.1613 -0.2441
  107OSM   H12F11037   2.284   5.221   9.506 -1.7093  1.2466 -0.1369
  107OSM   H12G11038   2.142   5.205   9.402 -1.1292 -1.3273  2.3931
  107OSM   C13F11039   2.346   5.177   9.310  0.1134  0.3038 -0.2198
  107OSM   H13F11040   2.438   5.121   9.337  0.3998  0.0943 -1.6129
  107OSM   H13G11041   2.374   5.284   9.302  2.8015 -0.5746 -3.7249
  107OSM   C14F11042   2.284   5.133   9.178  0.1296  0.8972 -0.8741
  107OSM   H14F11043   2.178   5.167   9.173  0.1359  0.7648 -2.1251
  107OSM   H14G11044   2.285   5.022   9.171  1.9422  0.8106  0.3869
  107OSM   C15F11045   2.340   5.197   9.043  0.6819  0.2218  0.0694
  107OSM   H15F11046   2.265   5.167   8.967 -1.1075  0.7964  1.5757
  107OSM   H15G11047   2.435   5.144   9.018  0.0804 -1.2282  0.8121
  107OSM   C16F11048   2.350   5.352   9.032  0.0547 -0.2390  0.1277
  107OSM   H16F11049   2.410   5.394   9.115  1.5763 -0.6492 -0.7478
  107OSM   H16G11050   2.244   5.386   9.037 -0.5698 -1.8219 -1.7104
  107OSM   C17F11051   2.404   5.395   8.895 -0.5232 -0.7121  0.1836
  107OSM   H17F11052   2.338   5.357   8.815  0.7461 -0.8416 -0.8193
  107OSM   H17G11053   2.497   5.337   8.878 -0.9345 -1.4073  0.2788
  107OSM   C18F11054   2.424   5.546   8.873 -0.1782  0.5954 -1.1662
  107OSM   H18F11055   2.517   5.581   8.923 -1.0105 -1.6908  2.1368
  107OSM   H18G11056   2.345   5.614   8.913  0.1414  1.2796 -1.6869
  107OSM   H18H11057   2.441   5.559   8.764  1.8108  3.1097 -0.5989
  108OSM      N11058   6.613   2.881  10.916 -0.2957 -0.2747  0.1681
  108OSM    C1511059   6.684   2.747  10.902  0.1940 -0.1762 -0.1697
  108OSM   H15A11060   6.757   2.742  10.823  0.3672 -5.0036  0.1450
  108OSM   H15B11061   6.614   2.670  10.874  0.3976 -0.3921 -0.0921
  108OSM   H15C11062   6.726   2.728  11.000 -2.1866 -2.6716  0.4101
  108OSM    C1411063   6.511   2.866  11.020 -0.0689 -0.2415 -0.2837
  108OSM   H14A11064   6.551   2.825  11.111 -2.1783 -1.3743  0.1736
  108OSM   H14B11065   6.428   2.802  10.993 -0.4109  0.6206 -1.3306
  108OSM   H14C11066   6.471   2.962  11.047  1.2564  0.7350 -1.7025
  108OSM    C1311067   6.709   2.986  10.951  0.5190 -0.0612 -0.0332
  108OSM   H13A11068   6.781   2.998  10.871 -0.8957  0.9453 -1.1906
  108OSM   H13B11069   6.765   2.961  11.040  1.9598  1.4219 -0.4942
  108OSM   H13C11070   6.668   3.084  10.972  0.0056  0.1508 -1.9015
  108OSM    C1211071   6.552   2.928  10.789 -0.3488 -0.2170  0.5363
  108OSM   H12A11072   6.623   2.907  10.711  0.4566 -0.1675  1.2452
  108OSM   H12B11073   6.524   3.032  10.797 -0.2669 -0.0292 -1.3779
  108OSM    C1111074   6.418   2.854  10.753 -0.3756 -0.7078 -0.3681
  108OSM   H11A11075   6.388   2.894  10.653 -1.2485  2.8779  1.2863
  108OSM   H11B11076   6.339   2.887  10.824 -1.4495 -1.1328 -1.3337
  108OSM      P11077   6.336   2.621  10.851 -0.0753 -0.3606 -0.2095
  108OSM    O1311078   6.424   2.537  10.928 -0.1440  1.0419 -0.7530
  108OSM    O1411079   6.254   2.714  10.932 -0.2628  0.3732  0.1314
  108OSM    O1111080   6.254   2.531  10.748  0.1688  0.0901  0.6611
  108OSM    O1211081   6.427   2.706  10.751 -0.0329 -0.4362  0.0269
  108OSM    C1S11082   6.178   2.603  10.646  0.1399 -0.7386  0.0515
  108OSM    H1S11083   6.205   2.710  10.641 -2.0156 -0.0836  1.4576
  108OSM    H1T11084   6.070   2.616  10.669  0.2370 -0.4475  0.3450
  108OSM     NF11085   6.122   2.631  10.413 -0.0871 -0.8267 -0.6512
  108OSM    HNF11086   6.030   2.615  10.379 -0.7455  0.3422  0.5274
  108OSM    C2S11087   6.185   2.540  10.507 -0.5396  0.3002  0.3411
  108OSM    H2S11088   6.290   2.531  10.474 -1.0181  1.2281 -1.4944
  108OSM    C3S11089   6.137   2.401  10.517  0.2418  0.5814  0.1507
  108OSM    H3S11090   6.033   2.386  10.554 -0.2188  1.2291 -0.8218
  108OSM     O311091   6.223   2.322  10.600 -0.0948  0.2088  0.2515
  108OSM    HO311092   6.279   2.381  10.651  1.5453  0.2450 -1.5241
  108OSM    C4S11093   6.147   2.345  10.374  0.2648  0.2218  0.4154
  108OSM    H4S11094   6.049   2.356  10.325 -0.1327 -2.0337  0.6633
  108OSM    C5S11095   6.258   2.307  10.308 -1.7363  0.0328 -0.1353
  108OSM    H5S11096   6.352   2.315  10.364 -1.1470 -1.5444 -0.8713
  108OSM    C6S11097   6.270   2.251  10.164  0.4361 -0.7415  0.5414
  108OSM    H6S11098   6.192   2.174  10.150  1.7596 -2.0276  0.0939
  108OSM    H6T11099   6.368   2.199  10.165  0.8669  0.0567  2.0848
  108OSM    C7S11100   6.283   2.369  10.063  0.2548  0.0737 -0.7512
  108OSM    H7S11101   6.380   2.421  10.077  1.2555 -1.7426 -0.8550
  108OSM    H7T11102   6.205   2.442  10.095 -0.7886 -1.2553 -0.1919
  108OSM    C8S11103   6.266   2.342   9.916  0.3223 -0.4801  0.4939
  108OSM    H8S11104   6.255   2.445   9.874  0.8530 -0.1546  1.1295
  108OSM    H8T11105   6.171   2.286   9.905 -0.5886  0.6015  2.4949
  108OSM    C9S11106   6.381   2.275   9.855  0.6399 -0.4329 -1.0462
  108OSM    H9S11107   6.386   2.171   9.892 -1.6349 -1.3446 -3.1612
  108OSM    H9T11108   6.474   2.320   9.896 -0.5145 -0.8274  2.1476
  108OSM   C10S11109   6.391   2.284   9.705 -0.0262  0.3740 -0.4385
  108OSM   H10S11110   6.494   2.280   9.662 -0.8478 -1.2256 -2.3426
  108OSM   H10T11111   6.351   2.384   9.679  1.0007  0.5938 -1.1991
  108OSM   C11S11112   6.317   2.169   9.627  0.1349 -0.0157  0.3479
  108OSM   H11S11113   6.227   2.136   9.683 -0.8563 -1.2817 -1.9226
  108OSM   H11T11114   6.392   2.087   9.620 -1.2251 -1.2427 -0.0873
  108OSM   C12S11115   6.277   2.202   9.479 -0.4095 -0.0798 -0.1311
  108OSM   H12S11116   6.373   2.204   9.423 -0.4451  1.9322 -0.1769
  108OSM   H12T11117   6.249   2.310   9.477  1.0340  0.3158 -0.1141
  108OSM   C13S11118   6.177   2.120   9.400  0.2603 -0.5456  0.3614
  108OSM   H13S11119   6.078   2.108   9.448 -0.6018  1.5457 -0.8293
  108OSM   H13T11120   6.225   2.021   9.380  1.1663  0.3149 -1.9328
  108OSM   C14S11121   6.163   2.190   9.262 -0.1777  0.4943  0.1450
  108OSM   H14S11122   6.264   2.212   9.221 -0.6380  0.3513 -1.0989
  108OSM   H14T11123   6.108   2.286   9.273 -2.6131 -0.8344 -0.2864
  108OSM   C15S11124   6.076   2.097   9.168  0.2914  0.7997  0.4312
  108OSM   H15S11125   5.986   2.074   9.228  0.4068  2.5512  1.2889
  108OSM   H15T11126   6.127   1.999   9.161 -2.8178 -0.9264  1.0703
  108OSM   C16S11127   6.035   2.143   9.028 -0.1582 -0.0972  0.4468
  108OSM   H16S11128   5.960   2.223   9.048 -0.5058 -0.7361  1.7800
  108OSM   H16T11129   5.997   2.056   8.970 -1.2483 -0.0979  1.1334
  108OSM   C17S11130   6.145   2.213   8.941  0.6598  0.3381  0.0766
  108OSM   H17S11131   6.192   2.286   9.011 -0.7884  0.2089  1.2144
  108OSM   H17T11132   6.093   2.258   8.854 -0.7135 -0.5203  0.4570
  108OSM   C18S11133   6.258   2.123   8.879  0.2735 -0.4720  0.8454
  108OSM   H18S11134   6.228   2.070   8.786  0.7418  2.7979 -1.2325
  108OSM   H18T11135   6.309   2.059   8.953  1.7181  0.7951  0.9753
  108OSM   H18U11136   6.330   2.192   8.831 -1.7734  1.0829 -0.1051
  108OSM    C1F11137   6.183   2.739  10.368 -0.5794  0.5186  0.0825
  108OSM     OF11138   6.303   2.756  10.377  0.6402  0.3280 -0.3494
  108OSM    C2F11139   6.095   2.844  10.310 -0.0036  0.0019  0.0855
  108OSM    H2F11140   6.111   2.939  10.365 -1.1096  0.2428 -0.0030
  108OSM    H2G11141   5.987   2.818  10.322 -0.1104  1.0252  1.5073
  108OSM    C3F11142   6.125   2.860  10.161 -0.5510  0.1996 -0.0238
  108OSM    H3F11143   6.235   2.875  10.155  0.0957 -3.6019  1.0239
  108OSM    H3G11144   6.087   2.960  10.131  0.1944  0.7824  0.9234
  108OSM    C4F11145   6.070   2.756  10.059  0.9683 -0.3760 -0.4631
  108OSM    H4F11146   5.959   2.762  10.060  1.0878  2.8920  2.4649
  108OSM    H4G11147   6.108   2.655  10.086 -0.3173 -1.1349 -1.4913
  108OSM    C5F11148   6.125   2.781   9.917  0.2974 -0.4518  0.5691
  108OSM    H5F11149   6.235   2.770   9.909  0.4361  1.3764 -0.3295
  108OSM    H5G11150   6.096   2.882   9.882  3.4488  0.0838 -0.7009
  108OSM    C6F11151   6.063   2.696   9.809  0.1622  0.1626  0.3871
  108OSM    H6F11152   5.954   2.680   9.822  0.3630 -0.2501  1.5928
  108OSM    H6G11153   6.114   2.599   9.828 -0.4972 -0.4380 -0.8465
  108OSM    C7F11154   6.098   2.753   9.672  0.2722 -0.1697 -0.1893
  108OSM    H7F11155   6.205   2.756   9.644  0.6191  0.0634  1.1621
  108OSM    H7G11156   6.074   2.862   9.669  0.7681 -0.0738 -0.7806
  108OSM    C8F11157   6.004   2.694   9.570 -0.7151  0.4986  0.0348
  108OSM    H8F11158   6.010   2.758   9.479  0.8373 -0.1684 -0.3490
  108OSM    H8G11159   5.902   2.698   9.614  0.0894 -1.7318  2.2280
  108OSM    C9F11160   6.039   2.558   9.526 -0.4485  0.1357  0.7793
  108OSM    H9F11161   6.132   2.541   9.469 -0.8682 -0.1488  0.1720
  108OSM   C10F11162   5.968   2.446   9.565 -0.5143 -0.3740 -0.5543
  108OSM   H10F11163   6.004   2.353   9.518 -3.6743 -1.0499 -1.7853
  108OSM   C11F11164   5.840   2.449   9.641 -0.2965 -1.0655  0.3891
  108OSM   H11F11165   5.763   2.496   9.577  1.8456  0.8268 -0.8975
  108OSM   H11G11166   5.854   2.509   9.733 -5.2587 -0.3566  0.8056
  108OSM   C12F11167   5.791   2.310   9.688 -0.0979 -0.1814 -0.8261
  108OSM   H12F11168   5.795   2.239   9.603  0.8028 -1.5941  0.3696
  108OSM   H12G11169   5.681   2.311   9.707 -0.6013 -0.4534 -3.5472
  108OSM   C13F11170   5.867   2.243   9.807 -0.3961  0.1786  0.1549
  108OSM   H13F11171   5.867   2.310   9.895 -2.1850  0.1709  0.1742
  108OSM   H13G11172   5.974   2.236   9.775  0.3015  2.2403  1.9165
  108OSM   C14F11173   5.806   2.117   9.871 -0.0617  0.2247 -0.5852
  108OSM   H14F11174   5.784   2.041   9.793 -0.2533 -0.2318 -0.0844
  108OSM   H14G11175   5.712   2.143   9.924  1.2501  0.0417  1.9042
  108OSM   C15F11176   5.896   2.049   9.979 -0.1254 -0.3119  0.1725
  108OSM   H15F11177   5.942   2.126  10.044  3.5130 -0.5573 -2.0026
  108OSM   H15G11178   5.957   1.969   9.931  1.8422  1.0406  0.3669
  108OSM   C16F11179   5.810   1.994  10.092 -0.3314  0.9187  0.0164
  108OSM   H16F11180   5.760   1.903  10.051  0.1743  0.0779  1.2495
  108OSM   H16G11181   5.727   2.065  10.113 -1.3886  0.5798 -2.6850
  108OSM   C17F11182   5.880   1.957  10.220 -1.2408  0.4212  0.7407
  108OSM   H17F11183   5.801   1.938  10.296 -0.8637  0.4563  1.1397
  108OSM   H17G11184   5.944   2.043  10.247  1.0186 -0.7396 -0.7726
  108OSM   C18F11185   5.971   1.836  10.204  0.5137  0.0496  0.6761
  108OSM   H18F11186   6.038   1.848  10.116 -1.3442 -1.6023 -1.0489
  108OSM   H18G11187   5.906   1.746  10.203 -1.5033  1.4523  1.8025
  108OSM   H18H11188   6.027   1.834  10.300  1.0333 -1.4397  0.3556
  109OSM      N11189   6.590   4.241  10.655 -0.4471  0.5996 -0.0401
  109OSM    C1511190   6.722   4.301  10.612  0.1854  0.5801 -0.0501
  109OSM   H15A11191   6.788   4.279  10.694 -0.7390  1.3335  0.9059
  109OSM   H15B11192   6.709   4.407  10.594  1.5756  0.6552 -0.6440
  109OSM   H15C11193   6.757   4.249  10.524  1.0601 -0.9262  1.1604
  109OSM    C1411194   6.552   4.302  10.794 -0.2531 -0.0023 -0.0007
  109OSM   H14A11195   6.642   4.295  10.854  1.3898  2.2912 -2.1088
  109OSM   H14B11196   6.473   4.242  10.838  1.5707 -2.6188 -0.1849
  109OSM   H14C11197   6.528   4.407  10.789 -0.8061 -0.1827 -1.2001
  109OSM    C1311198   6.489   4.264  10.550 -0.0341 -0.7386  0.0033
  109OSM   H13A11199   6.532   4.248  10.452  1.0159 -0.3007  0.3754
  109OSM   H13B11200   6.471   4.370  10.543  2.4982 -0.2199  0.5085
  109OSM   H13C11201   6.393   4.217  10.565 -0.0426 -1.6196 -2.5716
  109OSM    C1211202   6.621   4.094  10.671  0.1888  0.4389 -0.1535
  109OSM   H12A11203   6.694   4.089  10.750 -0.5915  1.5555  0.6600
  109OSM   H12B11204   6.661   4.055  10.579 -0.7046  1.0299 -0.8079
  109OSM    C1111205   6.508   4.003  10.704 -0.0346 -0.2284  0.4906
  109OSM   H11A11206   6.417   4.037  10.650  1.4857  2.9207 -0.2124
  109OSM   H11B11207   6.476   4.001  10.811 -0.5588 -2.3235  0.3175
  109OSM      P11208   6.468   3.776  10.567  0.0865 -0.1292  0.1547
  109OSM    O1311209   6.556   3.663  10.536  0.1426 -0.0053  0.8161
  109OSM    O1411210   6.337   3.750  10.634 -0.3541  0.3737  0.4013
  109OSM    O1111211   6.451   3.854  10.429  0.3690  0.1548 -0.3591
  109OSM    O1211212   6.551   3.875  10.659  0.0343  0.0580  0.0830
  109OSM    C1S11213   6.563   3.925  10.374 -0.2480  0.7792 -0.1300
  109OSM    H1S11214   6.657   3.884  10.417 -0.8491  1.3968  1.8238
  109OSM    H1T11215   6.573   4.033  10.396 -0.0493  0.7647 -0.1495
  109OSM     NF11216   6.687   3.994  10.176  0.7765 -0.1260  0.0884
  109OSM    HNF11217   6.679   4.092  10.159  0.6705 -0.2184 -0.4289
  109OSM    C2S11218   6.565   3.924  10.217 -0.3743 -0.2294 -0.2644
  109OSM    H2S11219   6.564   3.819  10.181 -1.8699  0.4385 -2.2821
  109OSM    C3S11220   6.433   3.983  10.168  0.6316 -0.0647 -0.4052
  109OSM    H3S11221   6.420   4.088  10.203  2.7343  0.3559 -0.7851
  109OSM     O311222   6.315   3.922  10.218  0.1183 -0.1475 -0.1303
  109OSM    HO311223   6.349   3.885  10.300 -0.5161  2.5847  1.4328
  109OSM    C4S11224   6.415   3.993  10.021  0.6333  0.5773  0.6121
  109OSM    H4S11225   6.450   4.087   9.976  1.3183  0.2000  0.3474
  109OSM    C5S11226   6.367   3.895   9.940 -0.3382 -0.2439  0.7294
  109OSM    H5S11227   6.342   3.798   9.986  0.6966 -0.9208 -0.0986
  109OSM    C6S11228   6.360   3.904   9.787 -0.6654 -0.3530 -0.3684
  109OSM    H6S11229   6.253   3.888   9.763 -1.3382 -1.3192  3.0019
  109OSM    H6T11230   6.411   3.815   9.746  0.6715 -0.0163  0.5087
  109OSM    C7S11231   6.392   4.034   9.713 -0.9449 -0.6882 -0.3176
  109OSM    H7S11232   6.502   4.043   9.713 -1.0206  0.3104  1.7144
  109OSM    H7T11233   6.346   4.125   9.755  1.6601  0.4990  0.0268
  109OSM    C8S11234   6.352   4.037   9.567 -0.0422 -0.4764  0.7564
  109OSM    H8S11235   6.365   4.133   9.513 -1.0643 -0.1661  1.0509
  109OSM    H8T11236   6.243   4.019   9.569  0.0019 -0.7530  0.6855
  109OSM    C9S11237   6.407   3.923   9.482  0.1879 -0.2353 -0.8370
  109OSM    H9S11238   6.382   3.825   9.528  0.3058 -0.0494 -0.3763
  109OSM    H9T11239   6.518   3.934   9.476  0.1114 -0.0050 -1.8912
  109OSM   C10S11240   6.340   3.921   9.348  0.1991 -0.4364  1.1317
  109OSM   H10S11241   6.350   4.021   9.300 -0.6034 -0.9462 -0.1293
  109OSM   H10T11242   6.230   3.908   9.347  0.3855 -2.1798  0.4317
  109OSM   C11S11243   6.403   3.819   9.247 -0.5637 -0.5081 -0.6486
  109OSM   H11S11244   6.408   3.715   9.286  2.4237  0.4878  1.8715
  109OSM   H11T11245   6.509   3.847   9.228  0.2316 -1.3736  2.3187
  109OSM   C12S11246   6.335   3.818   9.114  0.7280 -0.6464  0.1775
  109OSM   H12S11247   6.319   3.926   9.092  1.0575 -0.2139  1.9632
  109OSM   H12T11248   6.242   3.758   9.120 -0.0216  0.6814  3.0610
  109OSM   C13S11249   6.415   3.749   8.997 -0.2406 -0.0135  0.1304
  109OSM   H13S11250   6.416   3.641   9.018  1.5763 -0.0362  0.0261
  109OSM   H13T11251   6.521   3.783   8.994  0.1097 -1.0551  0.7681
  109OSM   C14S11252   6.341   3.773   8.862  0.5013 -0.0427  0.0444
  109OSM   H14S11253   6.364   3.881   8.844  0.3095  0.1867  1.1214
  109OSM   H14T11254   6.235   3.757   8.891  0.8602 -2.4296  0.1136
  109OSM   C15S11255   6.387   3.679   8.748 -0.5831  0.3882  0.2463
  109OSM   H15S11256   6.433   3.587   8.789 -0.6397 -0.3624 -1.3231
  109OSM   H15T11257   6.471   3.726   8.693 -1.2875  2.2769  0.7076
  109OSM   C16S11258   6.274   3.646   8.654 -0.1353  0.3461 -0.3764
  109OSM   H16S11259   6.223   3.732   8.605 -0.8839 -0.3249 -0.7817
  109OSM   H16T11260   6.187   3.590   8.696  1.6419 -1.5500  0.8349
  109OSM   C17S11261   6.304   3.549   8.535 -0.1641  0.2393 -0.4788
  109OSM   H17S11262   6.388   3.597   8.480 -0.6091  0.5470 -0.8985
  109OSM   H17T11263   6.218   3.537   8.466 -1.0858  0.5814  0.5868
  109OSM   C18S11264   6.352   3.412   8.576  0.0980  0.4067 -0.0958
  109OSM   H18S11265   6.402   3.358   8.493  0.7194  1.3175 -0.3174
  109OSM   H18T11266   6.279   3.343   8.626 -1.7380  0.5994 -2.4205
  109OSM   H18U11267   6.428   3.424   8.656 -0.2468 -1.0562  0.4853
  109OSM    C1F11268   6.802   3.933  10.183  0.0233  0.5618 -0.8799
  109OSM     OF11269   6.808   3.812  10.201  0.3398 -0.1986 -0.1721
  109OSM    C2F11270   6.920   4.021  10.181 -0.1174  0.5784  0.4480
  109OSM    H2F11271   6.952   4.037  10.287  1.1471  0.9759  0.0106
  109OSM    H2G11272   6.908   4.117  10.127  3.1673  0.7665 -0.0469
  109OSM    C3F11273   7.044   3.950  10.119 -0.2540  0.0916 -0.2623
  109OSM    H3F11274   7.075   3.867  10.186 -0.5749  0.1152 -0.0866
  109OSM    H3G11275   7.130   4.020  10.123  0.7668 -1.1156 -0.4836
  109OSM    C4F11276   7.025   3.889   9.974 -0.2118  0.8587  0.0822
  109OSM    H4F11277   7.096   3.945   9.910  0.8443  0.9420  1.2904
  109OSM    H4G11278   6.930   3.923   9.927  0.0008  1.5079  0.1149
  109OSM    C5F11279   7.068   3.741   9.949 -0.0287 -0.4227 -0.0668
  109OSM    H5F11280   7.016   3.674  10.020  0.1313  0.1860  0.6279
  109OSM    H5G11281   7.175   3.729   9.978 -0.4391  1.4725  2.3643
  109OSM    C6F11282   7.053   3.695   9.800  0.8006  0.1470  0.3780
  109OSM    H6F11283   7.115   3.761   9.736 -1.6002  1.4047 -0.7447
  109OSM    H6G11284   6.946   3.694   9.769  0.7507  1.1680  0.4953
  109OSM    C7F11285   7.087   3.546   9.786  0.0283  0.1110  0.4840
  109OSM    H7F11286   7.005   3.494   9.840  0.6791 -2.2830 -0.7807
  109OSM    H7G11287   7.187   3.517   9.823 -0.0108 -1.4420 -0.5721
  109OSM    C8F11288   7.071   3.493   9.641  0.4050 -0.2408 -0.8610
  109OSM    H8F11289   6.973   3.529   9.604  0.6002  0.0784 -1.0756
  109OSM    H8G11290   7.065   3.382   9.645 -1.7282 -0.1502 -0.8667
  109OSM    C9F11291   7.192   3.542   9.563  0.1081 -0.0582 -0.1621
  109OSM    H9F11292   7.201   3.651   9.546 -1.4741  0.3462  1.3499
  109OSM   C10F11293   7.314   3.480   9.542  0.8400  0.3593 -0.0413
  109OSM   H10F11294   7.390   3.533   9.483  0.9949 -2.5149 -2.4886
  109OSM   C11F11295   7.356   3.346   9.598 -0.0987  1.0421 -0.2128
  109OSM   H11F11296   7.267   3.306   9.652  0.9804 -1.2290 -0.0497
  109OSM   H11G11297   7.437   3.345   9.673  1.1330  2.3402 -1.4923
  109OSM   C12F11298   7.390   3.235   9.496  0.2170 -0.0861  0.5434
  109OSM   H12F11299   7.408   3.151   9.567  1.7672 -0.0365  0.2226
  109OSM   H12G11300   7.462   3.260   9.415  0.5702 -0.1597  0.8311
  109OSM   C13F11301   7.270   3.194   9.408  0.7796  0.6043  0.1422
  109OSM   H13F11302   7.176   3.226   9.458  0.2559  0.0123 -0.4597
  109OSM   H13G11303   7.265   3.085   9.385  0.2056  0.2283  2.0290
  109OSM   C14F11304   7.272   3.264   9.270  0.6711  0.9038  0.3551
  109OSM   H14F11305   7.373   3.275   9.225  0.7523  0.5322  0.4436
  109OSM   H14G11306   7.228   3.363   9.294  1.7232  2.2347 -2.8972
  109OSM   C15F11307   7.185   3.184   9.179 -0.3757 -0.2348 -0.4409
  109OSM   H15F11308   7.083   3.162   9.219 -1.0215  2.7758 -0.3033
  109OSM   H15G11309   7.235   3.086   9.169 -0.6131 -0.5123  0.9018
  109OSM   C16F11310   7.163   3.242   9.048 -0.5103 -0.8402  0.1937
  109OSM   H16F11311   7.256   3.245   8.987  0.3886 -0.9727  1.5166
  109OSM   H16G11312   7.135   3.349   9.058 -0.4345 -0.8616  0.6862
  109OSM   C17F11313   7.052   3.162   8.971 -0.2623 -0.3616  0.5395
  109OSM   H17F11314   6.962   3.163   9.036 -1.3314  0.8411 -0.9394
  109OSM   H17G11315   7.080   3.054   8.960 -1.1699 -0.3898 -1.8435
  109OSM   C18F11316   7.002   3.220   8.841  0.8902 -0.5821 -0.8967
  109OSM   H18F11317   6.909   3.170   8.806  1.6606 -2.4803 -0.2932
  109OSM   H18G11318   7.079   3.212   8.761  1.5335  0.2100 -0.3625
  109OSM   H18H11319   6.973   3.323   8.871  1.7895 -1.1459  2.0703
  110OSM      N11320   1.489   2.714  10.992  0.0617  0.3745  0.7220
  110OSM    C1511321   1.475   2.849  11.055 -0.3877 -0.2614 -0.6049
  110OSM   H15A11322   1.479   2.930  10.984 -2.0342 -0.3445 -0.8079
  110OSM   H15B11323   1.547   2.869  11.134  0.9727  0.7135 -2.0528
  110OSM   H15C11324   1.376   2.859  11.096 -0.3796 -0.8781 -0.4311
  110OSM    C1411325   1.635   2.667  10.973  0.6548 -0.0321 -0.0577
  110OSM   H14A11326   1.688   2.644  11.064  2.4127 -0.4156 -1.1561
  110OSM   H14B11327   1.692   2.738  10.915 -0.6863  0.0313 -1.3239
  110OSM   H14C11328   1.631   2.580  10.909 -1.0602  1.8457 -2.6242
  110OSM    C1311329   1.435   2.620  11.092 -0.0135 -0.0245  0.6434
  110OSM   H13A11330   1.489   2.630  11.185  0.1819  2.8935  0.2830
  110OSM   H13B11331   1.451   2.519  11.057 -1.3076 -0.3048  0.8443
  110OSM   H13C11332   1.330   2.631  11.116 -0.1135 -1.0001  0.6701
  110OSM    C1211333   1.410   2.707  10.866 -0.9753 -0.1275  0.5161
  110OSM   H12A11334   1.311   2.745  10.886 -2.2506 -2.3102 -1.3286
  110OSM   H12B11335   1.393   2.602  10.845 -1.8585  0.2369 -0.6605
  110OSM    C1111336   1.464   2.778  10.738  0.0796 -0.2431  0.5371
  110OSM   H11A11337   1.385   2.741  10.669  0.8112  0.5330 -0.7325
  110OSM   H11B11338   1.563   2.748  10.699  1.3739  2.2272  1.8471
  110OSM      P11339   1.572   3.009  10.729  0.2176  0.0905  0.0241
  110OSM    O1311340   1.540   3.142  10.783  0.2666 -0.1799  0.4643
  110OSM    O1411341   1.692   2.945  10.786  0.0306  0.2401  0.2917
  110OSM    O1111342   1.582   3.037  10.574  0.1890  0.2275  0.2274
  110OSM    O1211343   1.448   2.921  10.753 -0.1049 -0.3009 -0.5744
  110OSM    C1S11344   1.472   3.068  10.486 -0.4330  0.1617  0.5809
  110OSM    H1S11345   1.474   3.179  10.481  0.7945  0.1015 -0.5039
  110OSM    H1T11346   1.372   3.030  10.515 -0.1581 -0.8757  0.2097
  110OSM     NF11347   1.407   3.083  10.244  0.2976 -0.0573  0.7357
  110OSM    HNF11348   1.332   3.035  10.197  1.8170  1.2428 -3.1984
  110OSM    C2S11349   1.494   3.015  10.343  0.1167 -0.5640  0.3546
  110OSM    H2S11350   1.598   3.040  10.314 -0.4347  0.1562 -1.0758
  110OSM    C3S11351   1.488   2.865  10.330 -0.0105 -0.4972 -0.0845
  110OSM    H3S11352   1.387   2.827  10.357 -0.5536  0.6640 -0.4686
  110OSM     O311353   1.580   2.795  10.417  0.3890  0.3112  0.3153
  110OSM    HO311354   1.624   2.866  10.465  0.8297  1.0323 -1.1038
  110OSM    C4S11355   1.515   2.825  10.188 -0.4701 -0.3191  0.4691
  110OSM    H4S11356   1.621   2.828  10.159 -0.9036  1.7549 -0.9603
  110OSM    C5S11357   1.432   2.759  10.105  0.1104 -0.3746 -1.0148
  110OSM    H5S11358   1.327   2.747  10.132  0.0575 -0.9058 -1.4336
  110OSM    C6S11359   1.476   2.724   9.969 -0.6474  0.0719  0.9870
  110OSM    H6S11360   1.532   2.629   9.987  0.7695  0.9401  1.2806
  110OSM    H6T11361   1.538   2.807   9.930 -0.4257 -0.3952  0.3335
  110OSM    C7S11362   1.358   2.699   9.868  0.1080 -0.3355  0.3943
  110OSM    H7S11363   1.296   2.791   9.875 -0.7378 -0.7507 -1.3330
  110OSM    H7T11364   1.296   2.612   9.901 -1.4188  0.0346 -1.3947
  110OSM    C8S11365   1.408   2.675   9.722 -0.2089  0.1873  0.2167
  110OSM    H8S11366   1.464   2.579   9.725 -2.1006 -0.9403  0.4111
  110OSM    H8T11367   1.472   2.764   9.700  0.1930 -0.4112 -1.0874
  110OSM    C9S11368   1.294   2.659   9.615 -0.7405 -0.1024 -0.5717
  110OSM    H9S11369   1.224   2.745   9.621  0.5002  0.8382  0.6053
  110OSM    H9T11370   1.234   2.568   9.637 -1.7421  0.2786 -1.6745
  110OSM   C10S11371   1.346   2.658   9.473  0.3116  0.0591 -0.0109
  110OSM   H10S11372   1.420   2.575   9.470  0.2004 -0.1166  1.5610
  110OSM   H10T11373   1.389   2.755   9.439  1.0396 -0.6007 -0.9893
  110OSM   C11S11374   1.236   2.631   9.369  0.3837 -0.7536  0.0254
  110OSM   H11S11375   1.153   2.702   9.390 -0.9055 -2.6217  1.3772
  110OSM   H11T11376   1.185   2.535   9.393  0.4935 -0.4441  1.5685
  110OSM   C12S11377   1.284   2.646   9.221  0.1312  0.1167  0.3824
  110OSM   H12S11378   1.352   2.558   9.220  0.4160  0.3412 -0.4647
  110OSM   H12T11379   1.355   2.728   9.196  0.2116 -0.0406  0.0958
  110OSM   C13S11380   1.178   2.651   9.111  0.5411 -0.0416  0.6361
  110OSM   H13S11381   1.134   2.752   9.127 -0.9508 -0.3396 -1.3429
  110OSM   H13T11382   1.101   2.573   9.127  1.3433 -0.6192  1.7320
  110OSM   C14S11383   1.246   2.616   8.975  0.7226 -0.6378  0.6371
  110OSM   H14S11384   1.170   2.572   8.908 -0.7824  2.5856  0.1312
  110OSM   H14T11385   1.319   2.536   8.997 -0.1692 -1.2045  1.5826
  110OSM   C15S11386   1.316   2.733   8.906  0.2346  0.0420  0.5946
  110OSM   H15S11387   1.388   2.705   8.826 -1.4594  1.6607 -1.5599
  110OSM   H15T11388   1.371   2.798   8.977  0.9514 -0.6966  0.7274
  110OSM   C16S11389   1.203   2.806   8.833 -0.2455 -0.3508 -0.5288
  110OSM   H16S11390   1.136   2.855   8.907  0.2335 -0.2898 -0.1376
  110OSM   H16T11391   1.128   2.740   8.785 -3.1402  0.8226  2.1883
  110OSM   C17S11392   1.255   2.904   8.737  1.1535  0.2803 -0.1120
  110OSM   H17S11393   1.330   2.869   8.663 -0.7366 -2.9965 -0.5582
  110OSM   H17T11394   1.297   2.986   8.800 -2.3695  1.4858  0.7720
  110OSM   C18S11395   1.134   2.956   8.663  0.0757  0.1501 -0.2585
  110OSM   H18S11396   1.056   3.011   8.719  0.3578 -1.2859  1.6081
  110OSM   H18T11397   1.086   2.869   8.613  1.3753 -1.0605  0.5616
  110OSM   H18U11398   1.162   3.020   8.576  0.6816 -1.6858 -1.4488
  110OSM    C1F11399   1.407   3.217  10.230 -0.0127  0.3790 -0.7214
  110OSM     OF11400   1.497   3.285  10.268  0.0726 -0.1102 -0.2471
  110OSM    C2F11401   1.288   3.282  10.164  0.7225 -0.7869 -0.2384
  110OSM    H2F11402   1.228   3.310  10.253  1.7063 -0.5969  0.3690
  110OSM    H2G11403   1.235   3.207  10.101  0.8743 -0.4134 -0.8111
  110OSM    C3F11404   1.325   3.402  10.070 -0.0507  0.8289 -0.0135
  110OSM    H3F11405   1.386   3.363   9.986 -0.4459 -0.7193  0.4062
  110OSM    H3G11406   1.391   3.478  10.117  0.5671 -0.7138  1.6613
  110OSM    C4F11407   1.215   3.498  10.018 -0.6524  0.0287 -0.5565
  110OSM    H4F11408   1.178   3.577  10.087  1.7089  1.0105 -0.3407
  110OSM    H4G11409   1.128   3.444   9.976 -1.5715  1.5553 -0.6686
  110OSM    C5F11410   1.262   3.593   9.903  0.4144 -0.0609  0.5769
  110OSM    H5F11411   1.344   3.661   9.935  1.0416  0.1222 -1.3590
  110OSM    H5G11412   1.178   3.653   9.862 -0.8347 -2.0627  0.1584
  110OSM    C6F11413   1.311   3.517   9.779  0.0279 -0.0551  0.2772
  110OSM    H6F11414   1.235   3.451   9.733 -0.5220  0.0159  1.0611
  110OSM    H6G11415   1.402   3.462   9.812 -0.4144  0.1435  1.8950
  110OSM    C7F11416   1.380   3.609   9.678  0.4198  0.2144 -0.2673
  110OSM    H7F11417   1.467   3.662   9.722  1.9102 -2.6241  0.3388
  110OSM    H7G11418   1.312   3.694   9.657  2.2363  1.2732 -2.0218
  110OSM    C8F11419   1.415   3.534   9.550 -0.1895  0.6011  0.7532
  110OSM    H8F11420   1.475   3.449   9.589 -0.2301  0.8427  1.3500
  110OSM    H8G11421   1.460   3.605   9.478 -0.7847 -0.1805 -0.4091
  110OSM    C9F11422   1.290   3.482   9.487  0.1763 -0.3871  0.0011
  110OSM    H9F11423   1.249   3.400   9.547  2.4142  0.0700  2.2203
  110OSM   C10F11424   1.238   3.513   9.369  0.0830 -0.5300  0.2442
  110OSM   H10F11425   1.149   3.459   9.334 -0.5900  0.2417  0.7413
  110OSM   C11F11426   1.287   3.623   9.282 -0.6665  0.3248 -0.0583
  110OSM   H11F11427   1.348   3.699   9.335  0.3498 -1.2796  1.1158
  110OSM   H11G11428   1.199   3.658   9.224  0.4706  2.9392 -0.2707
  110OSM   C12F11429   1.372   3.561   9.166  0.3562  0.4242  0.5407
  110OSM   H12F11430   1.457   3.502   9.208  1.8182  0.4054 -2.3321
  110OSM   H12G11431   1.414   3.648   9.111 -0.5725 -0.8483 -2.2847
  110OSM   C13F11432   1.298   3.482   9.061  0.4710  0.5558 -0.0521
  110OSM   H13F11433   1.233   3.559   9.013 -1.0949 -2.2781 -2.6545
  110OSM   H13G11434   1.235   3.403   9.107  2.6631 -1.2072 -0.0108
  110OSM   C14F11435   1.391   3.420   8.952  0.1061 -0.1479  0.6361
  110OSM   H14F11436   1.483   3.368   8.986  0.2537 -1.1615 -1.2416
  110OSM   H14G11437   1.417   3.514   8.899 -0.9660 -0.5147 -0.5763
  110OSM   C15F11438   1.300   3.333   8.861  0.1931  0.1372  0.4607
  110OSM   H15F11439   1.198   3.338   8.906 -0.9279  0.0624 -1.9637
  110OSM   H15G11440   1.339   3.229   8.867 -0.2151 -0.0321  0.2591
  110OSM   C16F11441   1.311   3.364   8.702  0.3287  0.3322  0.5996
  110OSM   H16F11442   1.283   3.469   8.678 -1.7892 -0.4306 -0.4070
  110OSM   H16G11443   1.236   3.310   8.641  3.5325  0.1155 -3.3900
  110OSM   C17F11444   1.446   3.336   8.646  0.4425 -0.2651  0.4479
  110OSM   H17F11445   1.478   3.234   8.677 -0.8276 -1.1299 -1.0697
  110OSM   H17G11446   1.524   3.405   8.686  1.5913 -0.6066 -1.1530
  110OSM   C18F11447   1.447   3.344   8.496  0.2372  0.3094 -0.5077
  110OSM   H18F11448   1.551   3.366   8.464  0.1551  1.0397 -0.2748
  110OSM   H18G11449   1.380   3.422   8.455 -1.0738 -1.1542 -1.2202
  110OSM   H18H11450   1.420   3.249   8.445 -1.2564  0.7848 -0.6282
  111OSM      N11451   2.651   5.675  10.839  0.2143  0.3057 -0.5076
  111OSM    C1511452   2.757   5.570  10.815 -0.4543 -0.0650 -0.3299
  111OSM   H15A11453   2.755   5.496  10.893 -2.1331 -0.2996 -0.5663
  111OSM   H15B11454   2.860   5.602  10.815 -0.6354  0.5834 -2.0556
  111OSM   H15C11455   2.748   5.520  10.719  1.0122  2.5261 -1.8770
  111OSM    C1411456   2.513   5.600  10.851 -0.3938  0.7011 -0.2351
  111OSM   H14A11457   2.500   5.536  10.937 -1.3497  0.8286 -0.2766
  111OSM   H14B11458   2.503   5.527  10.773  2.3042 -0.4789  0.4897
  111OSM   H14C11459   2.423   5.659  10.861 -1.2782 -0.5686 -0.5882
  111OSM    C1311460   2.677   5.733  10.975  0.5299 -0.4186  0.4379
  111OSM   H13A11461   2.775   5.778  10.977 -0.0216  0.8921 -0.5560
  111OSM   H13B11462   2.648   5.665  11.053 -1.1413 -0.7365 -0.4238
  111OSM   H13C11463   2.610   5.815  10.997  1.1461  0.2194  0.0004
  111OSM    C1211464   2.652   5.774  10.725 -1.2790  0.0884  0.6093
  111OSM   H12A11465   2.622   5.731  10.631  2.5728  0.9378 -1.1084
  111OSM   H12B11466   2.750   5.815  10.706 -1.0182 -1.3807 -1.3333
  111OSM    C1111467   2.557   5.896  10.747 -0.4035 -0.1972 -0.3711
  111OSM   H11A11468   2.580   5.965  10.663 -1.5794  0.3335 -0.2698
  111OSM   H11B11469   2.576   5.948  10.843 -0.4068  0.9457 -0.9741
  111OSM      P11470   2.302   5.955  10.770  0.2008  0.4309  0.1157
  111OSM    O1311471   2.182   5.868  10.794 -0.4361  0.3420  0.5986
  111OSM    O1411472   2.357   6.051  10.872 -0.1737  0.0808  0.6065
  111OSM    O1111473   2.277   6.034  10.638 -0.0169  0.5406 -0.5634
  111OSM    O1211474   2.419   5.860  10.726  0.5122 -0.5550 -0.3400
  111OSM    C1S11475   2.280   5.971  10.509 -0.1076 -0.4083  0.5279
  111OSM    H1S11476   2.229   5.873  10.512  0.2744 -0.6069  0.5417
  111OSM    H1T11477   2.384   5.945  10.479 -0.7973 -2.1814 -0.3984
  111OSM     NF11478   2.231   5.972  10.271 -0.3020 -0.1796 -0.1636
  111OSM    HNF11479   2.304   5.993  10.207 -0.7562  1.3294 -0.2181
  111OSM    C2S11480   2.225   6.054  10.391  0.5844  0.0625 -0.0852
  111OSM    H2S11481   2.116   6.064  10.406  0.9509  0.1983  2.5700
  111OSM    C3S11482   2.286   6.190  10.381  0.1872 -0.2491 -0.1545
  111OSM    H3S11483   2.397   6.183  10.388  0.1544 -0.8675 -0.2708
  111OSM     O311484   2.263   6.276  10.484  0.2218  0.6369 -0.0186
  111OSM    HO311485   2.240   6.222  10.559 -0.2417  0.3409 -0.3730
  111OSM    C4S11486   2.257   6.264  10.258  0.3404 -0.2177 -0.5529
  111OSM    H4S11487   2.323   6.234  10.176  1.3037  0.6593 -0.1101
  111OSM    C5S11488   2.159   6.349  10.231 -0.6929 -0.7641  0.2456
  111OSM    H5S11489   2.086   6.377  10.310 -0.2324  0.4759  0.2407
  111OSM    C6S11490   2.130   6.421  10.100  0.5744 -0.4298 -0.1495
  111OSM    H6S11491   2.150   6.530  10.104  0.0839 -0.3797  1.8700
  111OSM    H6T11492   2.020   6.410  10.086  0.8878  0.5346 -3.5630
  111OSM    C7S11493   2.198   6.357   9.967 -0.1439  0.0186 -1.1025
  111OSM    H7S11494   2.187   6.246   9.961  0.6344 -0.1005 -0.4783
  111OSM    H7T11495   2.303   6.388   9.985 -0.0257 -0.3583 -1.1422
  111OSM    C8S11496   2.134   6.434   9.847  0.1115 -0.3874 -0.1514
  111OSM    H8S11497   2.116   6.543   9.866  1.4256 -0.4827  1.7392
  111OSM    H8T11498   2.031   6.394   9.832  0.3309 -1.2465  0.5994
  111OSM    C9S11499   2.214   6.424   9.714  0.6562  0.2455  0.6634
  111OSM    H9S11500   2.213   6.317   9.684  1.8181 -0.8100  4.1458
  111OSM    H9T11501   2.322   6.442   9.731  0.4243  0.7344  1.6793
  111OSM   C10S11502   2.153   6.516   9.603 -0.3478 -0.1173  0.0714
  111OSM   H10S11503   2.164   6.620   9.642  1.0391 -0.0345 -0.5099
  111OSM   H10T11504   2.043   6.500   9.596 -0.4473  0.6493 -0.2464
  111OSM   C11S11505   2.210   6.492   9.461 -0.4155 -0.4467  0.5291
  111OSM   H11S11506   2.209   6.383   9.445 -2.9331 -0.1597 -1.4652
  111OSM   H11T11507   2.313   6.528   9.483 -0.9498  1.7261 -0.3706
  111OSM   C12S11508   2.126   6.562   9.352 -0.7563 -0.1388  0.9567
  111OSM   H12S11509   2.070   6.652   9.389 -3.0953 -0.4171 -1.7147
  111OSM   H12T11510   2.065   6.478   9.314 -2.2994  0.9089  1.0435
  111OSM   C13S11511   2.224   6.620   9.246 -0.2337  0.8490  0.6728
  111OSM   H13S11512   2.295   6.535   9.250 -1.3646 -0.1131  0.5675
  111OSM   H13T11513   2.277   6.715   9.270 -1.2210  1.2133  1.4108
  111OSM   C14S11514   2.154   6.644   9.115 -0.9080  0.1752 -0.9185
  111OSM   H14S11515   2.096   6.737   9.101  0.6407  1.2099 -0.5679
  111OSM   H14T11516   2.081   6.560   9.109  0.2345 -0.8207 -0.9270
  111OSM   C15S11517   2.254   6.623   9.000 -0.3618 -0.3707 -0.1349
  111OSM   H15S11518   2.305   6.525   9.006  1.8110  0.8069  0.9701
  111OSM   H15T11519   2.332   6.698   9.022  0.0369 -1.7816  3.6129
  111OSM   C16S11520   2.200   6.641   8.857 -0.5483  0.0619 -0.3053
  111OSM   H16S11521   2.148   6.739   8.865  0.5055  0.7458 -1.5595
  111OSM   H16T11522   2.133   6.557   8.830 -0.5409 -0.2013  0.4935
  111OSM   C17S11523   2.316   6.668   8.764  0.4457  1.0194  0.1233
  111OSM   H17S11524   2.370   6.753   8.810  0.6221  0.8959  0.1447
  111OSM   H17T11525   2.279   6.708   8.667  0.9250  0.2142 -0.4029
  111OSM   C18S11526   2.403   6.540   8.761 -0.1974  0.4105  0.1719
  111OSM   H18S11527   2.432   6.490   8.856  3.4860  1.7808 -0.1467
  111OSM   H18T11528   2.502   6.550   8.711  0.2566 -3.0356  0.2106
  111OSM   H18U11529   2.338   6.470   8.704 -2.8975  3.2529 -0.3512
  111OSM    C1F11530   2.156   5.857  10.257 -0.0330 -0.7588 -0.4660
  111OSM     OF11531   2.065   5.845  10.338 -0.3698 -1.0157  0.1588
  111OSM    C2F11532   2.186   5.766  10.150 -0.1535  0.1042  0.1955
  111OSM    H2F11533   2.285   5.727  10.182  0.3558 -0.0969 -1.5498
  111OSM    H2G11534   2.193   5.812  10.049 -0.0555  0.0648  0.1830
  111OSM    C3F11535   2.082   5.652  10.144  0.1098  0.7834  0.0021
  111OSM    H3F11536   1.983   5.685  10.104 -0.4445 -1.9055 -0.9550
  111OSM    H3G11537   2.052   5.607  10.241  1.3676 -1.7035 -0.7275
  111OSM    C4F11538   2.111   5.533  10.054  1.3082 -0.4875  0.0614
  111OSM    H4F11539   2.031   5.457  10.070  1.3394 -0.8135 -1.2391
  111OSM    H4G11540   2.205   5.485  10.088  2.0937 -0.1305 -1.5784
  111OSM    C5F11541   2.107   5.575   9.913  0.2232 -0.3986 -0.1547
  111OSM    H5F11542   2.184   5.654   9.905  1.4171 -1.4108  1.0678
  111OSM    H5G11543   2.009   5.607   9.872 -0.1534 -1.4520 -0.1100
  111OSM    C6F11544   2.165   5.459   9.824  0.0544  0.3796  0.3436
  111OSM    H6F11545   2.078   5.409   9.776  0.6114 -0.1199 -0.1633
  111OSM    H6G11546   2.215   5.385   9.890  0.3030 -0.2271 -0.5077
  111OSM    C7F11547   2.266   5.510   9.719 -0.2582  0.0716 -0.1442
  111OSM    H7F11548   2.316   5.425   9.667  1.2075 -0.3063  1.8286
  111OSM    H7G11549   2.340   5.571   9.775 -1.3990  1.5283 -0.1843
  111OSM    C8F11550   2.212   5.600   9.604 -0.1437  0.5647  1.3093
  111OSM    H8F11551   2.298   5.614   9.536 -1.1728 -0.8277 -0.3279
  111OSM    H8G11552   2.179   5.696   9.650 -0.4998  1.3471 -0.5621
  111OSM    C9F11553   2.094   5.539   9.527  1.0038 -0.0350 -0.2356
  111OSM    H9F11554   2.019   5.488   9.589  0.3061  1.2646  0.0149
  111OSM   C10F11555   2.082   5.534   9.391  0.3464 -0.8063 -0.2524
  111OSM   H10F11556   1.984   5.493   9.360 -0.7208  1.5317 -0.1076
  111OSM   C11F11557   2.175   5.584   9.285 -0.5565  0.1501  0.3760
  111OSM   H11F11558   2.186   5.514   9.199  1.6993  1.1243 -0.1527
  111OSM   H11G11559   2.276   5.599   9.328  0.3807 -1.4020 -1.2314
  111OSM   C12F11560   2.120   5.722   9.241  0.0011  0.6281  0.3197
  111OSM   H12F11561   2.111   5.785   9.333 -1.9256  1.6847 -0.5743
  111OSM   H12G11562   2.018   5.707   9.201  1.1093  0.7770 -2.6567
  111OSM   C13F11563   2.207   5.791   9.138  0.5594 -0.1268 -0.7834
  111OSM   H13F11564   2.215   5.728   9.047  2.4488 -0.7819 -0.1981
  111OSM   H13G11565   2.311   5.797   9.178  0.8704  0.8639 -1.6784
  111OSM   C14F11566   2.131   5.930   9.110 -0.2148 -0.5783 -0.0265
  111OSM   H14F11567   2.153   5.995   9.197  2.0824  2.9461 -3.0999
  111OSM   H14G11568   2.021   5.910   9.112 -0.6429  1.3755 -2.2383
  111OSM   C15F11569   2.167   5.995   8.980  0.0190  0.2365  0.4934
  111OSM   H15F11570   2.159   5.920   8.899 -2.1388  1.2123 -0.2189
  111OSM   H15G11571   2.272   6.032   8.980  0.4123 -0.8702  0.9801
  111OSM   C16F11572   2.076   6.113   8.943  0.4627  0.1115 -0.3099
  111OSM   H16F11573   2.077   6.192   9.021  0.8797 -0.6980  0.5240
  111OSM   H16G11574   1.977   6.071   8.916  1.0620 -0.7436 -1.2278
  111OSM   C17F11575   2.116   6.192   8.809 -0.2369  0.0953  1.2297
  111OSM   H17F11576   2.210   6.252   8.814  2.1491 -3.4847  0.8503
  111OSM   H17G11577   2.037   6.270   8.802 -0.1157 -0.0310 -2.7470
  111OSM   C18F11578   2.106   6.124   8.668 -0.2798  0.7367 -0.2274
  111OSM   H18F11579   2.089   6.194   8.584 -0.5902 -0.4817 -1.1913
  111OSM   H18G11580   2.018   6.059   8.686  0.0223  0.9921  2.5023
  111OSM   H18H11581   2.198   6.063   8.653  0.3087  1.6650 -0.4509
  112OSM      N11582   2.868   3.988  10.861  0.0901  0.1096  0.1516
  112OSM    C1511583   2.951   4.111  10.867 -0.0605 -0.0948  0.4584
  112OSM   H15A11584   2.903   4.207  10.855  1.5389  0.7481  0.5464
  112OSM   H15B11585   3.026   4.111  10.789 -0.3785  2.6090  0.1028
  112OSM   H15C11586   3.008   4.107  10.959  1.3581 -1.9598 -0.4567
  112OSM    C1411587   2.789   3.981  10.743  0.5434  0.2317  0.1639
  112OSM   H14A11588   2.714   3.904  10.749  0.4942  0.3464  1.2136
  112OSM   H14B11589   2.854   3.965  10.658 -0.6666 -1.9757 -0.3696
  112OSM   H14C11590   2.726   4.068  10.732  0.7401  0.5112  1.2214
  112OSM    C1311591   2.953   3.871  10.869  0.1170  0.6049  0.5542
  112OSM   H13A11592   3.020   3.855  10.786 -0.7935  1.6049 -0.3894
  112OSM   H13B11593   2.909   3.772  10.876 -0.6029  1.0559  2.7140
  112OSM   H13C11594   3.003   3.873  10.964  0.1142 -0.4448  0.5909
  112OSM    C1211595   2.772   3.982  10.975 -0.2533  0.1601  0.4100
  112OSM   H12A11596   2.700   4.062  10.968  0.0916  0.5131  0.9236
  112OSM   H12B11597   2.830   3.995  11.065 -1.2951  3.0834  0.7289
  112OSM    C1111598   2.684   3.858  10.986  0.0753 -0.0747 -0.1435
  112OSM   H11A11599   2.643   3.864  11.089  1.0547  0.0104  0.2498
  112OSM   H11B11600   2.749   3.769  10.975  0.2944 -0.3017  2.6427
  112OSM      P11601   2.430   3.885  10.920 -0.1180  0.1098 -0.2241
  112OSM    O1311602   2.385   3.796  11.029 -0.0674 -0.8875 -0.1224
  112OSM    O1411603   2.406   4.028  10.930 -0.2952  0.5506  0.1944
  112OSM    O1111604   2.364   3.830  10.783 -0.3440 -0.2595 -0.3290
  112OSM    O1211605   2.580   3.859  10.890 -0.0485  0.5744 -0.3151
  112OSM    C1S11606   2.399   3.908  10.664 -0.2623 -0.4450 -0.1026
  112OSM    H1S11607   2.509   3.918  10.647 -0.2112 -0.5266  0.1690
  112OSM    H1T11608   2.376   4.016  10.678 -0.2760 -0.2344 -1.7231
  112OSM     NF11609   2.407   3.907  10.425  0.8067  0.1318 -0.1494
  112OSM    HNF11610   2.365   3.979  10.370  1.7603 -0.7953 -2.1724
  112OSM    C2S11611   2.334   3.852  10.537  0.8193  0.3982  0.1968
  112OSM    H2S11612   2.344   3.742  10.532 -2.5279  0.0912 -0.6006
  112OSM    C3S11613   2.183   3.888  10.541  0.8915  0.3838  0.4101
  112OSM    H3S11614   2.173   3.996  10.563 -0.6122  0.4585 -0.5446
  112OSM     O311615   2.112   3.842  10.654  0.0386  0.4837 -0.1123
  112OSM    HO311616   2.171   3.810  10.722 -0.8813  2.1242  1.4862
  112OSM    C4S11617   2.120   3.839  10.410 -1.0647 -0.1664  0.0390
  112OSM    H4S11618   2.091   3.921  10.343  3.4828  0.5431 -1.2353
  112OSM    C5S11619   2.063   3.717  10.376 -0.4194 -0.4799 -0.4605
  112OSM    H5S11620   2.070   3.624  10.435  1.8014  1.1414  1.9590
  112OSM    C6S11621   1.994   3.699  10.243  0.5152  0.7186 -0.1033
  112OSM    H6S11622   2.017   3.782  10.172  0.2578  0.9134  0.0418
  112OSM    H6T11623   1.884   3.691  10.255  0.6911 -1.1775  0.3756
  112OSM    C7S11624   2.037   3.567  10.177  0.1511 -0.2485 -0.4462
  112OSM    H7S11625   1.987   3.484  10.231  0.3189 -1.0462 -1.5008
  112OSM    H7T11626   2.146   3.546  10.182 -0.0244 -0.8427  1.0522
  112OSM    C8S11627   1.993   3.555  10.031 -0.5784  0.6896  0.4724
  112OSM    H8S11628   1.889   3.594  10.033 -0.5344  0.7504  1.6547
  112OSM    H8T11629   1.992   3.447  10.005  2.8014  1.0043 -1.2555
  112OSM    C9S11630   2.080   3.625   9.929 -0.1005  0.1308  0.7259
  112OSM    H9S11631   2.177   3.574   9.940 -0.2947 -1.1288 -2.7783
  112OSM    H9T11632   2.085   3.734   9.949 -0.8149  0.3387 -0.1647
  112OSM   C10S11633   2.024   3.604   9.788  0.0269 -0.7192  0.3359
  112OSM   H10S11634   1.930   3.663   9.777 -1.7260 -3.3538  0.6340
  112OSM   H10T11635   2.002   3.497   9.767  0.2605 -0.6309 -0.3914
  112OSM   C11S11636   2.122   3.652   9.683 -0.6180 -0.9327 -0.7527
  112OSM   H11S11637   2.217   3.593   9.679 -1.0749 -1.5577 -3.1936
  112OSM   H11T11638   2.162   3.751   9.712 -0.1749 -0.9918 -1.1498
  112OSM   C12S11639   2.062   3.665   9.544 -0.6710  0.5274  0.7639
  112OSM   H12S11640   1.988   3.747   9.541 -0.8337  0.3892  1.0363
  112OSM   H12T11641   2.013   3.569   9.517 -1.2161  1.0168 -0.0104
  112OSM   C13S11642   2.153   3.708   9.427 -0.6245 -0.6433  0.5776
  112OSM   H13S11643   2.227   3.629   9.400  0.6639  0.3053  1.3006
  112OSM   H13T11644   2.216   3.796   9.449 -2.0452  0.6995 -0.5828
  112OSM   C14S11645   2.078   3.740   9.297 -0.0002 -0.1817 -0.1010
  112OSM   H14S11646   2.012   3.824   9.328  0.3780  0.2322 -0.4097
  112OSM   H14T11647   2.008   3.657   9.274 -1.0869 -0.3042  3.3162
  112OSM   C15S11648   2.179   3.763   9.182  0.7499 -0.3173 -0.5038
  112OSM   H15S11649   2.245   3.673   9.172  0.2258 -0.4816 -2.9821
  112OSM   H15T11650   2.243   3.847   9.216  2.3372 -1.6221 -0.1692
  112OSM   C16S11651   2.104   3.774   9.046  0.1241  0.3370  0.1142
  112OSM   H16S11652   2.034   3.858   9.065 -2.1594 -1.8389  1.6505
  112OSM   H16T11653   2.044   3.685   9.018 -0.9302  0.1895  2.7261
  112OSM   C17S11654   2.198   3.822   8.943  0.4416  0.1951 -0.3979
  112OSM   H17S11655   2.275   3.743   8.929  1.1133  1.0147 -1.3646
  112OSM   H17T11656   2.247   3.911   8.989 -0.9005  0.3240  0.8108
  112OSM   C18S11657   2.131   3.868   8.810  0.2953 -0.3118 -0.0921
  112OSM   H18S11658   2.199   3.909   8.731 -0.6217  0.5848 -0.4271
  112OSM   H18T11659   2.036   3.924   8.824 -0.2118 -1.0220 -0.6496
  112OSM   H18U11660   2.092   3.776   8.762  0.5426 -0.5862  0.2326
  112OSM    C1F11661   2.532   3.875  10.394 -0.0316  0.1656 -0.0915
  112OSM     OF11662   2.591   3.794  10.465 -0.0720  0.1905 -0.2205
  112OSM    C2F11663   2.598   3.949  10.283 -0.0136 -0.2102 -0.6403
  112OSM    H2F11664   2.704   3.969  10.313  0.4755 -1.0768 -1.7435
  112OSM    H2G11665   2.546   4.044  10.257  0.6092  0.8051  1.7031
  112OSM    C3F11666   2.585   3.864  10.154  0.5194  0.2288  0.1472
  112OSM    H3F11667   2.647   3.774  10.168  3.7955  2.4080  0.0900
  112OSM    H3G11668   2.631   3.916  10.067 -0.1448  0.1007 -0.2938
  112OSM    C4F11669   2.441   3.825  10.109  0.4679  0.5929  0.3007
  112OSM    H4F11670   2.390   3.765  10.187 -1.9645  2.0913 -0.0763
  112OSM    H4G11671   2.451   3.764  10.017 -0.7087 -0.2115  0.6950
  112OSM    C5F11672   2.346   3.946  10.084  0.4127 -0.5172 -0.0904
  112OSM    H5F11673   2.350   4.010  10.174  0.3048 -1.1217  0.3497
  112OSM    H5G11674   2.246   3.901  10.066  1.0073 -1.1758 -1.8570
  112OSM    C6F11675   2.396   4.021   9.959  0.3513  0.0484 -0.3068
  112OSM    H6F11676   2.492   4.070   9.985  0.5516 -0.6608  0.3104
  112OSM    H6G11677   2.315   4.095   9.941 -0.2384 -0.2821  0.9508
  112OSM    C7F11678   2.413   3.930   9.832 -0.6427  0.1959 -0.5396
  112OSM    H7F11679   2.310   3.891   9.820  0.2251 -1.8583 -1.6297
  112OSM    H7G11680   2.491   3.852   9.848 -0.9158  0.2547  1.1779
  112OSM    C8F11681   2.457   4.018   9.720 -0.0451 -0.3493 -0.1245
  112OSM    H8F11682   2.553   4.069   9.743 -0.4160 -0.0389  0.7682
  112OSM    H8G11683   2.396   4.104   9.684  0.8528  0.9386  1.3501
  112OSM    C9F11684   2.486   3.925   9.613  0.1174  0.2428  0.6337
  112OSM    H9F11685   2.481   3.818   9.638 -5.2181  0.0968 -0.5201
  112OSM   C10F11686   2.525   3.958   9.491 -0.1890 -0.0576  0.0752
  112OSM   H10F11687   2.550   3.890   9.408 -0.1710 -1.1137  0.9365
  112OSM   C11F11688   2.536   4.105   9.448  0.2732  0.5508  0.1293
  112OSM   H11F11689   2.632   4.140   9.492 -0.3155  0.3463  1.5756
  112OSM   H11G11690   2.456   4.169   9.490 -1.0409  1.0593 -3.0015
  112OSM   C12F11691   2.535   4.102   9.294 -0.1577 -0.3242 -0.0556
  112OSM   H12F11692   2.432   4.074   9.263  0.7638 -1.0587 -2.6723
  112OSM   H12G11693   2.589   4.011   9.257  1.3169 -0.9703  3.5212
  112OSM   C13F11694   2.571   4.238   9.228 -0.0462  0.2978 -0.8406
  112OSM   H13F11695   2.673   4.271   9.254  0.0411 -0.5534 -0.0853
  112OSM   H13G11696   2.493   4.314   9.248  0.5273  1.6582 -3.5007
  112OSM   C14F11697   2.580   4.220   9.077  0.6543  0.5502  0.4946
  112OSM   H14F11698   2.645   4.133   9.054 -0.9552 -0.8904  1.2919
  112OSM   H14G11699   2.627   4.315   9.042  3.1137 -0.2143  1.5956
  112OSM   C15F11700   2.446   4.217   9.009 -0.3339  0.0421  0.9329
  112OSM   H15F11701   2.391   4.309   9.038  1.4371  1.1680  0.8390
  112OSM   H15G11702   2.396   4.125   9.044 -2.2761  1.3571  1.6772
  112OSM   C16F11703   2.445   4.221   8.855  0.4518  0.0955  0.5439
  112OSM   H16F11704   2.461   4.326   8.825  0.4053  0.3970  1.5508
  112OSM   H16G11705   2.348   4.185   8.814  0.8120  1.3555 -1.4633
  112OSM   C17F11706   2.552   4.124   8.799  0.2875  0.0492  0.4996
  112OSM   H17F11707   2.552   4.018   8.831  1.5208 -1.0209 -2.8039
  112OSM   H17G11708   2.649   4.173   8.824  0.2434  0.2592  0.2596
  112OSM   C18F11709   2.550   4.110   8.644 -0.3790 -0.8818 -0.1910
  112OSM   H18F11710   2.444   4.098   8.613 -0.3281  2.9756 -2.1335
  112OSM   H18G11711   2.619   4.035   8.601 -1.0484  0.3385 -3.5773
  112OSM   H18H11712   2.590   4.201   8.593 -0.9012 -0.4791  0.1140
  113OSM      N11713   6.257   0.494  11.160 -0.0592 -0.1627  0.1854
  113OSM    C1511714   6.373   0.554  11.234 -0.9422  0.5687  0.1392
  113OSM   H15A11715   6.397   0.658  11.216  0.0372  0.3441  0.1083
  113OSM   H15B11716   6.461   0.494  11.216 -2.1474 -1.1062 -0.2993
  113OSM   H15C11717   6.359   0.533  11.339  1.6408 -0.5839  0.2940
  113OSM    C1411718   6.222   0.360  11.215 -0.1747 -0.3289 -0.4407
  113OSM   H14A11719   6.310   0.299  11.199  0.1405  0.5017 -1.9542
  113OSM   H14B11720   6.140   0.319  11.158 -0.7537 -2.2649  1.6993
  113OSM   H14C11721   6.197   0.362  11.320  0.3169 -1.6304 -0.2816
  113OSM    C1311722   6.129   0.572  11.166 -0.6607 -0.6650  0.5204
  113OSM   H13A11723   6.054   0.535  11.097 -0.4897  1.8353 -1.0346
  113OSM   H13B11724   6.145   0.678  11.160  0.6190 -0.9223 -0.8300
  113OSM   H13C11725   6.081   0.566  11.263  1.3468  1.7092  1.7094
  113OSM    C1211726   6.302   0.489  11.015 -0.7326 -0.5241  0.4487
  113OSM   H12A11727   6.240   0.431  10.948 -0.3814  0.1267 -0.4504
  113OSM   H12B11728   6.398   0.439  11.015 -0.1934  0.4808 -1.0115
  113OSM    C1111729   6.325   0.619  10.941 -0.2415 -0.3059  0.3544
  113OSM   H11A11730   6.384   0.597  10.850 -1.5445 -1.7209 -0.1628
  113OSM   H11B11731   6.375   0.697  11.003 -1.2048  0.0802  0.6444
  113OSM      P11732   6.167   0.818  10.884  0.2926 -0.2221  0.8693
  113OSM    O1311733   6.079   0.860  10.993  0.2032  0.1212 -0.1224
  113OSM    O1411734   6.290   0.896  10.864 -0.7096  0.0506 -0.4108
  113OSM    O1111735   6.078   0.828  10.752 -0.0334 -0.3379 -0.4225
  113OSM    O1211736   6.204   0.667  10.897  0.5044  0.3041 -0.1956
  113OSM    C1S11737   6.126   0.864  10.622 -0.2231 -0.9681 -0.0110
  113OSM    H1S11738   6.185   0.778  10.582  1.9504 -0.1530  1.3372
  113OSM    H1T11739   6.214   0.931  10.620 -1.2373  0.3838  0.3897
  113OSM     NF11740   6.048   0.926  10.395 -0.7219 -0.6191  0.2849
  113OSM    HNF11741   6.065   1.020  10.365  0.8065 -0.5848  1.2371
  113OSM    C2S11742   6.010   0.917  10.533  0.0849 -0.3961 -0.0062
  113OSM    H2S11743   5.929   0.844  10.551 -0.4766  0.0068 -0.8590
  113OSM    C3S11744   5.968   1.057  10.590 -0.6271 -0.2046  0.4293
  113OSM    H3S11745   6.046   1.135  10.584 -0.8484  0.0316  0.5928
  113OSM     O311746   5.948   1.053  10.730  0.0603  0.3870  0.2910
  113OSM    HO311747   5.985   0.970  10.759 -1.4161  0.0300  1.2074
  113OSM    C4S11748   5.854   1.108  10.511  0.3273  1.4184 -0.7392
  113OSM    H4S11749   5.765   1.043  10.504  0.7473  0.1449  3.9105
  113OSM    C5S11750   5.850   1.238  10.460  0.1022 -0.2642  0.0464
  113OSM    H5S11751   5.941   1.297  10.480 -0.7337  0.9902  0.2191
  113OSM    C6S11752   5.736   1.289  10.379 -0.4401 -0.7370 -0.4460
  113OSM    H6S11753   5.691   1.382  10.422 -2.4032 -0.8315 -2.2152
  113OSM    H6T11754   5.651   1.223  10.402  0.2595 -0.5863  2.8996
  113OSM    C7S11755   5.764   1.314  10.233 -0.5465 -0.3734 -0.9122
  113OSM    H7S11756   5.675   1.356  10.181 -0.0122 -0.4435 -1.8840
  113OSM    H7T11757   5.787   1.221  10.178 -1.7139 -0.4263 -1.3261
  113OSM    C8S11758   5.882   1.401  10.198 -0.6932 -0.5111  0.3885
  113OSM    H8S11759   5.978   1.347  10.216 -1.0723 -1.3221 -0.0223
  113OSM    H8T11760   5.888   1.491  10.264  1.6820 -0.6853  0.4653
  113OSM    C9S11761   5.879   1.446  10.044 -1.6834 -0.2794  0.3487
  113OSM    H9S11762   5.967   1.510  10.024 -3.1346  1.1637 -1.6340
  113OSM    H9T11763   5.794   1.515  10.026 -2.3009 -0.7122  1.5673
  113OSM   C10S11764   5.902   1.350   9.927 -0.6054 -0.6850 -0.8971
  113OSM   H10S11765   5.827   1.268   9.925  0.7823 -1.9774 -1.1979
  113OSM   H10T11766   6.001   1.304   9.946 -1.0316 -1.1452  0.2864
  113OSM   C11S11767   5.909   1.416   9.796  0.4478  0.6371 -0.5498
  113OSM   H11S11768   5.952   1.519   9.794  0.0434  0.8502  1.0151
  113OSM   H11T11769   5.805   1.424   9.757 -0.4648 -1.1397  1.4620
  113OSM   C12S11770   5.989   1.322   9.699 -0.1177 -0.3760  0.2329
  113OSM   H12S11771   5.928   1.231   9.682  0.1353 -0.1618 -1.9594
  113OSM   H12T11772   6.081   1.281   9.744  0.8753  0.5402 -0.9355
  113OSM   C13S11773   6.017   1.408   9.568 -0.3629 -0.5702  0.1564
  113OSM   H13S11774   6.095   1.484   9.591  2.3389 -1.7878 -4.3124
  113OSM   H13T11775   5.924   1.463   9.541 -0.7426 -1.1638  0.2475
  113OSM   C14S11776   6.060   1.319   9.453 -1.0364 -0.3791  0.4205
  113OSM   H14S11777   5.971   1.314   9.387 -0.0458 -0.4045 -0.9343
  113OSM   H14T11778   6.081   1.213   9.478  1.4168 -0.4885 -1.9612
  113OSM   C15S11779   6.175   1.372   9.364 -0.2288 -0.2749 -0.7053
  113OSM   H15S11780   6.259   1.385   9.435 -0.8126 -0.0995 -0.0439
  113OSM   H15T11781   6.144   1.471   9.324 -0.4088  0.2574  0.7428
  113OSM   C16S11782   6.192   1.273   9.246  0.0645  1.0227  0.5080
  113OSM   H16S11783   6.093   1.260   9.197  0.0653  0.9410  0.5278
  113OSM   H16T11784   6.215   1.172   9.286  1.9457  1.6645  1.0720
  113OSM   C17S11785   6.302   1.309   9.146 -0.7610 -0.3928 -0.1564
  113OSM   H17S11786   6.405   1.293   9.184 -0.6236  0.6917 -0.0511
  113OSM   H17T11787   6.293   1.418   9.126 -2.1005 -0.5411 -0.3869
  113OSM   C18S11788   6.297   1.232   9.019  0.5887 -0.3271 -0.0335
  113OSM   H18S11789   6.202   1.260   8.968  0.2385 -0.0279  0.7786
  113OSM   H18T11790   6.296   1.123   9.040  1.0698  0.0328  1.9519
  113OSM   H18U11791   6.387   1.260   8.959  1.2113 -0.9457  0.5971
  113OSM    C1F11792   6.082   0.819  10.320 -0.5048 -0.4315  0.2680
  113OSM     OF11793   6.053   0.711  10.363 -0.7082  0.8054 -0.0484
  113OSM    C2F11794   6.151   0.846  10.188  0.4373  0.7080  0.0646
  113OSM    H2F11795   6.259   0.836  10.212  0.7262  1.9748 -0.6148
  113OSM    H2G11796   6.120   0.943  10.143  0.7038  0.3361 -0.9371
  113OSM    C3F11797   6.115   0.747  10.071 -0.5304  0.2528 -0.6715
  113OSM    H3F11798   6.004   0.738  10.066 -0.6236  1.4373 -0.9686
  113OSM    H3G11799   6.152   0.652  10.114  0.8596  1.1854  0.2387
  113OSM    C4F11800   6.184   0.780   9.942 -0.6014  0.8459  1.2169
  113OSM    H4F11801   6.291   0.800   9.965 -0.6091  1.8462  0.4252
  113OSM    H4G11802   6.145   0.873   9.896 -0.6639  0.8913  1.3623
  113OSM    C5F11803   6.165   0.667   9.837 -0.0603  0.6033  0.2011
  113OSM    H5F11804   6.054   0.656   9.835  0.0890 -1.3634  1.7808
  113OSM    H5G11805   6.202   0.565   9.859  0.9447  0.9708  0.2576
  113OSM    C6F11806   6.217   0.712   9.697  0.3123 -0.0906  0.5381
  113OSM    H6F11807   6.175   0.813   9.679  0.1359 -0.1320  0.7154
  113OSM    H6G11808   6.166   0.653   9.618 -1.2709  1.2632  0.5198
  113OSM    C7F11809   6.368   0.710   9.681  0.2959  0.3187  0.4476
  113OSM    H7F11810   6.409   0.614   9.719  2.6361  2.3327  3.2174
  113OSM    H7G11811   6.419   0.787   9.742 -0.0504 -0.9943  2.4314
  113OSM    C8F11812   6.428   0.727   9.537 -0.5007 -1.1267  0.1795
  113OSM    H8F11813   6.404   0.628   9.495  0.9424 -1.3717 -0.0769
  113OSM    H8G11814   6.537   0.722   9.555 -0.9424 -1.0280  3.2500
  113OSM    C9F11815   6.392   0.843   9.451  0.2312 -0.4030 -0.9123
  113OSM    H9F11816   6.309   0.842   9.379  0.2678  0.7076 -0.9835
  113OSM   C10F11817   6.469   0.950   9.439 -0.3868  0.0725  0.3230
  113OSM   H10F11818   6.448   1.013   9.352  0.0043 -0.9711 -0.5498
  113OSM   C11F11819   6.599   0.984   9.506  0.9515  0.0158 -0.3489
  113OSM   H11F11820   6.683   0.936   9.452 -0.0898 -0.7763 -1.2804
  113OSM   H11G11821   6.601   0.931   9.604 -0.9531  0.1141 -0.2349
  113OSM   C12F11822   6.625   1.124   9.550  0.2906 -0.0840 -0.1236
  113OSM   H12F11823   6.551   1.150   9.629 -0.5710 -2.5690 -0.0588
  113OSM   H12G11824   6.602   1.200   9.472 -1.9776 -1.9760 -1.3930
  113OSM   C13F11825   6.769   1.140   9.613  0.6956 -0.0843 -0.3614
  113OSM   H13F11826   6.842   1.189   9.546  1.4590  0.1520  0.6263
  113OSM   H13G11827   6.807   1.037   9.628  0.6281 -0.1043 -0.3280
  113OSM   C14F11828   6.779   1.236   9.735  0.2822  0.0499  0.4850
  113OSM   H14F11829   6.708   1.196   9.810 -0.9459  0.5655 -0.3834
  113OSM   H14G11830   6.739   1.335   9.703 -0.5395 -0.5787 -0.4529
  113OSM   C15F11831   6.917   1.232   9.798 -0.0631  0.5962 -0.1362
  113OSM   H15F11832   6.997   1.238   9.722  1.0021  1.1405  1.0150
  113OSM   H15G11833   6.933   1.137   9.853  0.5617  0.4119 -0.6310
  113OSM   C16F11834   6.938   1.331   9.914  0.3166 -0.3838  0.5620
  113OSM   H16F11835   6.877   1.278   9.990 -1.2285 -0.1469 -0.4935
  113OSM   H16G11836   6.894   1.429   9.888 -0.1600 -1.1994 -1.7649
  113OSM   C17F11837   7.084   1.335   9.962  1.5054  0.1069  0.0806
  113OSM   H17F11838   7.144   1.390   9.886  2.2703 -0.3435  0.3481
  113OSM   H17G11839   7.126   1.233   9.979  2.0388  0.1303 -1.0442
  113OSM   C18F11840   7.092   1.408  10.096 -0.8011  0.1147  0.1375
  113OSM   H18F11841   7.193   1.400  10.142 -2.0421  0.4434  2.9954
  113OSM   H18G11842   7.019   1.375  10.173  1.2979 -0.7954  1.7919
  113OSM   H18H11843   7.076   1.516  10.075  0.3550  0.9109  3.1448
  114OSM      N11844   1.610   4.380  10.995 -0.1424 -0.5641 -0.1158
  114OSM    C1511845   1.687   4.409  10.874  1.3436  0.6734 -0.0943
  114OSM   H15A11846   1.790   4.381  10.889  1.7123  2.0855 -0.0029
  114OSM   H15B11847   1.687   4.513  10.847  0.2339  0.9346  0.8406
  114OSM   H15C11848   1.660   4.352  10.786  0.4119 -0.8651  1.1504
  114OSM    C1411849   1.668   4.471  11.096  0.6102 -0.2165 -0.2947
  114OSM   H14A11850   1.769   4.440  11.119  0.7823  0.5933  0.0454
  114OSM   H14B11851   1.606   4.488  11.183  0.7158 -1.8191  0.1118
  114OSM   H14C11852   1.675   4.571  11.056  1.2503 -0.4821 -0.8609
  114OSM    C1311853   1.465   4.427  10.980 -0.9741 -0.0261 -0.1572
  114OSM   H13A11854   1.462   4.524  10.933  0.2165  0.3461  0.5078
  114OSM   H13B11855   1.402   4.414  11.066 -0.8688  1.4195  0.1517
  114OSM   H13C11856   1.429   4.358  10.905 -0.4523 -0.2604 -0.1919
  114OSM    C1211857   1.621   4.236  11.038 -0.1728 -0.3130 -0.7879
  114OSM   H12A11858   1.562   4.215  11.126  2.1976 -1.0981  0.6821
  114OSM   H12B11859   1.721   4.209  11.071 -0.4269 -0.5104 -0.1779
  114OSM    C1111860   1.571   4.132  10.941 -0.4451  0.6602 -0.2632
  114OSM   H11A11861   1.632   4.119  10.850 -0.6507 -2.3707 -0.0328
  114OSM   H11B11862   1.470   4.158  10.902 -0.6060 -0.3220 -0.5178
  114OSM      P11863   1.478   3.897  10.986  0.1221 -0.1895 -0.0764
  114OSM    O1311864   1.536   3.769  11.026 -0.2498 -0.5858  0.0571
  114OSM    O1411865   1.348   3.916  11.050  0.2846 -0.1738  0.0462
  114OSM    O1111866   1.466   3.905  10.824  0.0606 -0.6689 -0.4485
  114OSM    O1211867   1.573   4.013  11.023  0.0730  0.0277 -0.6054
  114OSM    C1S11868   1.395   3.805  10.759  0.1116  0.1591 -0.3536
  114OSM    H1S11869   1.287   3.805  10.785 -0.0728  0.6290 -1.0934
  114OSM    H1T11870   1.429   3.705  10.794 -2.2041 -0.0493  1.3678
  114OSM     NF11871   1.320   3.743  10.521  0.1640 -0.2552 -0.0858
  114OSM    HNF11872   1.364   3.666  10.475  0.7617 -1.4193  2.3175
  114OSM    C2S11873   1.412   3.829  10.604  0.9877 -0.7918  0.5010
  114OSM    H2S11874   1.384   3.933  10.579  0.9482 -1.3856 -2.0873
  114OSM    C3S11875   1.558   3.807  10.567  0.0351  0.5757  0.3851
  114OSM    H3S11876   1.599   3.721  10.626 -1.2679  0.0027  0.4681
  114OSM     O311877   1.644   3.916  10.615 -0.0686  0.4392 -0.3099
  114OSM    HO311878   1.589   3.961  10.679 -0.0682 -0.2320  0.1556
  114OSM    C4S11879   1.579   3.785  10.413 -0.6417 -0.0334  0.2593
  114OSM    H4S11880   1.578   3.680  10.381  1.9232  0.5278 -1.7688
  114OSM    C5S11881   1.612   3.879  10.318 -1.2380  0.1031  0.3332
  114OSM    H5S11882   1.624   3.988  10.332  0.0956  0.3203 -2.1746
  114OSM    C6S11883   1.633   3.824  10.176 -0.4746  0.2267 -0.3686
  114OSM    H6S11884   1.595   3.719  10.170  0.6943 -0.1409 -1.6983
  114OSM    H6T11885   1.743   3.827  10.159 -0.4284  0.1652 -0.0726
  114OSM    C7S11886   1.582   3.896  10.048  0.3877 -0.4039 -0.7072
  114OSM    H7S11887   1.631   3.994  10.033  0.3196 -0.4169 -1.0271
  114OSM    H7T11888   1.471   3.907  10.055  0.2897 -2.2077  1.1071
  114OSM    C8S11889   1.610   3.810   9.928 -0.0186  0.0593 -0.1684
  114OSM    H8S11890   1.547   3.719   9.939 -1.7788  0.7822 -3.5369
  114OSM    H8T11891   1.714   3.772   9.929 -0.3819 -0.9378 -0.4602
  114OSM    C9S11892   1.600   3.889   9.799 -0.3999 -0.1023 -0.1522
  114OSM    H9S11893   1.631   3.994   9.820  0.6230 -0.2871 -0.7029
  114OSM    H9T11894   1.494   3.880   9.768 -0.5939  0.7014  0.2669
  114OSM   C10S11895   1.700   3.853   9.685 -0.0839 -0.0399 -0.0619
  114OSM   H10S11896   1.711   3.742   9.687 -0.5412 -0.1299 -1.6788
  114OSM   H10T11897   1.801   3.886   9.717  0.2213 -1.8777  0.9423
  114OSM   C11S11898   1.656   3.905   9.553 -0.0176 -0.3494 -0.0846
  114OSM   H11S11899   1.669   4.015   9.553 -1.8749 -0.1201 -1.1650
  114OSM   H11T11900   1.548   3.882   9.544 -0.6279  3.0110 -2.0261
  114OSM   C12S11901   1.727   3.848   9.428 -0.2511 -0.7546  0.1498
  114OSM   H12S11902   1.720   3.738   9.437 -1.4325 -0.6880  0.0888
  114OSM   H12T11903   1.835   3.872   9.419 -0.9365  1.8730 -1.6368
  114OSM   C13S11904   1.654   3.908   9.311 -0.4190  0.3363  0.5978
  114OSM   H13S11905   1.644   4.015   9.340 -2.4349  0.2241  0.4243
  114OSM   H13T11906   1.549   3.872   9.303  0.0695 -0.8799 -0.4193
  114OSM   C14S11907   1.732   3.893   9.183  0.0447  0.3743 -0.4304
  114OSM   H14S11908   1.778   3.792   9.170  1.4099  0.8876  0.3745
  114OSM   H14T11909   1.824   3.954   9.184  0.6496 -0.5387  0.4090
  114OSM   C15S11910   1.648   3.925   9.058  0.1248  0.5847 -0.0068
  114OSM   H15S11911   1.600   4.024   9.077 -2.7676 -0.4988 -1.4449
  114OSM   H15T11912   1.567   3.850   9.051 -1.5724  1.9841  3.5066
  114OSM   C16S11913   1.726   3.928   8.924 -0.0663 -0.5272  0.4115
  114OSM   H16S11914   1.763   3.829   8.889  0.7457 -0.1049  0.0540
  114OSM   H16T11915   1.819   3.988   8.913  0.1738 -0.8070  0.9363
  114OSM   C17S11916   1.651   3.998   8.807  0.2515 -0.2234  0.3230
  114OSM   H17S11917   1.623   4.101   8.837  0.9667  0.0193  0.1565
  114OSM   H17T11918   1.559   3.939   8.784 -1.0832  0.0508  4.6104
  114OSM   C18S11919   1.735   4.016   8.676 -0.2186 -0.4069 -0.0133
  114OSM   H18S11920   1.748   3.931   8.605 -0.2418 -1.9536  1.7826
  114OSM   H18T11921   1.829   4.071   8.696 -0.1442 -0.9192  1.0647
  114OSM   H18U11922   1.679   4.080   8.604  1.8879  0.5288 -0.8691
  114OSM    C1F11923   1.185   3.734  10.522 -0.4679  0.1854 -0.2102
  114OSM     OF11924   1.122   3.801  10.604 -0.1234 -0.1036 -0.1997
  114OSM    C2F11925   1.134   3.649  10.413 -0.4387 -0.2804  0.3047
  114OSM    H2F11926   1.064   3.572  10.451 -1.5418 -0.9892 -3.0230
  114OSM    H2G11927   1.212   3.607  10.346 -1.2287  2.1925 -2.2651
  114OSM    C3F11928   1.053   3.737  10.305 -0.3060  0.4957 -0.9137
  114OSM    H3F11929   0.962   3.782  10.350 -0.7741 -0.7152 -0.6330
  114OSM    H3G11930   1.014   3.684  10.215 -0.2704  0.5776 -0.9771
  114OSM    C4F11931   1.132   3.847  10.239 -0.0307 -0.5836 -0.3584
  114OSM    H4F11932   1.215   3.811  10.175 -0.6475 -1.2245 -0.8096
  114OSM    H4G11933   1.173   3.914  10.317 -0.8041 -0.2139 -0.2600
  114OSM    C5F11934   1.059   3.949  10.150  0.2427 -0.0674  0.0137
  114OSM    H5F11935   0.958   3.980  10.186 -0.5140  1.3163 -3.1718
  114OSM    H5G11936   1.031   3.894  10.058 -0.7492  1.2348 -0.4695
  114OSM    C6F11937   1.145   4.065  10.098  0.9183 -0.4236  0.0678
  114OSM    H6F11938   1.239   4.015  10.064  1.2307 -0.8046  1.4763
  114OSM    H6G11939   1.160   4.133  10.185  0.9050  0.5747 -0.7025
  114OSM    C7F11940   1.086   4.137   9.975 -0.0019  0.3858  0.1484
  114OSM    H7F11941   1.147   4.230   9.970 -0.6828  0.7441 -1.5057
  114OSM    H7G11942   0.982   4.167  10.000 -0.7697 -1.8041 -0.2904
  114OSM    C8F11943   1.086   4.075   9.840 -0.7854 -0.0327  0.3853
  114OSM    H8F11944   1.054   4.158   9.772 -1.8267 -0.9290 -0.2474
  114OSM    H8G11945   1.015   3.990   9.843 -0.7685 -0.1411 -1.3465
  114OSM    C9F11946   1.222   4.028   9.786  0.9926  1.1557 -0.7299
  114OSM    H9F11947   1.294   3.998   9.863 -0.8459 -2.8925 -0.5098
  114OSM   C10F11948   1.269   4.020   9.660 -0.3732  0.1258  0.0103
  114OSM   H10F11949   1.373   3.990   9.641 -0.1041  0.3279  1.1384
  114OSM   C11F11950   1.193   4.051   9.533 -0.6874 -0.3156  0.6841
  114OSM   H11F11951   1.181   4.159   9.511 -1.0686  0.0943  2.8134
  114OSM   H11G11952   1.097   3.995   9.532 -0.2093 -1.1357 -0.8181
  114OSM   C12F11953   1.266   3.987   9.417 -0.1823  0.2437 -0.2887
  114OSM   H12F11954   1.303   3.884   9.435 -0.2251  0.5090  1.3997
  114OSM   H12G11955   1.361   4.043   9.409  0.4159 -1.1351 -3.4191
  114OSM   C13F11956   1.185   3.980   9.285  0.3123 -0.0382 -0.4765
  114OSM   H13F11957   1.137   4.080   9.276  3.7036  1.8541  1.3646
  114OSM   H13G11958   1.107   3.901   9.293  0.0085  0.3978  0.8668
  114OSM   C14F11959   1.270   3.935   9.167  0.8957 -0.2320  0.2651
  114OSM   H14F11960   1.332   3.844   9.176  2.3387  0.6215 -0.7972
  114OSM   H14G11961   1.342   4.018   9.151 -0.6133  0.9702 -0.4993
  114OSM   C15F11962   1.191   3.928   9.036 -0.2137  0.5738 -0.1946
  114OSM   H15F11963   1.134   4.024   9.035 -1.5311 -0.1873  0.1608
  114OSM   H15G11964   1.121   3.843   9.021  0.0452  0.3444 -0.0961
  114OSM   C16F11965   1.275   3.933   8.904 -0.7383 -0.9031 -0.4906
  114OSM   H16F11966   1.337   3.841   8.898  2.7668  1.2494  1.1587
  114OSM   H16G11967   1.342   4.022   8.907 -1.5099 -0.3482  0.8256
  114OSM   C17F11968   1.193   3.943   8.774  0.2091 -0.0451 -0.2752
  114OSM   H17F11969   1.105   4.009   8.787 -1.1171 -1.4241 -1.9405
  114OSM   H17G11970   1.159   3.846   8.730  0.3747  0.1958 -0.9457
  114OSM   C18F11971   1.278   4.016   8.664  0.1749 -0.5128 -0.4723
  114OSM   H18F11972   1.223   4.023   8.568  1.2299  0.3322 -1.0299
  114OSM   H18G11973   1.367   3.952   8.641  1.8938  0.8921  2.0256
  114OSM   H18H11974   1.304   4.117   8.700  1.2750 -0.1903 -2.0840
  115OSM      N11975   5.830   2.624  10.958 -0.9193 -0.5021  0.0140
  115OSM    C1511976   5.953   2.543  10.920 -0.5908  0.0142 -0.0274
  115OSM   H15A11977   6.049   2.591  10.931 -0.0657 -0.6956 -1.3516
  115OSM   H15B11978   5.940   2.510  10.818  1.6001 -0.2454 -0.2458
  115OSM   H15C11979   5.959   2.461  10.990 -0.5684  0.3717  0.3882
  115OSM    C1411980   5.869   2.711  11.075 -0.3126  0.3387 -0.0448
  115OSM   H14A11981   5.797   2.787  11.102  3.5368  3.3477  2.2242
  115OSM   H14B11982   5.963   2.762  11.064 -0.3700  0.0169 -2.1553
  115OSM   H14C11983   5.891   2.645  11.158  0.4512  0.9059  0.2058
  115OSM    C1311984   5.788   2.707  10.847 -0.7875  0.3066  0.3237
  115OSM   H13A11985   5.861   2.780  10.815 -0.2810  0.0719  0.9237
  115OSM   H13B11986   5.701   2.759  10.886  0.3917  1.6584  1.2035
  115OSM   H13C11987   5.752   2.653  10.761 -0.3005 -1.0203  0.9418
  115OSM    C1211988   5.731   2.523  11.003  0.1404 -1.1504 -0.2489
  115OSM   H12A11989   5.770   2.477  11.092 -0.4029  2.1243  1.7661
  115OSM   H12B11990   5.712   2.451  10.924 -0.4042 -0.1783 -1.0329
  115OSM    C1111991   5.587   2.574  11.051 -0.8621  0.1893 -0.4754
  115OSM   H11A11992   5.604   2.643  11.137  2.1005 -0.8323 -0.1824
  115OSM   H11B11993   5.527   2.487  11.082 -0.2929 -0.0999 -0.1768
  115OSM      P11994   5.382   2.718  10.978 -0.1112 -0.2875 -0.3455
  115OSM    O1311995   5.309   2.665  11.095  0.1400  0.2632 -0.6144
  115OSM    O1411996   5.407   2.860  10.988 -0.2340 -0.0140  0.7042
  115OSM    O1111997   5.300   2.685  10.849 -0.3516 -0.3459 -0.0824
  115OSM    O1211998   5.519   2.643  10.941  0.6779 -0.0716 -0.4475
  115OSM    C1S11999   5.230   2.778  10.769 -0.0787  0.2590  0.9716
  115OSM    H1S12000   5.291   2.872  10.772  1.1561 -0.5189  0.7616
  115OSM    H1T12001   5.127   2.804  10.801 -1.4412 -1.3713 -2.0122
  115OSM     NF12002   5.156   2.830  10.537  0.2061  0.2329 -0.1045
  115OSM    HNF12003   5.062   2.822  10.506  0.6609  0.2883 -1.5265
  115OSM    C2S12004   5.207   2.722  10.622  0.3254  1.1022 -0.3032
  115OSM    H2S12005   5.310   2.698  10.585 -0.6978 -1.9624 -1.3167
  115OSM    C3S12006   5.115   2.594  10.612  0.5412 -0.6916  0.3642
  115OSM    H3S12007   5.014   2.637  10.632 -0.4626 -1.1712 -3.2859
  115OSM     O312008   5.150   2.499  10.711  0.0867  0.1240 -0.4170
  115OSM    HO312009   5.215   2.539  10.769 -0.0422  2.5672 -1.8844
  115OSM    C4S12010   5.128   2.549  10.470 -0.2610 -0.1406  0.3513
  115OSM    H4S12011   5.229   2.532  10.430 -0.3089 -1.0355  0.6218
  115OSM    C5S12012   5.023   2.541  10.388  0.4772 -0.0487 -0.1840
  115OSM    H5S12013   4.925   2.583  10.415 -0.2816 -1.5359 -0.6037
  115OSM    C6S12014   5.027   2.508  10.239  0.5703  0.1771 -0.6483
  115OSM    H6S12015   5.114   2.444  10.211  1.6693  1.2333  0.3302
  115OSM    H6T12016   5.028   2.600  10.176  0.6081 -0.9278 -2.3179
  115OSM    C7S12017   4.904   2.420  10.206  0.2325 -0.6204  0.0565
  115OSM    H7S12018   4.807   2.468  10.228  0.7066 -0.0470  0.9143
  115OSM    H7T12019   4.905   2.320  10.254 -1.3980 -2.0784 -2.7798
  115OSM    C8S12020   4.886   2.401  10.056 -0.1230  0.7535 -0.2539
  115OSM    H8S12021   4.972   2.339  10.022 -2.1936 -0.9924 -2.4739
  115OSM    H8T12022   4.885   2.502  10.011 -0.7053  1.5537  1.4985
  115OSM    C9S12023   4.756   2.324  10.017 -0.8301 -0.5068  0.2695
  115OSM    H9S12024   4.673   2.391  10.047 -1.1730 -1.1303  0.7291
  115OSM    H9T12025   4.753   2.231  10.078 -2.6751 -0.2585  0.5828
  115OSM   C10S12026   4.747   2.280   9.869 -0.0662 -0.5400  0.4539
  115OSM   H10S12027   4.662   2.209   9.868  0.6719 -1.4260 -0.2369
  115OSM   H10T12028   4.834   2.216   9.841  0.8956  1.0414 -0.2304
  115OSM   C11S12029   4.723   2.392   9.775 -0.7079 -0.1511  0.5543
  115OSM   H11S12030   4.814   2.456   9.772  0.2028 -1.3924  1.6122
  115OSM   H11T12031   4.643   2.455   9.820 -0.6999  1.6983 -1.8633
  115OSM   C12S12032   4.687   2.347   9.629  0.8388  0.6670 -0.7188
  115OSM   H12S12033   4.590   2.294   9.638  1.0207  0.5919  0.9741
  115OSM   H12T12034   4.769   2.275   9.608  0.0403  0.3612 -2.8960
  115OSM   C13S12035   4.677   2.461   9.529 -0.1409  0.4060  0.2533
  115OSM   H13S12036   4.777   2.499   9.499  0.4375 -1.4351 -0.2236
  115OSM   H13T12037   4.618   2.543   9.575 -0.5443 -0.7110  1.7455
  115OSM   C14S12038   4.609   2.413   9.398  0.2180  0.1790 -0.2342
  115OSM   H14S12039   4.505   2.377   9.417 -0.0480  0.7889 -0.5477
  115OSM   H14T12040   4.654   2.315   9.371  1.2480  0.8075 -0.8311
  115OSM   C15S12041   4.601   2.512   9.284  0.2549 -0.3754  0.5449
  115OSM   H15S12042   4.580   2.611   9.330 -1.2330  0.6166 -2.1064
  115OSM   H15T12043   4.523   2.488   9.209  2.5444 -0.2386 -1.9594
  115OSM   C16S12044   4.727   2.524   9.203 -0.0284 -0.1716  0.4999
  115OSM   H16S12045   4.762   2.424   9.169 -0.7949 -0.7792  1.4618
  115OSM   H16T12046   4.802   2.565   9.274 -0.4946  1.3697  0.1286
  115OSM   C17S12047   4.710   2.628   9.086  0.2371 -0.0819 -0.2007
  115OSM   H17S12048   4.687   2.727   9.131 -1.5021 -1.2669  1.6113
  115OSM   H17T12049   4.616   2.604   9.032  1.7002 -0.1332 -2.7686
  115OSM   C18S12050   4.831   2.648   8.994 -0.0962  0.1783  0.1139
  115OSM   H18S12051   4.830   2.742   8.935  1.5116 -0.3800 -0.8708
  115OSM   H18T12052   4.841   2.556   8.932 -0.5302  0.1129  0.1454
  115OSM   H18U12053   4.925   2.662   9.052  0.6144  1.4466 -1.3121
  115OSM    C1F12054   5.229   2.938  10.522  0.2485  0.0904 -1.0393
  115OSM     OF12055   5.350   2.939  10.548  0.8942 -0.3555 -0.1672
  115OSM    C2F12056   5.163   3.062  10.485 -0.1839 -0.5404  0.1796
  115OSM    H2F12057   5.197   3.143  10.553  1.0255  0.3199 -1.4172
  115OSM    H2G12058   5.052   3.062  10.494 -0.1514  0.1056  0.6187
  115OSM    C3F12059   5.189   3.094  10.340 -1.0778  0.3157 -0.5531
  115OSM    H3F12060   5.164   3.008  10.275 -2.2721 -1.6564  2.4137
  115OSM    H3G12061   5.297   3.117  10.328 -1.4727  1.4436 -2.1518
  115OSM    C4F12062   5.116   3.213  10.289 -0.8618 -0.5041 -0.5062
  115OSM    H4F12063   5.144   3.299  10.353  0.6624 -1.5901  0.3472
  115OSM    H4G12064   5.012   3.190  10.320 -0.7806  2.1621  2.0051
  115OSM    C5F12065   5.153   3.224  10.136 -0.0406  0.2547  0.6247
  115OSM    H5F12066   5.101   3.142  10.082  1.5220  0.4893 -1.2704
  115OSM    H5G12067   5.263   3.214  10.121 -0.3666 -0.5527 -1.3099
  115OSM    C6F12068   5.122   3.353  10.061  0.0917  0.0902 -0.4277
  115OSM    H6F12069   5.198   3.353   9.980  0.6075  0.2435  0.0555
  115OSM    H6G12070   5.144   3.444  10.120  0.2314 -1.0275  1.2927
  115OSM    C7F12071   4.978   3.361  10.011 -0.4687 -0.2734 -0.2832
  115OSM    H7F12072   4.909   3.364  10.098 -2.6574 -1.5100 -1.9344
  115OSM    H7G12073   4.970   3.262   9.962 -2.4666 -0.0739 -0.3853
  115OSM    C8F12074   4.959   3.474   9.905  0.1510 -0.1772  0.0845
  115OSM    H8F12075   4.866   3.452   9.849  0.3542  0.4078 -0.4836
  115OSM    H8G12076   5.041   3.477   9.831  0.3996  1.8329  0.4009
  115OSM    C9F12077   4.934   3.607   9.974 -0.1059  0.1089  1.1700
  115OSM    H9F12078   4.970   3.601  10.078  0.1004 -1.5606  1.0177
  115OSM   C10F12079   4.871   3.709   9.921 -0.5443 -0.6022 -0.9946
  115OSM   H10F12080   4.856   3.804   9.976 -0.6954 -1.2787  0.1487
  115OSM   C11F12081   4.805   3.735   9.790  0.4469  0.2338  0.3228
  115OSM   H11F12082   4.701   3.769   9.812  0.9561  1.7917  0.3641
  115OSM   H11G12083   4.800   3.644   9.725 -0.4715 -0.3683  1.2145
  115OSM   C12F12084   4.868   3.840   9.693  0.0705  0.0760  0.5921
  115OSM   H12F12085   4.967   3.798   9.663  1.0103  2.7714 -0.2398
  115OSM   H12G12086   4.888   3.937   9.743  4.1122 -0.5193  0.3422
  115OSM   C13F12087   4.774   3.861   9.571 -0.2751  0.3927 -0.2591
  115OSM   H13F12088   4.667   3.874   9.599 -0.4080 -0.3627 -0.3953
  115OSM   H13G12089   4.773   3.768   9.510  0.8757 -0.1762  0.5764
  115OSM   C14F12090   4.809   3.970   9.474 -0.0592 -0.3751  0.3512
  115OSM   H14F12091   4.764   4.066   9.509 -1.0367  0.4020 -2.8457
  115OSM   H14G12092   4.754   3.960   9.378 -1.6112  0.0398  1.1743
  115OSM   C15F12093   4.963   3.981   9.464  0.0631 -0.1839 -0.3366
  115OSM   H15F12094   5.010   3.881   9.450  0.1629  0.0524 -1.7669
  115OSM   H15G12095   5.000   4.041   9.550  1.4638 -0.7251 -0.5448
  115OSM   C16F12096   5.016   4.057   9.341 -0.6476 -0.5232  0.4997
  115OSM   H16F12097   5.126   4.066   9.351 -0.4510 -1.0730 -0.9946
  115OSM   H16G12098   4.966   4.156   9.336  1.3769  0.8506  5.1228
  115OSM   C17F12099   4.990   3.982   9.215 -0.3818  0.6001  0.0248
  115OSM   H17F12100   4.992   4.056   9.132 -0.3218  1.0114  0.3961
  115OSM   H17G12101   4.889   3.935   9.206 -0.1109  0.2950 -1.5154
  115OSM   C18F12102   5.102   3.883   9.178 -0.3437 -0.3136 -0.4879
  115OSM   H18F12103   5.203   3.928   9.179 -0.4431 -0.0283 -1.8658
  115OSM   H18G12104   5.085   3.840   9.076 -2.1165  0.8776 -0.7248
  115OSM   H18H12105   5.105   3.806   9.258  0.7162  1.2959  1.0540
  116OSM      N12106   2.058   6.173  11.396  0.1732  0.5160  0.3853
  116OSM    C1512107   2.117   6.043  11.378  0.3750  0.0695  0.4873
  116OSM   H15A12108   2.049   5.960  11.374  1.0697 -0.4735 -0.4334
  116OSM   H15B12109   2.198   6.032  11.449  1.4118  1.7829 -0.3768
  116OSM   H15C12110   2.156   6.050  11.277  1.7514  1.0509  1.0640
  116OSM    C1412111   1.969   6.165  11.520 -0.6623 -0.2935  0.7802
  116OSM   H14A12112   1.929   6.264  11.538 -1.5348 -0.6659  0.8718
  116OSM   H14B12113   2.030   6.132  11.603  3.4519  0.4058 -1.8328
  116OSM   H14C12114   1.881   6.103  11.521  0.0079 -1.4346 -2.7202
  116OSM    C1312115   2.170   6.274  11.436  1.4701 -0.0241  0.4433
  116OSM   H13A12116   2.122   6.363  11.471 -1.4668 -1.3827  0.0263
  116OSM   H13B12117   2.233   6.286  11.349 -0.1149 -1.0702 -0.8835
  116OSM   H13C12118   2.230   6.225  11.511 -0.6505 -0.8681  1.6100
  116OSM    C1212119   1.980   6.214  11.274  0.2416  0.3393 -0.5139
  116OSM   H12A12120   1.934   6.311  11.287  0.3269  0.3710 -0.4502
  116OSM   H12B12121   1.896   6.148  11.261 -1.8710  2.1553  3.1931
  116OSM    C1112122   2.044   6.213  11.137  0.6703  0.1462 -0.7846
  116OSM   H11A12123   1.965   6.228  11.059  0.1448  1.3475 -0.0357
  116OSM   H11B12124   2.080   6.118  11.091 -1.3782 -0.4839 -1.1280
  116OSM      P12125   2.145   6.455  11.096 -0.0951  0.1431 -0.2126
  116OSM    O1312126   2.003   6.502  11.105  0.1470 -0.1508  0.0679
  116OSM    O1412127   2.244   6.527  11.176 -0.5925 -0.6766  0.6709
  116OSM    O1112128   2.195   6.454  10.954 -0.0364 -0.0636  0.1738
  116OSM    O1212129   2.154   6.307  11.131  0.3396 -0.3522 -0.2147
  116OSM    C1S12130   2.123   6.408  10.838  0.7154  0.6191 -0.6045
  116OSM    H1S12131   2.019   6.380  10.866  0.8965  0.2028 -0.3255
  116OSM    H1T12132   2.177   6.320  10.796 -1.1562 -0.6418 -0.4499
  116OSM     NF12133   2.060   6.435  10.603  0.6367  0.2154 -0.2543
  116OSM    HNF12134   2.127   6.396  10.541  2.5605 -1.8705  3.0126
  116OSM    C2S12135   2.118   6.508  10.717  1.0005 -0.5720  0.1861
  116OSM    H2S12136   2.041   6.588  10.728  0.0635 -1.3355 -0.7068
  116OSM    C3S12137   2.254   6.564  10.696 -0.2753 -0.7848 -0.1918
  116OSM    H3S12138   2.331   6.486  10.681  0.8786 -0.0367  1.6848
  116OSM     O312139   2.310   6.638  10.807 -0.4047  0.2484 -0.6702
  116OSM    HO312140   2.262   6.599  10.881  2.7790  0.4360  1.5986
  116OSM    C4S12141   2.254   6.667  10.582 -0.3834  0.3814  0.0543
  116OSM    H4S12142   2.206   6.760  10.615  1.5983  1.4352  0.0260
  116OSM    C5S12143   2.328   6.662  10.473 -0.8572 -0.3144  0.0400
  116OSM    H5S12144   2.390   6.574  10.453 -0.0161 -0.0476  1.3448
  116OSM    C6S12145   2.334   6.782  10.379 -0.6331 -0.8405 -0.0451
  116OSM    H6S12146   2.428   6.772  10.321 -0.6753  1.8360 -0.6787
  116OSM    H6T12147   2.340   6.876  10.438 -3.4353 -0.5907 -0.1075
  116OSM    C7S12148   2.219   6.789  10.279  0.7274  0.2972 -0.0258
  116OSM    H7S12149   2.127   6.819  10.334  1.4077 -0.7948  1.7281
  116OSM    H7T12150   2.201   6.686  10.242  1.2253  0.8733 -1.9348
  116OSM    C8S12151   2.238   6.894  10.168  0.4004  0.1022  0.3685
  116OSM    H8S12152   2.347   6.877  10.151 -0.1181 -0.6887 -2.3816
  116OSM    H8T12153   2.233   7.001  10.198 -1.6104  0.4292 -1.0406
  116OSM    C9S12154   2.165   6.860  10.044 -0.3377 -0.3950  0.4771
  116OSM    H9S12155   2.054   6.862  10.055 -0.5324  2.3102 -1.3901
  116OSM    H9T12156   2.196   6.760  10.006 -0.1190 -0.4338  0.7555
  116OSM   C10S12157   2.206   6.955   9.925  0.0513  0.1376  0.0676
  116OSM   H10S12158   2.315   6.950   9.902 -0.2135  0.5584 -1.3477
  116OSM   H10T12159   2.183   7.060   9.950 -0.2328 -0.0005  0.3905
  116OSM   C11S12160   2.130   6.916   9.795 -0.5065  0.5793  0.3220
  116OSM   H11S12161   2.024   6.899   9.824  0.1504 -1.4722  1.6437
  116OSM   H11T12162   2.172   6.824   9.750  0.1554  2.1255 -2.3636
  116OSM   C12S12163   2.140   7.029   9.685 -0.2610  0.2790 -0.5331
  116OSM   H12S12164   2.249   7.044   9.677 -0.3592  0.3974 -1.8840
  116OSM   H12T12165   2.092   7.121   9.725  1.9277  2.0912 -1.9399
  116OSM   C13S12166   2.081   6.987   9.548  0.4908 -0.8144  0.3085
  116OSM   H13S12167   1.971   6.970   9.554  0.2415 -0.1484 -1.8660
  116OSM   H13T12168   2.125   6.886   9.534 -0.1783 -1.1055  0.2641
  116OSM   C14S12169   2.120   7.078   9.429 -0.2124  0.5023 -0.1481
  116OSM   H14S12170   2.199   7.151   9.457  1.2723 -0.6330 -1.3015
  116OSM   H14T12171   2.033   7.138   9.394 -0.2122  0.7482  0.2697
  116OSM   C15S12172   2.181   7.004   9.310 -0.1422  0.3674 -0.5397
  116OSM   H15S12173   2.108   6.926   9.278 -0.1268 -0.6847  1.8588
  116OSM   H15T12174   2.281   6.958   9.321 -1.2236 -1.4152  2.4622
  116OSM   C16S12175   2.190   7.102   9.185 -0.2485 -0.4902 -0.4180
  116OSM   H16S12176   2.264   7.180   9.215 -0.5268 -0.3845  0.0049
  116OSM   H16T12177   2.090   7.150   9.175 -0.5503 -0.3113  2.8573
  116OSM   C17S12178   2.246   7.038   9.063 -0.0219  0.3486  0.0826
  116OSM   H17S12179   2.186   6.945   9.059  0.5212  0.0107 -0.1252
  116OSM   H17T12180   2.352   7.012   9.081  0.1919  0.6981 -0.6527
  116OSM   C18S12181   2.221   7.116   8.930  0.7037 -0.2966 -0.1972
  116OSM   H18S12182   2.296   7.090   8.853 -0.2745 -1.1332 -0.8858
  116OSM   H18T12183   2.221   7.226   8.949  2.0710 -0.3977  0.4141
  116OSM   H18U12184   2.118   7.096   8.892  0.8298  0.0538 -0.7237
  116OSM    C1F12185   1.932   6.396  10.609  1.0855  0.0240  0.0550
  116OSM     OF12186   1.843   6.457  10.673 -0.0498 -0.5047  0.1016
  116OSM    C2F12187   1.881   6.283  10.527 -0.1935  0.8020  0.2764
  116OSM    H2F12188   1.838   6.206  10.594 -1.0262 -0.0210 -1.1636
  116OSM    H2G12189   1.968   6.228  10.486  0.5116  0.6537  1.9568
  116OSM    C3F12190   1.771   6.319  10.429  0.1067  0.5353  0.3453
  116OSM    H3F12191   1.799   6.404  10.363 -1.4207  1.9185  1.4445
  116OSM    H3G12192   1.682   6.347  10.489  0.2986 -1.1706  1.4909
  116OSM    C4F12193   1.739   6.200  10.338  0.0565 -0.0632  0.2618
  116OSM    H4F12194   1.633   6.201  10.303  1.2297 -0.5094 -3.5209
  116OSM    H4G12195   1.745   6.098  10.382  1.7219 -0.0010  0.1994
  116OSM    C5F12196   1.834   6.209  10.220 -0.5148 -0.1537 -0.0569
  116OSM    H5F12197   1.936   6.192  10.261  0.2345 -0.0959 -1.8457
  116OSM    H5G12198   1.828   6.305  10.164 -0.7584  0.3744  0.8656
  116OSM    C6F12199   1.809   6.098  10.118 -0.7213 -0.2405 -0.1948
  116OSM    H6F12200   1.715   6.136  10.073 -1.3809  0.1394  1.4651
  116OSM    H6G12201   1.799   6.000  10.169 -2.0210 -0.5269 -0.9842
  116OSM    C7F12202   1.925   6.085  10.020  0.0650 -1.1579 -0.0434
  116OSM    H7F12203   2.018   6.070  10.078  0.1373 -0.9250 -0.1005
  116OSM    H7G12204   1.948   6.178   9.963  0.2777  0.1768  2.1460
  116OSM    C8F12205   1.924   5.950   9.935 -0.1326  0.0406  0.2196
  116OSM    H8F12206   1.915   5.869  10.011  0.7921  0.6161  0.9558
  116OSM    H8G12207   2.018   5.931   9.879  0.6046  1.9810  0.7414
  116OSM    C9F12208   1.806   5.948   9.845 -0.4198  0.1703 -0.0217
  116OSM    H9F12209   1.710   5.945   9.899 -0.7682 -2.4467 -0.7336
  116OSM   C10F12210   1.791   5.939   9.711 -0.1999 -0.3309  0.6261
  116OSM   H10F12211   1.691   5.936   9.666  0.6530 -1.1043 -1.2967
  116OSM   C11F12212   1.908   5.931   9.614 -0.6014  0.2469 -0.1599
  116OSM   H11F12213   1.919   5.827   9.577 -1.5241  0.4438 -0.9954
  116OSM   H11G12214   2.006   5.961   9.657 -0.0336 -2.9774  0.8992
  116OSM   C12F12215   1.882   6.017   9.494 -0.3307 -0.3569  0.0668
  116OSM   H12F12216   1.974   6.038   9.436 -0.1963 -2.8930 -0.7178
  116OSM   H12G12217   1.832   6.111   9.528  2.6038  1.5459 -0.7209
  116OSM   C13F12218   1.793   5.946   9.392 -0.2008  0.3408 -0.1266
  116OSM   H13F12219   1.701   5.908   9.442 -0.3266  2.4939  1.3591
  116OSM   H13G12220   1.848   5.856   9.357 -0.4735  0.1401 -0.0410
  116OSM   C14F12221   1.766   6.042   9.277 -0.2449 -0.0947  0.3939
  116OSM   H14F12222   1.863   6.078   9.238 -1.1679  1.2334 -0.7265
  116OSM   H14G12223   1.713   6.133   9.312 -1.8172 -0.5884 -0.6585
  116OSM   C15F12224   1.678   5.996   9.159 -0.1040  0.7304  0.1267
  116OSM   H15F12225   1.573   5.982   9.192  0.0531  0.4302  0.5044
  116OSM   H15G12226   1.728   5.902   9.127  1.4866  1.0667  1.5629
  116OSM   C16F12227   1.667   6.095   9.045 -0.3060  1.0186 -0.1667
  116OSM   H16F12228   1.767   6.095   8.995 -0.9789  1.7885 -1.5352
  116OSM   H16G12229   1.646   6.198   9.079  1.9610  0.3160  3.6412
  116OSM   C17F12230   1.567   6.040   8.944  0.0087  0.4871  0.1291
  116OSM   H17F12231   1.468   6.027   8.994  1.2083 -0.1868  2.3847
  116OSM   H17G12232   1.597   5.938   8.911  0.1724  0.7780 -0.6407
  116OSM   C18F12233   1.557   6.128   8.822  0.4069  0.1426  0.0969
  116OSM   H18F12234   1.469   6.103   8.760  0.9405  0.0402 -0.6266
  116OSM   H18G12235   1.644   6.117   8.755  1.1450 -2.5113  1.4215
  116OSM   H18H12236   1.548   6.236   8.845  1.9465  0.2978  0.0498
  117OSM      N12237   5.674   0.703  11.153 -0.0420 -0.1734 -0.0950
  117OSM    C1512238   5.793   0.673  11.235  0.2372  0.4591 -0.9853
  117OSM   H15A12239   5.801   0.566  11.236 -3.9632  0.0623 -1.5128
  117OSM   H15B12240   5.786   0.714  11.334  0.6291 -1.8723  0.0231
  117OSM   H15C12241   5.883   0.704  11.184  1.0967 -0.5557 -0.0977
  117OSM    C1412242   5.550   0.661  11.239  0.5441  0.5240  0.0446
  117OSM   H14A12243   5.546   0.723  11.327  0.6089  0.0010  0.4151
  117OSM   H14B12244   5.559   0.558  11.269 -2.7247  0.2839  0.3990
  117OSM   H14C12245   5.463   0.677  11.176  0.1856  1.5186  0.7713
  117OSM    C1312246   5.654   0.847  11.128 -0.3199 -0.3351  0.4542
  117OSM   H13A12247   5.632   0.912  11.211 -0.8824  2.4729 -1.8203
  117OSM   H13B12248   5.571   0.854  11.059  0.6150 -0.1519 -0.6744
  117OSM   H13C12249   5.730   0.898  11.071 -1.7763  1.0192 -0.2938
  117OSM    C1212250   5.686   0.624  11.023 -0.1774 -0.4286 -0.0171
  117OSM   H12A12251   5.609   0.654  10.954 -0.2894 -0.6977 -0.0091
  117OSM   H12B12252   5.665   0.521  11.049  1.1884 -0.4250  1.2080
  117OSM    C1112253   5.824   0.631  10.954 -0.1628 -0.1352  0.0093
  117OSM   H11A12254   5.880   0.725  10.973  1.8760 -0.6843 -3.0141
  117OSM   H11B12255   5.820   0.634  10.843  1.0477  0.7623 -0.0248
  117OSM      P12256   5.878   0.373  10.960 -0.5995  0.2342  0.1788
  117OSM    O1312257   5.983   0.290  11.026 -0.1638 -0.7351 -0.0884
  117OSM    O1412258   5.735   0.338  10.988 -0.6504 -0.1956  0.2768
  117OSM    O1112259   5.902   0.378  10.808  0.1338 -0.4868  0.6059
  117OSM    O1212260   5.908   0.525  10.995 -0.7732  0.4841 -0.4413
  117OSM    C1S12261   6.012   0.446  10.740 -1.3479 -0.3524 -0.2905
  117OSM    H1S12262   6.103   0.431  10.802 -1.0277 -1.8524 -1.1040
  117OSM    H1T12263   5.988   0.554  10.741 -0.2850 -0.0915  2.7535
  117OSM     NF12264   6.152   0.491  10.538 -0.1091 -0.5384 -0.5083
  117OSM    HNF12265   6.130   0.565  10.475 -0.3978  1.0806  1.4166
  117OSM    C2S12266   6.035   0.414  10.590  0.5628  0.8567 -0.5233
  117OSM    H2S12267   6.060   0.306  10.585 -0.6346  0.3126  3.4586
  117OSM    C3S12268   5.904   0.445  10.512 -0.4978 -0.5283 -0.7133
  117OSM    H3S12269   5.869   0.550  10.516  0.3820 -0.1894 -1.7236
  117OSM     O312270   5.793   0.383  10.570 -0.1235 -0.2954  0.0733
  117OSM    HO312271   5.827   0.362  10.658 -1.9504 -0.8810  0.6863
  117OSM    C4S12272   5.912   0.411  10.367  0.4451  0.0170 -0.1377
  117OSM    H4S12273   5.950   0.493  10.305 -1.1489 -0.4998 -1.8622
  117OSM    C5S12274   5.902   0.295  10.302 -0.1392  0.3047  0.5440
  117OSM    H5S12275   5.879   0.208  10.365  2.0440 -0.9105 -0.2780
  117OSM    C6S12276   5.908   0.272  10.149  0.3409  0.1136  0.0735
  117OSM    H6S12277   5.846   0.187  10.115 -1.6895  1.8427 -0.6570
  117OSM    H6T12278   6.010   0.232  10.128  0.1583 -0.1466 -0.3240
  117OSM    C7S12279   5.880   0.401  10.059  0.2428  1.2215 -0.8581
  117OSM    H7S12280   5.951   0.484  10.081  1.8678 -0.8369  2.0406
  117OSM    H7T12281   5.773   0.427  10.075 -0.3032 -0.4094 -1.6977
  117OSM    C8S12282   5.874   0.369   9.911 -0.0544 -0.2036  0.1569
  117OSM    H8S12283   5.819   0.274   9.894 -0.1561 -0.2045  0.4826
  117OSM    H8T12284   5.978   0.351   9.877 -0.0923  0.4626 -0.3405
  117OSM    C9S12285   5.800   0.472   9.832 -0.2042  0.0908  0.0602
  117OSM    H9S12286   5.839   0.573   9.856  1.4377 -0.5188  0.0116
  117OSM    H9T12287   5.693   0.484   9.859 -0.2721  0.7732 -0.5043
  117OSM   C10S12288   5.828   0.444   9.688 -0.5159 -0.2517 -0.3873
  117OSM   H10S12289   5.796   0.343   9.656 -1.0805 -0.2330  0.1098
  117OSM   H10T12290   5.937   0.451   9.665  0.2246  0.3502  2.9959
  117OSM   C11S12291   5.746   0.528   9.589  0.4199  0.2372  0.6098
  117OSM   H11S12292   5.743   0.636   9.617  0.1851  0.3652  0.1003
  117OSM   H11T12293   5.639   0.498   9.598  0.3110  1.1554  2.4775
  117OSM   C12S12294   5.800   0.518   9.441 -0.3345 -0.3020  0.2338
  117OSM   H12S12295   5.809   0.414   9.403 -2.3691 -0.4337  0.0683
  117OSM   H12T12296   5.901   0.565   9.440 -0.5314  0.1302 -2.6380
  117OSM   C13S12297   5.701   0.572   9.337 -0.9485 -1.2545 -0.8971
  117OSM   H13S12298   5.674   0.663   9.396  1.0515 -1.5647  0.5360
  117OSM   H13T12299   5.614   0.505   9.321 -2.6928  0.4005  1.1934
  117OSM   C14S12300   5.758   0.602   9.202 -0.3427 -0.1674  0.2893
  117OSM   H14S12301   5.819   0.517   9.164  0.8604  1.3427 -1.2450
  117OSM   H14T12302   5.827   0.687   9.216  2.1637 -2.1006  0.1372
  117OSM   C15S12303   5.651   0.632   9.099  0.7163  0.9114  0.2429
  117OSM   H15S12304   5.572   0.700   9.136 -0.7871 -1.7473  2.1371
  117OSM   H15T12305   5.607   0.535   9.064 -0.8069  2.2483 -1.6478
  117OSM   C16S12306   5.712   0.699   8.972  0.3681 -0.1419  0.2189
  117OSM   H16S12307   5.807   0.649   8.943  1.9469  3.4737 -1.1165
  117OSM   H16T12308   5.734   0.803   9.003  0.8128 -0.3299  0.5531
  117OSM   C17S12309   5.612   0.690   8.862  0.2939 -0.1758  1.0342
  117OSM   H17S12310   5.519   0.719   8.915  0.7996  2.2121  0.6999
  117OSM   H17T12311   5.588   0.584   8.840  0.9903 -0.2434  0.5891
  117OSM   C18S12312   5.631   0.785   8.743  0.1639 -0.5634  0.5590
  117OSM   H18S12313   5.624   0.892   8.770  0.0701  0.0386 -1.7836
  117OSM   H18T12314   5.562   0.767   8.658 -2.1811  0.2755  2.2499
  117OSM   H18U12315   5.734   0.787   8.700  0.3000  3.8324  0.8533
  117OSM    C1F12316   6.275   0.467  10.570  0.2262  0.5256 -0.5663
  117OSM     OF12317   6.307   0.362  10.626 -0.0137 -0.6372 -0.4833
  117OSM    C2F12318   6.379   0.565  10.532 -0.3458 -0.3402  0.0648
  117OSM    H2F12319   6.408   0.634  10.614  1.8817 -0.7360 -0.3430
  117OSM    H2G12320   6.330   0.632  10.458 -0.2242 -0.0709  0.2271
  117OSM    C3F12321   6.498   0.510  10.463  0.2282 -0.1750 -0.1440
  117OSM    H3F12322   6.554   0.442  10.530  0.5117 -1.2247 -1.4124
  117OSM    H3G12323   6.579   0.583  10.445  0.5132 -1.0236 -2.6046
  117OSM    C4F12324   6.470   0.439  10.329 -0.2330  0.1850  0.5306
  117OSM    H4F12325   6.417   0.344  10.347  0.8402 -0.5585 -0.1169
  117OSM    H4G12326   6.570   0.412  10.288 -0.6326  0.9088 -0.9690
  117OSM    C5F12327   6.398   0.527  10.229 -0.0650  1.2634  0.3820
  117OSM    H5F12328   6.439   0.628  10.206  0.6727  0.8261 -0.2341
  117OSM    H5G12329   6.297   0.552  10.269 -1.6533 -1.9222 -1.4467
  117OSM    C6F12330   6.377   0.438  10.101  0.3976  0.3730  1.0031
  117OSM    H6F12331   6.476   0.392  10.081  0.2267  0.2016  0.5564
  117OSM    H6G12332   6.349   0.505  10.017 -0.6467 -1.6095 -0.2759
  117OSM    C7F12333   6.286   0.322  10.113 -0.5428  0.4573  0.2390
  117OSM    H7F12334   6.197   0.360  10.167  0.2407  1.0342  1.1463
  117OSM    H7G12335   6.334   0.250  10.183  0.5581 -0.6933 -1.6689
  117OSM    C8F12336   6.248   0.255   9.976 -0.4453 -0.3235  0.3176
  117OSM    H8F12337   6.202   0.341   9.922 -1.4227 -1.7377 -1.1264
  117OSM    H8G12338   6.178   0.171   9.994 -0.6625  0.2377  2.1714
  117OSM    C9F12339   6.365   0.206   9.903  0.3339 -0.4049 -0.6096
  117OSM    H9F12340   6.428   0.135   9.959  0.4045  0.4237  0.3546
  117OSM   C10F12341   6.384   0.226   9.775  0.8486 -0.2793 -0.3571
  117OSM   H10F12342   6.480   0.185   9.741  2.0719  1.3709  1.0226
  117OSM   C11F12343   6.295   0.305   9.677 -0.7402  0.6474 -0.4421
  117OSM   H11F12344   6.310   0.413   9.697  0.4632  0.2287  1.0006
  117OSM   H11G12345   6.193   0.281   9.714 -0.0989  1.5648  2.0164
  117OSM   C12F12346   6.319   0.256   9.528 -0.6480  0.0702 -0.3101
  117OSM   H12F12347   6.316   0.146   9.513 -0.1903  0.2117 -1.4360
  117OSM   H12G12348   6.423   0.290   9.510 -0.1659 -1.4892 -0.5029
  117OSM   C13F12349   6.208   0.313   9.431 -1.0408 -0.7967 -0.3517
  117OSM   H13F12350   6.211   0.424   9.427  3.1206 -0.7859  0.4266
  117OSM   H13G12351   6.111   0.302   9.484 -1.5929  2.1763 -0.6395
  117OSM   C14F12352   6.210   0.249   9.297 -0.8124  0.6604  0.6636
  117OSM   H14F12353   6.104   0.245   9.266 -0.6346  0.6044  0.0590
  117OSM   H14G12354   6.245   0.143   9.296  2.5063  1.6632 -2.8020
  117OSM   C15F12355   6.301   0.320   9.191 -0.3251  0.0651  0.0576
  117OSM   H15F12356   6.296   0.261   9.096  0.4088 -2.2867  1.4286
  117OSM   H15G12357   6.406   0.304   9.223 -0.2709 -1.4643 -0.8120
  117OSM   C16F12358   6.260   0.467   9.165 -0.5135 -0.6186  0.0424
  117OSM   H16F12359   6.304   0.543   9.232 -0.4138  0.4199 -1.1727
  117OSM   H16G12360   6.150   0.478   9.174 -0.3654  3.8267 -2.0626
  117OSM   C17F12361   6.277   0.510   9.015  0.4790 -0.1956  0.6809
  117OSM   H17F12362   6.220   0.445   8.946  1.2378  2.1073 -2.1978
  117OSM   H17G12363   6.384   0.493   8.988  0.3617  0.5430 -0.2932
  117OSM   C18F12364   6.264   0.659   8.989  0.4148 -0.1305 -0.5099
  117OSM   H18F12365   6.202   0.706   9.068 -0.5999 -1.5166 -0.4587
  117OSM   H18G12366   6.220   0.681   8.890  0.1014  0.0312 -0.3387
  117OSM   H18H12367   6.358   0.716   9.007  0.2182 -0.2406  0.9369
  118OSM      N12368   6.101   1.727  11.290  0.2507  0.5515  0.4385
  118OSM    C1512369   6.081   1.848  11.377  0.1964  0.3494  0.3084
  118OSM   H15A12370   5.984   1.849  11.425  0.6264  1.6453  1.1602
  118OSM   H15B12371   6.085   1.938  11.317 -1.8117 -0.7326 -1.5475
  118OSM   H15C12372   6.167   1.852  11.441 -1.3156 -0.1542  2.4286
  118OSM    C1412373   6.095   1.613  11.382 -0.4852  0.4768  0.3073
  118OSM   H14A12374   5.993   1.597  11.414 -0.6581 -1.4507 -1.1291
  118OSM   H14B12375   6.175   1.613  11.455 -0.7254  0.7102  0.5702
  118OSM   H14C12376   6.111   1.523  11.325  0.5062  0.2238  0.9764
  118OSM    C1312377   5.987   1.724  11.197 -0.9571 -0.6843  0.0548
  118OSM   H13A12378   5.986   1.637  11.133 -2.5232 -1.1068  0.6156
  118OSM   H13B12379   5.976   1.823  11.154  0.2171 -0.0465  1.2059
  118OSM   H13C12380   5.897   1.705  11.255  0.4109 -0.8061  2.1799
  118OSM    C1212381   6.234   1.731  11.214  0.1520  0.0548  0.7223
  118OSM   H12A12382   6.249   1.639  11.161  0.3046  0.2113  0.4910
  118OSM   H12B12383   6.310   1.736  11.290 -0.9191 -1.1783  1.9093
  118OSM    C1112384   6.250   1.845  11.115 -0.1243  0.4219 -0.3538
  118OSM   H11A12385   6.165   1.837  11.043 -2.8487 -1.9375  2.9164
  118OSM   H11B12386   6.343   1.824  11.059 -0.7443  1.4001 -1.7551
  118OSM      P12387   6.242   2.096  11.089  0.1105 -0.1029  0.3556
  118OSM    O1312388   6.109   2.099  11.023 -0.3726  0.2244  0.0687
  118OSM    O1412389   6.283   2.217  11.167 -0.3789  0.5406  0.1009
  118OSM    O1112390   6.362   2.059  10.989  0.2527  0.6642 -0.4981
  118OSM    O1212391   6.251   1.973  11.189 -0.6701  0.5743  0.0609
  118OSM    C1S12392   6.396   2.147  10.882 -0.9334  0.1726  0.3998
  118OSM    H1S12393   6.496   2.192  10.898 -2.1623  3.0896  0.0333
  118OSM    H1T12394   6.324   2.231  10.876 -0.1715  0.7354 -1.0472
  118OSM     NF12395   6.477   2.177  10.645 -0.6940 -0.0012  0.1684
  118OSM    HNF12396   6.405   2.226  10.598  0.1679 -0.3932 -1.6120
  118OSM    C2S12397   6.424   2.085  10.743 -0.1396  0.1349  0.1705
  118OSM    H2S12398   6.507   2.012  10.756  0.2600  0.3352 -1.1385
  118OSM    C3S12399   6.301   2.009  10.692 -0.9250 -0.5888  0.1360
  118OSM    H3S12400   6.212   2.076  10.690 -2.1590 -2.2213 -1.3441
  118OSM     O312401   6.266   1.908  10.779  0.1263  0.4261  0.3440
  118OSM    HO312402   6.303   1.937  10.863  1.5515 -0.0813 -0.1019
  118OSM    C4S12403   6.319   1.959  10.548  0.4669  0.2166 -0.3070
  118OSM    H4S12404   6.319   2.042  10.476  0.5644  0.0352 -0.5171
  118OSM    C5S12405   6.344   1.828  10.510 -0.1885 -0.2742  1.0328
  118OSM    H5S12406   6.344   1.747  10.585 -1.1557 -2.1160 -0.9138
  118OSM    C6S12407   6.365   1.783  10.365 -0.9394 -0.1213 -0.6659
  118OSM    H6S12408   6.261   1.780  10.325  0.0999 -1.2845 -3.4694
  118OSM    H6T12409   6.403   1.679  10.360  0.9333  0.4567  0.9339
  118OSM    C7S12410   6.433   1.879  10.268  0.4473  0.6214  0.1237
  118OSM    H7S12411   6.541   1.893  10.290  0.7953  0.4527 -1.3794
  118OSM    H7T12412   6.394   1.983  10.270 -0.2770  0.3795 -0.7680
  118OSM    C8S12413   6.429   1.835  10.119 -0.3608  0.0691 -0.3628
  118OSM    H8S12414   6.459   1.728  10.121 -0.3133  0.0817 -0.4055
  118OSM    H8T12415   6.517   1.880  10.069  0.8972 -1.2720  0.5775
  118OSM    C9S12416   6.302   1.856  10.042 -0.0906 -0.6744 -0.7509
  118OSM    H9S12417   6.266   1.959  10.062  1.2680 -0.3349  0.0176
  118OSM    H9T12418   6.225   1.786  10.079  1.1292 -0.2378  2.7274
  118OSM   C10S12419   6.314   1.837   9.888 -0.3103  0.4988  0.5064
  118OSM   H10S12420   6.358   1.738   9.863 -2.6361 -0.4300  0.0135
  118OSM   H10T12421   6.384   1.911   9.843 -0.6749  0.4964 -0.0646
  118OSM   C11S12422   6.182   1.846   9.819  0.8548 -0.0158 -0.4463
  118OSM   H11S12423   6.156   1.954   9.819 -1.5688 -0.5780 -0.8945
  118OSM   H11T12424   6.104   1.793   9.877 -0.3942 -0.3983 -2.4258
  118OSM   C12S12425   6.174   1.797   9.671 -0.5035  0.3347  0.0178
  118OSM   H12S12426   6.208   1.692   9.666 -2.2589 -0.1725 -5.0373
  118OSM   H12T12427   6.251   1.837   9.602  0.8110 -2.0164  0.0733
  118OSM   C13S12428   6.027   1.807   9.609 -0.4980  0.3267  0.2995
  118OSM   H13S12429   5.991   1.912   9.609  2.5059  1.4128 -2.0617
  118OSM   H13T12430   5.960   1.742   9.670  0.5759 -3.6909 -2.5436
  118OSM   C14S12431   6.033   1.762   9.469 -0.3463 -1.0593  0.3055
  118OSM   H14S12432   6.087   1.669   9.441 -0.0674 -0.7823 -0.0943
  118OSM   H14T12433   6.094   1.836   9.413 -1.9266 -0.3691 -0.5506
  118OSM   C15S12434   5.891   1.760   9.400 -0.0547 -0.3926  0.4607
  118OSM   H15S12435   5.821   1.835   9.444  0.3561 -0.1322  0.6669
  118OSM   H15T12436   5.848   1.658   9.412 -2.0781  0.5832  1.9516
  118OSM   C16S12437   5.884   1.781   9.250 -0.4739 -0.0300 -0.0590
  118OSM   H16S12438   5.926   1.881   9.225  0.6272 -0.6146 -0.5999
  118OSM   H16T12439   5.774   1.786   9.235 -0.8850 -2.0453  2.0028
  118OSM   C17S12440   5.949   1.662   9.167  0.0341  0.0412  0.0180
  118OSM   H17S12441   5.909   1.567   9.206  2.5553 -0.9839  0.2267
  118OSM   H17T12442   6.058   1.661   9.192  0.3349  0.0053 -1.2502
  118OSM   C18S12443   5.945   1.686   9.017  0.1618  0.0148 -0.1390
  118OSM   H18S12444   5.841   1.696   8.979 -0.4052 -1.3984  0.9805
  118OSM   H18T12445   6.012   1.612   8.968  0.0781 -1.0834  1.3583
  118OSM   H18U12446   5.994   1.784   9.001  2.2842 -1.0689 -0.5596
  118OSM    C1F12447   6.602   2.228  10.662  0.2937 -0.5842  0.5180
  118OSM     OF12448   6.685   2.178  10.737  0.6873 -0.2517 -0.4348
  118OSM    C2F12449   6.631   2.338  10.571  0.3613 -0.1931  0.3444
  118OSM    H2F12450   6.578   2.431  10.603 -0.6009 -0.4289 -0.5384
  118OSM    H2G12451   6.592   2.313  10.470 -2.9778 -0.3757  1.6322
  118OSM    C3F12452   6.785   2.361  10.554 -0.2029  0.4370 -0.1429
  118OSM    H3F12453   6.843   2.365  10.649 -2.7333 -0.2604  1.4644
  118OSM    H3G12454   6.802   2.450  10.489 -0.4037 -0.0677 -0.8967
  118OSM    C4F12455   6.854   2.248  10.477 -0.1524 -0.3676  0.4480
  118OSM    H4F12456   6.860   2.155  10.538 -3.3628 -1.4829 -0.8781
  118OSM    H4G12457   6.960   2.277  10.459 -0.5254  0.5591 -0.2853
  118OSM    C5F12458   6.799   2.213  10.336 -1.0699  0.2562 -0.1174
  118OSM    H5F12459   6.700   2.168  10.357 -1.8071 -0.1816 -4.1734
  118OSM    H5G12460   6.853   2.120  10.307 -1.4386 -0.1220  0.3917
  118OSM    C6F12461   6.802   2.330  10.237  0.0082  0.1969  1.0606
  118OSM    H6F12462   6.907   2.350  10.208 -0.2038 -2.2242 -1.6333
  118OSM    H6G12463   6.759   2.420  10.286 -1.7701  0.1083 -0.2763
  118OSM    C7F12464   6.709   2.313  10.109  0.0636  0.5307  0.0996
  118OSM    H7F12465   6.696   2.411  10.058 -1.3472  0.4182  0.2214
  118OSM    H7G12466   6.608   2.296  10.152  0.3803  0.9418  1.0133
  118OSM    C8F12467   6.736   2.191  10.014 -0.1344 -0.0789 -1.2972
  118OSM    H8F12468   6.648   2.190   9.946 -1.0426 -1.3835 -0.1549
  118OSM    H8G12469   6.723   2.104  10.082 -0.2714  0.5388 -0.5243
  118OSM    C9F12470   6.868   2.171   9.942 -0.1681 -0.0650  0.0824
  118OSM    H9F12471   6.958   2.148  10.001 -0.2325 -3.3290 -1.0013
  118OSM   C10F12472   6.881   2.164   9.804 -0.0597  0.3314 -0.0974
  118OSM   H10F12473   6.985   2.168   9.767  0.6915  1.4560  1.9865
  118OSM   C11F12474   6.768   2.161   9.699  0.3911  0.0511  0.2906
  118OSM   H11F12475   6.712   2.257   9.693 -0.0416 -0.2569 -0.6752
  118OSM   H11G12476   6.701   2.074   9.717  1.9259 -1.2226 -0.0102
  118OSM   C12F12477   6.824   2.135   9.558 -0.2676  0.8172  0.6797
  118OSM   H12F12478   6.891   2.046   9.560 -1.9069 -0.5167 -1.2339
  118OSM   H12G12479   6.872   2.229   9.522  0.3996 -0.7239 -2.6784
  118OSM   C13F12480   6.713   2.117   9.452  0.0617 -0.0651  0.0413
  118OSM   H13F12481   6.656   2.209   9.431 -1.0129  0.0521  3.2407
  118OSM   H13G12482   6.641   2.040   9.487 -1.4057  0.6751 -1.3158
  118OSM   C14F12483   6.772   2.057   9.325  0.2912  0.3056  0.3519
  118OSM   H14F12484   6.812   1.957   9.355 -0.3349  0.6719  2.5354
  118OSM   H14G12485   6.848   2.129   9.290 -1.8427  2.3764 -0.1164
  118OSM   C15F12486   6.667   2.038   9.206  0.0078  0.2993 -1.0484
  118OSM   H15F12487   6.616   2.136   9.197 -1.5011 -0.4510 -0.8227
  118OSM   H15G12488   6.585   1.965   9.226  1.2087 -0.7850  0.0532
  118OSM   C16F12489   6.737   2.003   9.069 -0.5309 -0.9022 -0.4942
  118OSM   H16F12490   6.730   1.893   9.078 -0.4891 -0.9099 -0.5630
  118OSM   H16G12491   6.839   2.046   9.069 -1.1997  0.7418 -0.7412
  118OSM   C17F12492   6.648   2.063   8.963  0.7760 -0.4051  0.3319
  118OSM   H17F12493   6.613   2.165   8.988  0.4325 -0.5656  0.5178
  118OSM   H17G12494   6.556   2.001   8.966 -0.9512  1.9475 -1.9436
  118OSM   C18F12495   6.701   2.055   8.821  0.1451  0.0024  0.4222
  118OSM   H18F12496   6.798   2.106   8.810  0.0719 -0.1836 -1.2408
  118OSM   H18G12497   6.639   2.098   8.740  0.4703  1.5123  0.9559
  118OSM   H18H12498   6.723   1.947   8.803  0.5857 -0.0921  1.4691
  119OSM      N12499   6.427   1.073  11.206 -0.0171 -0.5488  0.0033
  119OSM    C1512500   6.498   1.118  11.079 -0.0883 -0.8250 -0.1055
  119OSM   H15A12501   6.421   1.129  11.003 -0.1821 -0.1214  0.0887
  119OSM   H15B12502   6.566   1.043  11.042 -0.1812 -2.1953  2.4341
  119OSM   H15C12503   6.543   1.213  11.103 -1.0675 -0.3754 -0.0138
  119OSM    C1412504   6.328   1.173  11.247  0.8381 -0.1951 -0.3239
  119OSM   H14A12505   6.262   1.209  11.169 -0.2336  0.0052  0.6532
  119OSM   H14B12506   6.382   1.262  11.276 -0.0825  0.1733  0.2804
  119OSM   H14C12507   6.260   1.142  11.325 -1.1119  1.3278 -1.3449
  119OSM    C1312508   6.361   0.943  11.169 -0.0870  0.3110 -0.3465
  119OSM   H13A12509   6.277   0.948  11.101 -0.5148 -0.6753  0.0871
  119OSM   H13B12510   6.334   0.907  11.267  1.9658 -1.6040 -0.4594
  119OSM   H13C12511   6.434   0.874  11.129  0.4623  0.5290  0.2751
  119OSM    C1212512   6.535   1.038  11.303 -0.1812 -0.6147  0.6829
  119OSM   H12A12513   6.492   0.993  11.391  1.0609  0.5019  1.8642
  119OSM   H12B12514   6.593   1.124  11.330  0.5945  0.0690 -2.9068
  119OSM    C1112515   6.649   0.945  11.256  0.2354  0.0379  0.8845
  119OSM   H11A12516   6.725   0.946  11.336  0.9936 -0.0262  0.1733
  119OSM   H11B12517   6.702   0.991  11.169 -0.4937  1.6253  1.2528
  119OSM      P12518   6.693   0.723  11.117  0.1503  0.0935  0.0660
  119OSM    O1312519   6.661   0.583  11.144 -0.5749  0.0287  0.3562
  119OSM    O1412520   6.665   0.781  10.983  0.3260  0.5073 -0.2733
  119OSM    O1112521   6.845   0.759  11.162 -0.3723 -0.8337  0.4818
  119OSM    O1212522   6.615   0.809  11.223  0.1917 -0.5897 -0.5138
  119OSM    C1S12523   6.959   0.697  11.099  0.1014  0.0117  0.4778
  119OSM    H1S12524   6.935   0.590  11.078 -0.1231  0.5623 -2.2568
  119OSM    H1T12525   7.053   0.700  11.157  1.2151  2.5703 -1.3502
  119OSM     NF12526   7.071   0.686  10.874  0.3166  0.0379 -0.0077
  119OSM    HNF12527   7.158   0.728  10.848  0.2357  1.3962  1.8402
  119OSM    C2S12528   6.984   0.762  10.962 -0.4763  0.1671  0.5397
  119OSM    H2S12529   6.887   0.769  10.907 -1.3293  0.7867  2.0780
  119OSM    C3S12530   7.032   0.913  10.988 -0.3240  0.5034  0.6544
  119OSM    H3S12531   7.136   0.908  11.028  0.5854  2.9849 -1.2997
  119OSM     O312532   6.963   0.987  11.080 -0.3792 -0.2299  0.0041
  119OSM    HO312533   6.898   0.925  11.114  0.4314 -1.4075 -0.5620
  119OSM    C4S12534   7.038   0.982  10.853  0.2246 -0.0862 -0.0783
  119OSM    H4S12535   7.134   0.966  10.802  0.8469 -0.5008  1.2257
  119OSM    C5S12536   6.944   1.063  10.796 -0.8156  0.9291  0.7019
  119OSM    H5S12537   6.843   1.064  10.840 -1.5919 -0.0819 -1.0232
  119OSM    C6S12538   6.965   1.116  10.658 -0.1407 -0.3232  0.2828
  119OSM    H6S12539   7.001   1.220  10.643 -0.1033 -0.4542 -0.6150
  119OSM    H6T12540   6.868   1.126  10.604  0.0078  0.6150  0.1689
  119OSM    C7S12541   7.062   1.025  10.569  0.3017  0.7770 -1.1506
  119OSM    H7S12542   7.041   0.917  10.587  3.2990  0.8365  3.7932
  119OSM    H7T12543   7.168   1.028  10.602 -0.9002  0.5808  3.0359
  119OSM    C8S12544   7.064   1.056  10.415 -0.2214  0.5119 -0.7149
  119OSM    H8S12545   7.107   1.157  10.399 -0.9233  1.2528  1.8313
  119OSM    H8T12546   6.963   1.058  10.368  0.8217  4.5768 -2.9881
  119OSM    C9S12547   7.139   0.954  10.325 -0.2819 -0.1699  0.2049
  119OSM    H9S12548   7.067   0.870  10.337 -2.5511  2.0835  2.9947
  119OSM    H9T12549   7.233   0.924  10.376 -0.0233  0.5553  0.1567
  119OSM   C10S12550   7.164   0.993  10.180  0.0547  0.1193 -0.9424
  119OSM   H10S12551   7.202   1.096  10.163 -1.2601  0.8914  0.6138
  119OSM   H10T12552   7.073   0.981  10.117 -1.3449 -1.3631  1.2924
  119OSM   C11S12553   7.270   0.898  10.123  0.1577  0.4073  0.3444
  119OSM   H11S12554   7.235   0.794  10.139 -0.1471  0.2946 -0.9381
  119OSM   H11T12555   7.361   0.898  10.187 -0.1844  0.4951  0.8316
  119OSM   C12S12556   7.314   0.933   9.981  0.5314 -0.2039  0.5000
  119OSM   H12S12557   7.397   0.869   9.942 -0.2758 -1.2553  0.4664
  119OSM   H12T12558   7.351   1.037   9.971 -1.6610  0.7288  1.8328
  119OSM   C13S12559   7.204   0.928   9.877  0.3738 -0.1865 -1.1213
  119OSM   H13S12560   7.117   0.991   9.908 -1.8037 -2.9772 -1.2906
  119OSM   H13T12561   7.170   0.823   9.884 -0.5796  0.1197 -1.0695
  119OSM   C14S12562   7.261   0.968   9.740 -0.9361  0.4732 -0.4043
  119OSM   H14S12563   7.351   0.903   9.729 -1.3634 -0.3876  1.0372
  119OSM   H14T12564   7.285   1.076   9.742  0.1309  0.2412 -0.0936
  119OSM   C15S12565   7.165   0.952   9.616  0.2829  0.4423 -0.2622
  119OSM   H15S12566   7.066   0.993   9.647  0.4416  1.3259 -0.9006
  119OSM   H15T12567   7.150   0.843   9.600  2.1865 -0.2274  2.2319
  119OSM   C16S12568   7.220   1.020   9.498 -0.6423  0.4960 -0.7099
  119OSM   H16S12569   7.324   0.990   9.473 -0.8587 -0.6685 -0.2099
  119OSM   H16T12570   7.224   1.130   9.514  0.9548  0.5880 -1.6008
  119OSM   C17S12571   7.138   0.990   9.380  0.4924 -0.0113 -0.6476
  119OSM   H17S12572   7.030   1.012   9.385  0.9728  1.8781  3.1404
  119OSM   H17T12573   7.153   0.882   9.359 -0.0999 -0.8331  2.7878
  119OSM   C18S12574   7.184   1.067   9.257 -0.2981 -0.4269 -0.9813
  119OSM   H18S12575   7.289   1.044   9.231 -0.5115 -0.4673 -1.8233
  119OSM   H18T12576   7.173   1.176   9.279 -3.9042 -0.4901 -2.0683
  119OSM   H18U12577   7.120   1.048   9.168 -0.3849 -1.0769 -0.7764
  119OSM    C1F12578   7.046   0.573  10.822 -0.6411  0.0260  0.0344
  119OSM     OF12579   6.941   0.517  10.847  0.6954  0.5134  0.2130
  119OSM    C2F12580   7.154   0.524  10.730  0.3017 -0.6058  0.9054
  119OSM    H2F12581   7.244   0.496  10.788 -0.2797  0.9103  2.5744
  119OSM    H2G12582   7.182   0.602  10.655  0.6806  1.2289  2.9078
  119OSM    C3F12583   7.110   0.394  10.665  0.3367  0.2165 -0.3182
  119OSM    H3F12584   7.028   0.428  10.597 -2.8095  1.3597  3.8298
  119OSM    H3G12585   7.064   0.321  10.734  0.6357 -0.2929 -0.6540
  119OSM    C4F12586   7.225   0.321  10.593 -0.1205  0.2161 -0.7099
  119OSM    H4F12587   7.184   0.239  10.529 -0.2169  1.6261 -2.5027
  119OSM    H4G12588   7.280   0.268  10.673 -1.6870 -0.2443  0.0763
  119OSM    C5F12589   7.325   0.401  10.509 -0.5036 -0.4583  1.1139
  119OSM    H5F12590   7.405   0.329  10.483  0.9863  2.1469 -1.7231
  119OSM    H5G12591   7.372   0.482  10.568  0.3689 -0.1403  0.0028
  119OSM    C6F12592   7.261   0.450  10.372  0.0513  0.5733 -1.2861
  119OSM    H6F12593   7.177   0.520  10.391 -0.1318 -0.8589  3.7285
  119OSM    H6G12594   7.217   0.365  10.315 -2.2684  1.1907 -0.4860
  119OSM    C7F12595   7.371   0.505  10.275 -0.5885  0.2045  0.3695
  119OSM    H7F12596   7.451   0.429  10.279  0.2945  1.1768  1.1854
  119OSM    H7G12597   7.409   0.598  10.321  0.4370 -0.3646  0.6749
  119OSM    C8F12598   7.318   0.527  10.131 -0.2471 -0.5050 -0.5342
  119OSM    H8F12599   7.393   0.594  10.084 -1.2752  0.7980 -0.3302
  119OSM    H8G12600   7.221   0.579  10.140  1.6517  3.1704 -0.5927
  119OSM    C9F12601   7.305   0.393  10.048  0.1879 -0.4919  0.2546
  119OSM    H9F12602   7.278   0.306  10.110 -0.1077 -0.7011 -0.1711
  119OSM   C10F12603   7.313   0.373   9.917  0.0379 -0.4949 -0.2723
  119OSM   H10F12604   7.281   0.279   9.871 -4.3382  0.5239  0.4486
  119OSM   C11F12605   7.327   0.479   9.820  0.1593  0.0625 -0.3187
  119OSM   H11F12606   7.395   0.447   9.738 -0.8514  0.3261 -1.2680
  119OSM   H11G12607   7.364   0.572   9.868  1.3265 -0.6673  0.2187
  119OSM   C12F12608   7.192   0.519   9.752  0.4885 -0.1784 -0.2638
  119OSM   H12F12609   7.223   0.620   9.718  1.8568  0.0428  1.5417
  119OSM   H12G12610   7.105   0.537   9.819  0.1022 -0.2320 -0.7548
  119OSM   C13F12611   7.163   0.424   9.632 -0.3015  0.3206 -0.0308
  119OSM   H13F12612   7.135   0.333   9.690  0.7469  1.7923  2.8994
  119OSM   H13G12613   7.256   0.414   9.572 -0.7160  1.7435 -0.9261
  119OSM   C14F12614   7.049   0.464   9.544 -0.0661  0.7803 -0.0264
  119OSM   H14F12615   6.955   0.472   9.603 -0.4184  0.8314 -0.5951
  119OSM   H14G12616   7.040   0.377   9.475 -2.2710  0.9657  0.0014
  119OSM   C15F12617   7.063   0.596   9.463 -0.4376  0.3891  0.3923
  119OSM   H15F12618   7.159   0.607   9.408  0.0119 -0.6372  0.9485
  119OSM   H15G12619   7.061   0.690   9.522 -1.0590 -0.4544  1.7380
  119OSM   C16F12620   6.939   0.600   9.376 -0.2656 -0.2587 -0.1004
  119OSM   H16F12621   6.856   0.579   9.446 -0.0511 -0.9953 -0.0699
  119OSM   H16G12622   6.937   0.514   9.306 -1.4400  0.5532 -1.0895
  119OSM   C17F12623   6.923   0.728   9.294  0.3987 -0.0187  0.3567
  119OSM   H17F12624   7.018   0.731   9.236 -0.2191  0.2423 -0.6473
  119OSM   H17G12625   6.924   0.823   9.352  1.6211 -1.6472  3.1277
  119OSM   C18F12626   6.800   0.733   9.209 -0.0625  0.1143 -0.2578
  119OSM   H18F12627   6.791   0.646   9.139 -0.4146 -0.7306  0.8301
  119OSM   H18G12628   6.792   0.823   9.144 -2.6197 -1.8887 -2.8359
  119OSM   H18H12629   6.708   0.740   9.271 -1.0121 -0.6091 -1.5572
  120OSM      N12630   6.438   4.856  10.940 -0.5933  0.6556  0.4182
  120OSM    C1512631   6.410   4.810  11.082 -0.8903 -0.1297 -0.5415
  120OSM   H15A12632   6.468   4.856  11.160 -2.2724  0.0568  0.3968
  120OSM   H15B12633   6.431   4.704  11.087 -0.6305 -0.1221 -1.3921
  120OSM   H15C12634   6.303   4.810  11.097 -0.9837  1.3110 -1.0834
  120OSM    C1412635   6.427   4.999  10.943  0.3028 -1.2771  0.5098
  120OSM   H14A12636   6.503   5.053  10.997 -0.7863  0.4740  0.3206
  120OSM   H14B12637   6.328   5.018  10.981 -0.5718 -1.2432 -1.7346
  120OSM   H14C12638   6.428   5.050  10.848 -0.0753  2.2298  2.3235
  120OSM    C1312639   6.578   4.819  10.900  0.3651 -0.6073  0.2015
  120OSM   H13A12640   6.578   4.714  10.872 -0.6881 -0.0577 -1.9610
  120OSM   H13B12641   6.657   4.841  10.971 -0.7258 -0.8160  1.4839
  120OSM   H13C12642   6.591   4.864  10.803 -2.3117  2.0253  1.0023
  120OSM    C1212643   6.340   4.789  10.840 -0.3999  0.9981 -0.3267
  120OSM   H12A12644   6.239   4.807  10.874 -0.4486  0.1708 -0.0134
  120OSM   H12B12645   6.361   4.683  10.848 -0.9394  0.8982 -0.1528
  120OSM    C1112646   6.365   4.833  10.693  0.2075 -0.5929  1.0660
  120OSM   H11A12647   6.345   4.941  10.679  0.3698 -0.7019 -0.0956
  120OSM   H11B12648   6.282   4.785  10.638  0.3821 -0.9126  1.0831
  120OSM      P12649   6.538   4.656  10.602 -0.0026 -0.2930 -0.5363
  120OSM    O1312650   6.664   4.616  10.669 -0.2656 -0.1988 -0.3900
  120OSM    O1412651   6.423   4.572  10.621 -0.1776 -0.7980  1.1239
  120OSM    O1112652   6.567   4.665  10.453  0.2205 -0.2879  0.0580
  120OSM    O1212653   6.489   4.803  10.628 -0.0398  0.0685 -0.0954
  120OSM    C1S12654   6.486   4.753  10.369 -0.3516  0.4776  0.2096
  120OSM    H1S12655   6.511   4.859  10.387 -1.0140  1.1877 -2.7120
  120OSM    H1T12656   6.376   4.735  10.376 -0.4348  2.3255  5.3041
  120OSM     NF12657   6.502   4.868  10.139 -0.8554  0.2358 -0.6080
  120OSM    HNF12658   6.431   4.863  10.070 -0.6568  1.1781 -0.8870
  120OSM    C2S12659   6.534   4.747  10.220 -0.5628  0.6364  0.0848
  120OSM    H2S12660   6.645   4.744  10.224 -0.5422 -2.0225 -1.1616
  120OSM    C3S12661   6.480   4.612  10.162  0.2760 -0.4804 -0.5120
  120OSM    H3S12662   6.369   4.613  10.161  0.2668 -0.5296 -2.8545
  120OSM     O312663   6.520   4.501  10.237 -0.0717  0.9396 -0.5120
  120OSM    HO312664   6.563   4.538  10.314  1.5430 -1.0373 -0.4151
  120OSM    C4S12665   6.531   4.588  10.019 -0.3149  0.2487  0.4235
  120OSM    H4S12666   6.639   4.604  10.017 -0.2184 -0.4513 -0.1472
  120OSM    C5S12667   6.454   4.565   9.904  0.4968  0.4379  0.5986
  120OSM    H5S12668   6.344   4.561   9.903  0.5109 -0.5258  2.1238
  120OSM    C6S12669   6.520   4.541   9.767  0.6460 -0.0204  0.0578
  120OSM    H6S12670   6.484   4.444   9.728  2.0517 -1.4548  2.2350
  120OSM    H6T12671   6.630   4.529   9.776  0.5721 -0.3536  0.5178
  120OSM    C7S12672   6.482   4.662   9.673  0.3298  0.2991  0.1950
  120OSM    H7S12673   6.518   4.759   9.714  2.3783 -0.1760 -0.4307
  120OSM    H7T12674   6.375   4.655   9.642  0.8091 -1.5868 -1.1144
  120OSM    C8S12675   6.570   4.651   9.540 -0.1761 -0.1044  0.1643
  120OSM    H8S12676   6.669   4.629   9.584  0.8270  1.6871 -1.1111
  120OSM    H8T12677   6.571   4.755   9.499 -0.3240  0.3564  1.3145
  120OSM    C9S12678   6.515   4.547   9.442  0.4955  0.1326  0.2219
  120OSM    H9S12679   6.421   4.588   9.399  1.6206  2.8424  0.2467
  120OSM    H9T12680   6.492   4.449   9.488  1.0001 -0.9789 -1.8089
  120OSM   C10S12681   6.611   4.528   9.322 -0.8226 -0.3087  0.2165
  120OSM   H10S12682   6.706   4.482   9.358  0.3477  0.6396 -1.6011
  120OSM   H10T12683   6.644   4.626   9.281  0.3082 -0.3366  1.0478
  120OSM   C11S12684   6.550   4.437   9.218 -0.0322 -0.0096  0.3328
  120OSM   H11S12685   6.575   4.484   9.120 -0.3880 -0.0452  0.2245
  120OSM   H11T12686   6.439   4.441   9.226 -0.2891 -1.4835 -2.1247
  120OSM   C12S12687   6.586   4.284   9.234 -0.0219 -0.8124  0.5902
  120OSM   H12S12688   6.508   4.218   9.189 -1.0455  0.5211  0.3512
  120OSM   H12T12689   6.583   4.270   9.344 -0.6120 -0.7251  0.5915
  120OSM   C13S12690   6.726   4.250   9.184  0.0594 -0.1313 -0.3700
  120OSM   H13S12691   6.747   4.143   9.207 -2.5129 -0.4284  0.7547
  120OSM   H13T12692   6.787   4.316   9.250 -1.5547  0.2116  0.8054
  120OSM   C14S12693   6.745   4.274   9.030  0.0496 -0.2761 -0.0616
  120OSM   H14S12694   6.856   4.280   9.021 -0.0017  0.0297 -0.5081
  120OSM   H14T12695   6.687   4.361   8.994 -0.4699 -0.8977 -0.7612
  120OSM   C15S12696   6.701   4.162   8.938  0.0542 -0.3436 -0.7699
  120OSM   H15S12697   6.592   4.157   8.958 -0.0942  1.3626 -1.1087
  120OSM   H15T12698   6.753   4.067   8.966 -2.2488 -0.9537  1.6754
  120OSM   C16S12699   6.743   4.187   8.786  0.0523  0.8930  0.3683
  120OSM   H16S12700   6.848   4.222   8.790  1.3589 -2.6924 -0.4621
  120OSM   H16T12701   6.677   4.268   8.748 -0.6747  0.7688  1.3624
  120OSM   C17S12702   6.724   4.075   8.688  1.0659  0.4149  0.0086
  120OSM   H17S12703   6.770   3.987   8.739  1.1063  0.9467  0.8954
  120OSM   H17T12704   6.789   4.084   8.599  0.5668 -0.7099 -0.4849
  120OSM   C18S12705   6.584   4.027   8.658 -0.4563 -0.0560  0.2010
  120OSM   H18S12706   6.577   3.939   8.590  0.9720 -0.9729  1.2150
  120OSM   H18T12707   6.532   4.110   8.606  0.9761 -0.3882 -1.8423
  120OSM   H18U12708   6.527   3.996   8.748 -1.7849 -0.9073 -0.9070
  120OSM    C1F12709   6.563   4.983  10.153  0.1706 -0.6932 -0.2940
  120OSM     OF12710   6.643   5.010  10.241  0.0569 -0.0644  0.1615
  120OSM    C2F12711   6.533   5.089  10.046  0.0178 -0.1952  0.1505
  120OSM    H2F12712   6.485   5.176  10.096 -0.1165 -1.4232  2.2273
  120OSM    H2G12713   6.469   5.057   9.962  3.7460 -0.5088 -2.6892
  120OSM    C3F12714   6.668   5.133   9.983 -0.5182 -0.0535  0.2232
  120OSM    H3F12715   6.735   5.044   9.981 -2.2992 -1.4055 -1.5956
  120OSM    H3G12716   6.715   5.200  10.058 -1.2179  0.7915 -0.1003
  120OSM    C4F12717   6.651   5.209   9.846  0.3755 -0.1120  0.2165
  120OSM    H4F12718   6.734   5.283   9.835 -0.0909  0.6477  1.7507
  120OSM    H4G12719   6.563   5.277   9.848 -0.0476 -0.5923 -1.4531
  120OSM    C5F12720   6.661   5.126   9.713  0.1684  0.0207 -1.1309
  120OSM    H5F12721   6.574   5.063   9.684  0.5909  0.0680 -2.5218
  120OSM    H5G12722   6.749   5.061   9.735 -0.3436 -0.3610 -0.1542
  120OSM    C6F12723   6.674   5.206   9.588 -0.7790  0.3295  0.1173
  120OSM    H6F12724   6.753   5.283   9.591 -1.2385  0.8157 -0.2141
  120OSM    H6G12725   6.578   5.258   9.568 -1.0547 -0.3530 -0.3629
  120OSM    C7F12726   6.711   5.116   9.471  0.2527 -0.1420  0.4055
  120OSM    H7F12727   6.641   5.034   9.444  1.6579 -0.6629 -1.7803
  120OSM    H7G12728   6.810   5.072   9.492  0.5461  1.3979  2.3757
  120OSM    C8F12729   6.721   5.194   9.331 -0.0572 -0.1510 -0.0696
  120OSM    H8F12730   6.766   5.125   9.257  1.1280  1.2818 -0.7076
  120OSM    H8G12731   6.797   5.273   9.349 -0.8338  0.7008 -0.4786
  120OSM    C9F12732   6.598   5.272   9.291 -0.5921  0.1901  0.3271
  120OSM    H9F12733   6.565   5.353   9.357 -0.1949  0.9807 -0.4340
  120OSM   C10F12734   6.512   5.245   9.191  0.1748 -0.0400  0.8096
  120OSM   H10F12735   6.436   5.320   9.167 -0.4146 -1.4167 -1.6946
  120OSM   C11F12736   6.528   5.131   9.090 -0.3109 -0.2340  0.2144
  120OSM   H11F12737   6.435   5.070   9.080  1.2182 -2.3566 -1.5229
  120OSM   H11G12738   6.602   5.060   9.132  1.3582 -0.1990 -2.5369
  120OSM   C12F12739   6.576   5.180   8.945 -0.3625  0.6791 -0.2032
  120OSM   H12F12740   6.659   5.250   8.968 -0.1175  0.3348 -0.0358
  120OSM   H12G12741   6.497   5.246   8.904 -0.8600 -0.1783 -0.6596
  120OSM   C13F12742   6.611   5.055   8.859  0.0094 -0.4137 -0.2049
  120OSM   H13F12743   6.515   5.002   8.840 -0.1401  0.2156 -1.2358
  120OSM   H13G12744   6.683   4.992   8.916  2.0311  2.4841  0.5566
  120OSM   C14F12745   6.684   5.098   8.725 -0.2586  0.9471  0.6335
  120OSM   H14F12746   6.785   5.140   8.747  0.6203  0.0344 -1.4388
  120OSM   H14G12747   6.623   5.184   8.689  0.4837  1.3293  0.2759
  120OSM   C15F12748   6.707   4.986   8.622 -0.4270  0.2242  0.6880
  120OSM   H15F12749   6.608   4.941   8.598 -1.4968  2.5954  0.5523
  120OSM   H15G12750   6.762   4.906   8.677  2.2697  0.5334 -1.5003
  120OSM   C16F12751   6.765   5.031   8.491 -0.3809  0.5859 -0.4847
  120OSM   H16F12752   6.690   5.089   8.435 -0.5886  0.1989 -0.6116
  120OSM   H16G12753   6.768   4.930   8.444 -1.9383 -0.4565  1.5748
  120OSM   C17F12754   6.912   5.090   8.503 -0.9265  0.2099 -0.2927
  120OSM   H17F12755   6.970   5.030   8.576 -0.3980 -0.7251 -1.4542
  120OSM   H17G12756   6.921   5.197   8.528  1.7893  0.0138 -0.3406
  120OSM   C18F12757   6.982   5.090   8.363  0.0897 -0.9896  0.4074
  120OSM   H18F12758   6.935   5.169   8.299 -2.3229 -2.1817  0.6299
  120OSM   H18G12759   6.969   4.992   8.314 -1.2510 -0.9715  0.6816
  120OSM   H18H12760   7.090   5.110   8.377 -0.0693 -0.0144  0.3014
  121OSM      N12761   4.906   0.750  10.898 -0.0641 -0.2464 -0.0035
  121OSM    C1512762   4.803   0.817  10.986  0.5385 -0.1395 -0.0847
  121OSM   H15A12763   4.702   0.779  10.979 -0.0253  1.4275 -0.6397
  121OSM   H15B12764   4.794   0.925  10.978  1.0979  0.0217  1.2179
  121OSM   H15C12765   4.821   0.795  11.091 -0.1783 -0.4910 -0.0298
  121OSM    C1412766   4.908   0.603  10.935 -0.9135 -0.3088 -0.5272
  121OSM   H14A12767   4.919   0.598  11.043  2.1847  0.8763 -0.7151
  121OSM   H14B12768   4.982   0.548  10.880  0.6535  0.9403  0.2667
  121OSM   H14C12769   4.812   0.560  10.914 -0.9765 -0.6352  0.3787
  121OSM    C1312770   4.856   0.765  10.752 -0.0755  0.4403 -0.0992
  121OSM   H13A12771   4.922   0.710  10.686  1.7152  2.3468  0.0184
  121OSM   H13B12772   4.853   0.869  10.720 -2.5319  0.4447  0.1002
  121OSM   H13C12773   4.758   0.723  10.744  0.8323 -1.6668 -0.3943
  121OSM    C1212774   5.037   0.814  10.921  0.2586  0.4864 -0.4806
  121OSM   H12A12775   5.070   0.806  11.024  3.8470 -1.3025 -1.6980
  121OSM   H12B12776   5.030   0.921  10.906 -0.6807  0.3769 -0.8794
  121OSM    C1112777   5.149   0.764  10.830 -0.3902 -0.7664 -0.6696
  121OSM   H11A12778   5.232   0.828  10.868 -2.4929  2.4430 -1.2837
  121OSM   H11B12779   5.123   0.785  10.725  1.2513 -1.4975 -1.2351
  121OSM      P12780   5.269   0.569  10.969  0.1586 -0.2029 -0.3745
  121OSM    O1312781   5.287   0.674  11.077 -0.4338 -0.1213 -0.1685
  121OSM    O1412782   5.218   0.436  11.015 -0.2702 -0.5869 -0.0026
  121OSM    O1112783   5.409   0.558  10.893  0.1399 -1.0604  0.2850
  121OSM    O1212784   5.177   0.626  10.852  0.4291 -0.3426 -0.2607
  121OSM    C1S12785   5.442   0.465  10.798  0.2162 -0.0500  0.0581
  121OSM    H1S12786   5.381   0.372  10.807 -1.9231  1.1981 -1.1281
  121OSM    H1T12787   5.540   0.425  10.833  0.3726 -0.5622 -0.9511
  121OSM     NF12788   5.505   0.419  10.564 -0.2425 -0.4888 -0.2063
  121OSM    HNF12789   5.603   0.420  10.549 -0.4523 -0.7987 -1.6697
  121OSM    C2S12790   5.441   0.521  10.654 -0.2804 -0.2058 -0.4070
  121OSM    H2S12791   5.336   0.545  10.624  0.2401  2.1471 -0.4747
  121OSM    C3S12792   5.518   0.655  10.639  0.1486 -0.5083 -0.6407
  121OSM    H3S12793   5.624   0.638  10.665  1.5641  1.8136 -4.5490
  121OSM     O312794   5.479   0.761  10.727 -0.1170 -0.4192  0.5272
  121OSM    HO312795   5.441   0.712  10.800 -0.2426  1.3723  1.6909
  121OSM    C4S12796   5.498   0.712  10.507  1.0312 -0.7100 -0.2034
  121OSM    H4S12797   5.415   0.676  10.445  1.4130 -1.5503 -0.2382
  121OSM    C5S12798   5.586   0.798  10.450  0.2977 -1.1627 -0.2354
  121OSM    H5S12799   5.675   0.839  10.500 -0.1349 -0.4164 -0.0649
  121OSM    C6S12800   5.577   0.857  10.314 -0.0605  0.3590 -1.0884
  121OSM    H6S12801   5.553   0.964  10.331  1.4952  0.4897  0.4572
  121OSM    H6T12802   5.485   0.817  10.266  0.9780 -3.4596 -0.0966
  121OSM    C7S12803   5.699   0.849  10.229 -0.3665 -0.1162  0.1450
  121OSM    H7S12804   5.723   0.743  10.209 -2.3111 -0.5040 -0.2350
  121OSM    H7T12805   5.788   0.896  10.276 -0.4185  0.1390 -0.0093
  121OSM    C8S12806   5.678   0.914  10.088  0.0688  0.1586 -1.0824
  121OSM    H8S12807   5.645   1.019  10.101  1.6737  0.5751 -0.3602
  121OSM    H8T12808   5.585   0.869  10.047  0.1074  0.0178 -1.0119
  121OSM    C9S12809   5.789   0.888   9.984 -0.0317  0.7727 -0.9865
  121OSM    H9S12810   5.793   0.779   9.967  0.6900  1.1749 -3.5458
  121OSM    H9T12811   5.890   0.925  10.014  1.3466 -3.1237 -0.5765
  121OSM   C10S12812   5.756   0.940   9.843  0.1718  0.1501  0.2114
  121OSM   H10S12813   5.739   1.049   9.856  1.9476  0.3572  0.8768
  121OSM   H10T12814   5.655   0.900   9.815 -0.4785  0.5638  1.9242
  121OSM   C11S12815   5.868   0.916   9.736 -0.8436 -0.1003  0.7512
  121OSM   H11S12816   5.888   0.808   9.720  0.4730  0.1360  0.7510
  121OSM   H11T12817   5.964   0.959   9.771 -0.6004  0.0170 -0.0587
  121OSM   C12S12818   5.824   0.970   9.595 -0.5751  0.3269  0.2293
  121OSM   H12S12819   5.799   1.078   9.599  1.4912  0.7897  1.4134
  121OSM   H12T12820   5.740   0.904   9.564 -1.1572  1.0539  0.2478
  121OSM   C13S12821   5.931   0.947   9.499 -0.9425 -0.2990  0.1511
  121OSM   H13S12822   5.955   0.838   9.489 -0.3241 -0.2526  1.0610
  121OSM   H13T12823   6.020   1.002   9.537 -0.3030 -1.7162  0.7566
  121OSM   C14S12824   5.896   0.999   9.356 -0.2303 -0.1667 -0.2259
  121OSM   H14S12825   5.890   1.110   9.359 -3.5486 -0.3070  0.1616
  121OSM   H14T12826   5.796   0.956   9.332 -0.6485  1.0928 -0.8012
  121OSM   C15S12827   5.983   0.950   9.240 -0.0210  0.5543 -0.4461
  121OSM   H15S12828   5.974   0.839   9.238  2.8184  0.2781  0.7702
  121OSM   H15T12829   6.090   0.974   9.255  0.7191 -3.4961  1.1227
  121OSM   C16S12830   5.938   1.007   9.098  0.7252 -0.0905  0.5323
  121OSM   H16S12831   5.949   1.117   9.095  0.8940 -0.1367 -0.5095
  121OSM   H16T12832   5.827   0.998   9.104  0.6448  1.6373  2.2367
  121OSM   C17S12833   6.008   0.946   8.977 -0.0603 -0.1121 -0.2465
  121OSM   H17S12834   5.980   0.839   8.992 -0.6200 -0.1210 -1.2535
  121OSM   H17T12835   6.117   0.962   8.987 -0.1755 -0.1924  1.1801
  121OSM   C18S12836   5.957   1.002   8.835  0.8684 -0.1991 -0.9810
  121OSM   H18S12837   5.854   0.962   8.827 -0.1282  1.9142  0.6188
  121OSM   H18T12838   6.009   0.959   8.746  3.0833 -0.4949  0.4109
  121OSM   H18U12839   5.965   1.113   8.839  0.0702 -0.1030 -1.9466
  121OSM    C1F12840   5.430   0.316  10.537 -1.0413 -0.0524  0.1159
  121OSM     OF12841   5.313   0.303  10.569  0.0096  0.1679 -0.1707
  121OSM    C2F12842   5.513   0.201  10.474  0.4244 -0.4808 -0.0602
  121OSM    H2F12843   5.557   0.147  10.561  2.3054  1.7505  0.4409
  121OSM    H2G12844   5.590   0.250  10.411 -1.9651  2.3185 -0.9250
  121OSM    C3F12845   5.442   0.105  10.384  0.1760 -0.6093 -0.2910
  121OSM    H3F12846   5.352   0.063  10.433 -0.4283 -1.3212 -1.9738
  121OSM    H3G12847   5.506   0.016  10.366  2.4139  0.9807 -0.3998
  121OSM    C4F12848   5.407   0.164  10.244  0.1439 -0.0389  0.0788
  121OSM    H4F12849   5.328   0.241  10.263 -0.6852 -0.7155 -0.5815
  121OSM    H4G12850   5.357   0.081  10.191 -0.0177  0.7217 -0.9643
  121OSM    C5F12851   5.529   0.221  10.166  0.4463  0.3636  0.0203
  121OSM    H5F12852   5.617   0.154  10.173 -1.4956 -2.2472  0.6241
  121OSM    H5G12853   5.558   0.318  10.210  0.2258  0.1519  0.6378
  121OSM    C6F12854   5.496   0.251  10.017  0.0772  0.0347  0.4273
  121OSM    H6F12855   5.549   0.334   9.967 -1.1260  0.6102  0.0841
  121OSM    H6G12856   5.396   0.299  10.024 -0.0509 -0.2040  0.2425
  121OSM    C7F12857   5.499   0.121   9.927  0.2591 -0.0251  0.2243
  121OSM    H7F12858   5.441   0.046   9.985 -2.0728  1.7109  0.1630
  121OSM    H7G12859   5.600   0.077   9.912  1.1736  1.3285  2.1758
  121OSM    C8F12860   5.434   0.153   9.791 -0.1662  0.2762  0.3049
  121OSM    H8F12861   5.328   0.186   9.791 -0.0274  0.7216  0.6783
  121OSM    H8G12862   5.432   0.053   9.742  3.1160 -0.7854  2.2056
  121OSM    C9F12863   5.515   0.237   9.695  0.1206  0.2342 -0.6716
  121OSM    H9F12864   5.587   0.298   9.751  1.7493  0.9543 -3.4485
  121OSM   C10F12865   5.510   0.236   9.561 -0.3003  0.0858  0.6558
  121OSM   H10F12866   5.575   0.305   9.505 -1.1428 -0.2092 -0.7123
  121OSM   C11F12867   5.410   0.155   9.486 -0.6290  0.3935  0.1758
  121OSM   H11F12868   5.340   0.103   9.554 -0.7302  1.3805  0.8426
  121OSM   H11G12869   5.467   0.083   9.423 -0.6607  0.1886  0.3847
  121OSM   C12F12870   5.314   0.238   9.399 -0.5972 -0.0692  0.2631
  121OSM   H12F12871   5.254   0.312   9.458 -2.1231  0.0030 -1.3317
  121OSM   H12G12872   5.245   0.165   9.351  0.9774  0.2326 -2.5102
  121OSM   C13F12873   5.378   0.319   9.282 -0.0352 -0.0013 -0.4499
  121OSM   H13F12874   5.427   0.250   9.211  0.2355  1.0419 -1.2807
  121OSM   H13G12875   5.439   0.405   9.316  1.0081 -0.7806 -0.3255
  121OSM   C14F12876   5.262   0.388   9.199  0.4128  0.7434  0.0866
  121OSM   H14F12877   5.197   0.456   9.258  0.0852  1.3777 -0.9716
  121OSM   H14G12878   5.197   0.306   9.163  0.6696  0.4310  0.3412
  121OSM   C15F12879   5.308   0.470   9.084 -0.4601  0.1773  0.1478
  121OSM   H15F12880   5.382   0.420   9.018 -1.3088 -0.0262 -0.6749
  121OSM   H15G12881   5.357   0.560   9.125 -0.3744  0.6193 -0.9176
  121OSM   C16F12882   5.191   0.507   8.983 -0.3952  1.0351 -0.3531
  121OSM   H16F12883   5.220   0.573   8.898 -0.0591  1.5486  0.1635
  121OSM   H16G12884   5.107   0.541   9.047 -0.0899  0.2099  0.4875
  121OSM   C17F12885   5.139   0.378   8.908 -0.3163  0.3250 -1.1424
  121OSM   H17F12886   5.031   0.394   8.888 -0.2123  1.9929 -0.4926
  121OSM   H17G12887   5.141   0.296   8.982 -1.3996  0.5782 -0.8116
  121OSM   C18F12888   5.226   0.347   8.789  0.2690 -0.1803 -0.0674
  121OSM   H18F12889   5.250   0.429   8.719  1.6848 -1.1603 -0.7743
  121OSM   H18G12890   5.178   0.261   8.737  2.1188 -1.6821  0.6103
  121OSM   H18H12891   5.318   0.300   8.830  0.4124  0.2070  0.0584
  122OSM      N12892   6.355   6.097  10.769 -0.0262  0.0218 -0.0569
  122OSM    C1512893   6.418   5.971  10.813 -0.5441 -0.0015 -0.5775
  122OSM   H15A12894   6.398   5.954  10.917 -0.7561 -0.1867 -0.6485
  122OSM   H15B12895   6.525   5.965  10.796 -0.3042 -2.4014  1.4981
  122OSM   H15C12896   6.374   5.882  10.769 -2.8129  0.1966  1.2224
  122OSM    C1412897   6.425   6.208  10.841  0.5265 -0.4185 -0.4777
  122OSM   H14A12898   6.389   6.216  10.943  0.6085  2.0039 -0.6270
  122OSM   H14B12899   6.386   6.299  10.800  0.4191 -0.0961  0.3320
  122OSM   H14C12900   6.533   6.208  10.830  0.7824 -2.1795  1.5539
  122OSM    C1312901   6.396   6.114  10.625  0.7481  0.0785  0.7073
  122OSM   H13A12902   6.346   6.195  10.575  1.7815  0.8704  0.9533
  122OSM   H13B12903   6.373   6.019  10.578 -0.4855  0.7447 -0.0361
  122OSM   H13C12904   6.500   6.142  10.627  0.9498 -0.6718  0.8462
  122OSM    C1212905   6.201   6.091  10.792 -0.4834  0.2980 -0.2698
  122OSM   H12A12906   6.154   6.178  10.749  0.8919  1.5436  0.7031
  122OSM   H12B12907   6.185   6.102  10.899  1.9022  1.4273 -0.0129
  122OSM    C1112908   6.138   5.963  10.729 -0.0623 -0.1558  0.1604
  122OSM   H11A12909   6.160   5.947  10.622 -1.2812  0.5611 -0.2032
  122OSM   H11B12910   6.027   5.970  10.731 -0.0639  0.7600 -2.1731
  122OSM      P12911   6.149   5.708  10.748  0.2204  0.2779  0.2429
  122OSM    O1312912   6.211   5.604  10.839  0.1526  0.7500 -0.3027
  122OSM    O1412913   6.006   5.694  10.725 -0.1279  0.2503 -0.1755
  122OSM    O1112914   6.221   5.715  10.607  0.8509 -0.6056  0.0396
  122OSM    O1212915   6.172   5.848  10.808  0.4134 -0.8101  0.4557
  122OSM    C1S12916   6.359   5.668  10.601  0.4031 -0.2656  0.1122
  122OSM    H1S12917   6.366   5.562  10.636 -0.3327 -0.0443  0.9462
  122OSM    H1T12918   6.436   5.724  10.657  2.1239 -2.2974 -0.1769
  122OSM     NF12919   6.517   5.577  10.427 -0.0112  0.3140  0.0888
  122OSM    HNF12920   6.609   5.614  10.437 -0.0569  0.0836  1.4928
  122OSM    C2S12921   6.403   5.664  10.452 -0.9034  0.6618  0.2910
  122OSM    H2S12922   6.324   5.616  10.390 -0.1983  1.4433 -1.2390
  122OSM    C3S12923   6.424   5.809  10.402 -0.5189  0.5506  0.6337
  122OSM    H3S12924   6.523   5.840  10.443  0.0693  0.7080 -0.8473
  122OSM     O312925   6.319   5.895  10.431 -0.0670 -0.0466  0.4862
  122OSM    HO312926   6.269   5.845  10.496 -1.2775  0.0206 -0.3609
  122OSM    C4S12927   6.429   5.813  10.252  0.4303 -0.3746  0.7193
  122OSM    H4S12928   6.333   5.812  10.200  0.6868  0.8801  0.1998
  122OSM    C5S12929   6.540   5.826  10.168  0.1958 -0.1365  0.3546
  122OSM    H5S12930   6.642   5.831  10.209 -0.2171 -2.3042  1.7652
  122OSM    C6S12931   6.524   5.830  10.017 -0.6802 -0.2075 -0.9369
  122OSM    H6S12932   6.425   5.876   9.998 -1.0587  0.3324  2.1353
  122OSM    H6T12933   6.525   5.729   9.969 -1.9450 -0.5691 -0.2222
  122OSM    C7S12934   6.635   5.894   9.936  0.2687  0.5661 -0.1403
  122OSM    H7S12935   6.723   5.827   9.947 -1.3326 -2.2225 -3.3462
  122OSM    H7T12936   6.657   5.989   9.989 -1.8231  0.5622  0.7790
  122OSM    C8S12937   6.600   5.920   9.786  0.5640 -0.2419 -1.0517
  122OSM    H8S12938   6.498   5.964   9.792  0.5370 -0.6196  2.7138
  122OSM    H8T12939   6.606   5.826   9.729  0.3120 -1.4141  0.8137
  122OSM    C9S12940   6.692   6.026   9.723 -0.6663 -0.7338 -0.7136
  122OSM    H9S12941   6.794   5.982   9.734 -0.2523  0.5024  0.5916
  122OSM    H9T12942   6.694   6.118   9.785  1.7855 -2.2594  1.5868
  122OSM   C10S12943   6.672   6.043   9.568 -0.1093  0.2765 -0.8459
  122OSM   H10S12944   6.607   6.126   9.531  1.0026  0.7651 -1.7244
  122OSM   H10T12945   6.626   5.946   9.539 -2.0316  1.3931 -1.6331
  122OSM   C11S12946   6.810   6.060   9.505  1.0945  0.4017 -0.4798
  122OSM   H11S12947   6.866   5.966   9.521 -2.3946 -2.2862 -3.0511
  122OSM   H11T12948   6.865   6.146   9.548  1.2666 -0.6189  1.3646
  122OSM   C12S12949   6.793   6.075   9.352 -0.7982  0.6059 -0.7790
  122OSM   H12S12950   6.734   6.166   9.328 -0.5209  1.4165  1.4867
  122OSM   H12T12951   6.725   5.996   9.314 -1.7527 -0.3970  2.8117
  122OSM   C13S12952   6.932   6.066   9.278  0.1914 -0.0013  0.1476
  122OSM   H13S12953   6.995   5.977   9.299 -0.1943  0.0229  1.5061
  122OSM   H13T12954   6.984   6.155   9.319  1.0910 -1.0725  1.3987
  122OSM   C14S12955   6.910   6.080   9.127 -0.1689  0.0208  0.2231
  122OSM   H14S12956   6.851   6.171   9.105 -0.8988  0.0662  2.2198
  122OSM   H14T12957   6.843   5.994   9.104  0.8270 -1.2613  1.9542
  122OSM   C15S12958   7.038   6.071   9.050  0.8778  0.9045 -0.6468
  122OSM   H15S12959   7.078   5.968   9.059  0.0535  0.5761 -0.6659
  122OSM   H15T12960   7.113   6.137   9.098  0.8773 -1.4343  2.7590
  122OSM   C16S12961   7.004   6.091   8.901 -0.3457 -0.3197  0.2370
  122OSM   H16S12962   7.096   6.116   8.844 -0.4764 -1.2900 -0.4025
  122OSM   H16T12963   6.937   6.179   8.889 -0.4633 -0.2899  1.0917
  122OSM   C17S12964   6.942   5.962   8.834  0.3408 -0.1862  0.2577
  122OSM   H17S12965   6.837   5.945   8.866 -0.4958  1.1178 -1.6797
  122OSM   H17T12966   7.000   5.868   8.846 -0.0112 -0.3525  0.6540
  122OSM   C18S12967   6.928   5.974   8.686 -0.6649  0.6009 -0.4758
  122OSM   H18S12968   7.028   6.002   8.645  1.0020 -3.5543  0.5276
  122OSM   H18T12969   6.846   6.043   8.658 -1.8012 -0.0202  1.2574
  122OSM   H18U12970   6.895   5.875   8.648  0.2404  0.7985 -1.8001
  122OSM    C1F12971   6.497   5.444  10.427 -0.3832  0.9082 -0.1522
  122OSM     OF12972   6.385   5.400  10.444  0.4593 -0.1135 -0.3257
  122OSM    C2F12973   6.615   5.345  10.414  0.9990  0.2157 -0.1326
  122OSM    H2F12974   6.576   5.253  10.366  1.8691 -0.4943  0.5050
  122OSM    H2G12975   6.639   5.309  10.516  0.2360 -2.3183 -0.8142
  122OSM    C3F12976   6.744   5.408  10.351  0.1947  0.3703 -0.0498
  122OSM    H3F12977   6.821   5.329  10.361  0.6140  1.1023  2.7050
  122OSM    H3G12978   6.780   5.486  10.421 -1.7072  0.9788  0.2615
  122OSM    C4F12979   6.721   5.459  10.207 -0.2364  0.4330  0.3358
  122OSM    H4F12980   6.684   5.564  10.209  2.3305  1.3511  1.6542
  122OSM    H4G12981   6.652   5.388  10.157  1.2862 -0.3171 -0.7472
  122OSM    C5F12982   6.847   5.454  10.120 -0.4763 -0.4788 -0.1563
  122OSM    H5F12983   6.854   5.348  10.087 -0.1144 -0.8834  1.2032
  122OSM    H5G12984   6.942   5.471  10.176 -0.6101 -0.2998  0.0173
  122OSM    C6F12985   6.839   5.557  10.008  0.2824  0.8156 -0.6085
  122OSM    H6F12986   6.863   5.660  10.043 -4.2022  1.5348  0.6491
  122OSM    H6G12987   6.732   5.570   9.981  0.2546  1.4425 -0.2218
  122OSM    C7F12988   6.927   5.513   9.889  0.0488 -0.3720  0.5796
  122OSM    H7F12989   6.912   5.407   9.860 -2.0444 -0.6048  2.3508
  122OSM    H7G12990   7.034   5.535   9.912 -0.1044  1.4251 -0.3293
  122OSM    C8F12991   6.903   5.593   9.752  0.2749 -0.4571  0.4071
  122OSM    H8F12992   6.994   5.575   9.691 -0.0686  0.1763 -0.2983
  122OSM    H8G12993   6.924   5.695   9.790  0.0692 -0.1954 -0.1762
  122OSM    C9F12994   6.773   5.573   9.681 -0.4061 -0.8712 -0.4531
  122OSM    H9F12995   6.681   5.567   9.740 -0.4348 -1.7751 -0.5755
  122OSM   C10F12996   6.755   5.560   9.547  0.0173  0.1106  0.5167
  122OSM   H10F12997   6.652   5.541   9.514  0.9728 -3.2545 -0.8359
  122OSM   C11F12998   6.862   5.573   9.439 -0.5902 -0.7403 -0.2841
  122OSM   H11F12999   6.879   5.483   9.376  1.1132  0.9488 -2.2681
  122OSM   H11G13000   6.961   5.595   9.485 -1.5231 -0.5874  1.7225
  122OSM   C12F13001   6.833   5.682   9.331 -0.5868 -0.7005 -0.4702
  122OSM   H12F13002   6.921   5.704   9.266  0.1073  2.3263  1.3888
  122OSM   H12G13003   6.817   5.783   9.375  0.5966 -0.3406 -0.8547
  122OSM   C13F13004   6.722   5.641   9.242  0.5721  0.8510  0.2114
  122OSM   H13F13005   6.671   5.729   9.198 -1.4945  0.3422  1.5177
  122OSM   H13G13006   6.652   5.587   9.310  0.0339  1.4804  0.1660
  122OSM   C14F13007   6.766   5.534   9.142  0.3745 -0.2650 -0.5444
  122OSM   H14F13008   6.674   5.475   9.127 -0.4762  0.7999  0.3670
  122OSM   H14G13009   6.840   5.459   9.177  0.3626  0.5773  1.3694
  122OSM   C15F13010   6.820   5.599   9.010 -0.3830  1.2171  0.4331
  122OSM   H15F13011   6.899   5.674   9.032  1.4633 -1.0116  1.6487
  122OSM   H15G13012   6.732   5.656   8.973  0.1693  2.4284  0.9643
  122OSM   C16F13013   6.880   5.493   8.901 -0.5458 -0.8841 -0.5264
  122OSM   H16F13014   6.806   5.410   8.900 -0.8409 -0.6592  1.6353
  122OSM   H16G13015   6.973   5.460   8.952 -2.8203 -0.7978  3.8364
  122OSM   C17F13016   6.889   5.543   8.754  0.0214  0.1225  0.0715
  122OSM   H17F13017   6.953   5.633   8.742  2.5704 -1.5728  0.4625
  122OSM   H17G13018   6.786   5.564   8.719 -0.2382  0.1961  0.8525
  122OSM   C18F13019   6.949   5.442   8.658  0.1604 -0.3340  0.2503
  122OSM   H18F13020   7.050   5.417   8.696  0.7033  0.9129 -0.3605
  122OSM   H18G13021   6.952   5.478   8.553  0.0400  2.5088  1.1821
  122OSM   H18H13022   6.892   5.348   8.673 -2.0627  0.8882 -0.3253
  123OSM      N13023   4.112   3.914   6.112 -0.3536 -0.2278  0.3259
  123OSM    C1513024   4.091   3.922   6.256 -0.3368  0.4236 -0.4174
  123OSM   H15A13025   4.084   3.823   6.300 -2.0553  1.0616  0.7839
  123OSM   H15B13026   4.002   3.977   6.282 -1.2733 -0.8919 -0.7823
  123OSM   H15C13027   4.171   3.972   6.309 -1.0438 -0.9640  2.0725
  123OSM    C1413028   3.998   3.842   6.044 -0.0262 -0.0612 -0.4195
  123OSM   H14A13029   3.986   3.745   6.090 -0.3963  0.7875  1.3256
  123OSM   H14B13030   4.028   3.830   5.941  1.4715  2.1842 -0.2899
  123OSM   H14C13031   3.905   3.896   6.050  1.0948  2.1128 -1.5882
  123OSM    C1313032   4.136   4.046   6.056 -0.6818 -0.0551 -0.1798
  123OSM   H13A13033   4.226   4.089   6.098 -1.7799  2.1624 -0.0097
  123OSM   H13B13034   4.054   4.113   6.076 -2.7445 -2.5241 -0.1875
  123OSM   H13C13035   4.148   4.042   5.949 -0.3234 -2.5005 -0.0726
  123OSM    C1213036   4.243   3.831   6.087  0.1548  0.4215 -0.5882
  123OSM   H12A13037   4.254   3.812   5.981  1.7576  0.1438 -0.3976
  123OSM   H12B13038   4.225   3.732   6.127  0.9862  0.5796  0.1951
  123OSM    C1113039   4.376   3.887   6.151 -0.2740  0.2010  0.1302
  123OSM   H11A13040   4.454   3.815   6.120  1.3246  1.4026  1.2980
  123OSM   H11B13041   4.360   3.898   6.261  1.8994  0.9209  0.3916
  123OSM      P13042   4.496   4.119   6.183 -0.1291 -0.4255  0.2591
  123OSM    O1313043   4.579   4.191   6.082 -0.1311  0.5139  0.0396
  123OSM    O1413044   4.414   4.200   6.278  0.2022 -0.5183 -0.0706
  123OSM    O1113045   4.597   4.031   6.270 -0.3048  0.2320  0.2951
  123OSM    O1213046   4.412   4.013   6.097 -0.0997 -0.0289 -0.2544
  123OSM    C1S13047   4.590   4.048   6.412 -0.0930 -0.1237  0.0008
  123OSM    H1S13048   4.487   4.036   6.453  0.1821  0.2354  0.8118
  123OSM    H1T13049   4.629   4.145   6.448  0.8723 -0.9090  1.1009
  123OSM     NF13050   4.650   3.958   6.616  0.1930 -0.6901  0.5206
  123OSM    HNF13051   4.722   4.001   6.670  2.7329 -2.2216 -1.5716
  123OSM    C2S13052   4.664   3.938   6.479 -0.6724 -0.5194  0.1363
  123OSM    H2S13053   4.618   3.841   6.448 -1.9879 -0.2770  1.2816
  123OSM    C3S13054   4.814   3.939   6.438 -0.4882  0.2189 -1.0947
  123OSM    H3S13055   4.849   4.043   6.460 -3.0662  0.8327  0.4383
  123OSM     O313056   4.840   3.929   6.298  0.4796 -0.9035 -0.2672
  123OSM    HO313057   4.753   3.959   6.271  0.4506  0.4155  1.2387
  123OSM    C4S13058   4.901   3.838   6.502 -0.2982  0.1420 -0.9772
  123OSM    H4S13059   4.873   3.731   6.494 -0.4707 -0.2355  3.6265
  123OSM    C5S13060   5.011   3.873   6.582 -0.5263 -0.0060 -0.4875
  123OSM    H5S13061   5.024   3.978   6.609  0.6762 -0.2697  0.0188
  123OSM    C6S13062   5.109   3.782   6.640 -0.4221  0.3451  0.0279
  123OSM    H6S13063   5.213   3.811   6.614 -0.1513  1.2130  2.0016
  123OSM    H6T13064   5.081   3.679   6.611 -0.7733  0.3454  0.3547
  123OSM    C7S13065   5.108   3.786   6.799  0.7151  0.4558  0.1190
  123OSM    H7S13066   5.173   3.700   6.828  0.3990  0.1539 -0.0648
  123OSM    H7T13067   5.002   3.778   6.833 -0.3226  0.0530 -3.0922
  123OSM    C8S13068   5.166   3.917   6.856  0.0668 -0.5018 -0.4098
  123OSM    H8S13069   5.125   4.006   6.804  4.2666  1.5714 -0.3371
  123OSM    H8T13070   5.274   3.933   6.837 -0.2261  0.9912 -0.8803
  123OSM    C9S13071   5.135   3.926   7.011 -0.5127  0.0766 -0.4117
  123OSM    H9S13072   5.155   3.820   7.039 -3.3986 -0.3635  0.1572
  123OSM    H9T13073   5.028   3.948   7.034  0.0847  3.1005 -0.4075
  123OSM   C10S13074   5.237   4.012   7.097  0.1093 -0.2372  0.0669
  123OSM   H10S13075   5.208   4.117   7.076  2.2725  0.3905  0.1572
  123OSM   H10T13076   5.345   3.993   7.081  0.9308  3.4120  0.8845
  123OSM   C11S13077   5.218   3.989   7.244  0.8567  0.1737 -0.2751
  123OSM   H11S13078   5.271   3.894   7.268 -0.1243 -0.9124 -2.3355
  123OSM   H11T13079   5.109   3.983   7.263  0.9155 -0.8534 -0.2415
  123OSM   C12S13080   5.271   4.096   7.335  0.5828 -0.0013  0.6167
  123OSM   H12S13081   5.251   4.199   7.299 -0.6488 -0.2780  0.4847
  123OSM   H12T13082   5.382   4.083   7.334  0.6834  0.8937 -0.4905
  123OSM   C13S13083   5.233   4.071   7.479 -0.2139 -0.2176  0.0165
  123OSM   H13S13084   5.279   3.979   7.521  0.2703  0.5431  1.1836
  123OSM   H13T13085   5.125   4.051   7.492 -0.3867 -0.6529 -1.9897
  123OSM   C14S13086   5.283   4.190   7.558 -0.7379  0.3420  1.0526
  123OSM   H14S13087   5.227   4.283   7.536 -1.1247 -0.0619  0.2984
  123OSM   H14T13088   5.391   4.211   7.550 -0.7267 -0.7671 -2.7778
  123OSM   C15S13089   5.251   4.169   7.711 -0.2522 -0.5084  0.3984
  123OSM   H15S13090   5.282   4.066   7.738 -1.0195 -0.2831  2.2763
  123OSM   H15T13091   5.140   4.171   7.718 -0.4004  0.4264 -1.9522
  123OSM   C16S13092   5.301   4.285   7.808  0.2098  0.3836 -0.7297
  123OSM   H16S13093   5.272   4.385   7.771  0.1598  0.3660 -0.7369
  123OSM   H16T13094   5.412   4.286   7.802  0.1924  0.0076 -1.1285
  123OSM   C17S13095   5.246   4.283   7.952  0.3905  0.0508  0.8048
  123OSM   H17S13096   5.269   4.188   8.004 -0.9267  0.4962  2.2510
  123OSM   H17T13097   5.138   4.290   7.926  0.7546 -2.1376 -1.4448
  123OSM   C18S13098   5.287   4.401   8.046  0.1118 -0.1111  0.0171
  123OSM   H18S13099   5.247   4.495   8.002  2.6807 -1.1004 -4.7490
  123OSM   H18T13100   5.398   4.404   8.039  0.1066  1.6193  0.4363
  123OSM   H18U13101   5.261   4.371   8.149  2.5949 -1.0110  0.4329
  123OSM    C1F13102   4.539   3.923   6.684  0.1012 -0.0576  0.6798
  123OSM     OF13103   4.438   3.878   6.629 -0.0601  0.2517 -0.6002
  123OSM    C2F13104   4.545   3.956   6.832 -0.0083 -0.1624 -0.4073
  123OSM    H2F13105   4.506   4.060   6.836  0.6308  0.1409 -1.7473
  123OSM    H2G13106   4.652   3.964   6.860  0.1930  0.2903 -1.2775
  123OSM    C3F13107   4.478   3.851   6.926  0.8385  0.0490  0.1565
  123OSM    H3F13108   4.523   3.751   6.912 -0.0720 -0.3462  0.0105
  123OSM    H3G13109   4.368   3.851   6.908  1.0783 -1.5945 -1.3964
  123OSM    C4F13110   4.489   3.893   7.077 -0.3326  0.5249  0.2215
  123OSM    H4F13111   4.443   3.993   7.089 -1.0806 -0.1732  3.6204
  123OSM    H4G13112   4.595   3.907   7.109 -0.5718  1.1935  0.7248
  123OSM    C5F13113   4.456   3.771   7.166  0.3870  0.2376 -0.6707
  123OSM    H5F13114   4.507   3.678   7.134 -0.9021 -1.0426  0.9557
  123OSM    H5G13115   4.352   3.742   7.139 -0.5139  1.2739  1.6112
  123OSM    C6F13116   4.457   3.799   7.314  0.2461  0.2315 -0.1812
  123OSM    H6F13117   4.560   3.785   7.353 -0.4510 -2.6460  0.7325
  123OSM    H6G13118   4.398   3.717   7.360  0.6573 -0.2825 -0.5613
  123OSM    C7F13119   4.398   3.932   7.344  0.3598 -0.4392 -0.1712
  123OSM    H7F13120   4.296   3.939   7.302  0.1158 -1.7997  0.1731
  123OSM    H7G13121   4.453   4.014   7.293 -1.0054  1.3988  1.2176
  123OSM    C8F13122   4.395   3.979   7.492 -0.6617  0.5135  0.2279
  123OSM    H8F13123   4.317   3.925   7.550 -1.4695  2.6317  1.1796
  123OSM    H8G13124   4.349   4.080   7.480  0.6861  0.8409 -2.6881
  123OSM    C9F13125   4.525   3.970   7.565  0.3712  1.0708 -0.0787
  123OSM    H9F13126   4.600   3.911   7.511 -0.8886 -1.5326  0.9451
  123OSM   C10F13127   4.550   4.026   7.681  0.8081  0.4496 -0.4380
  123OSM   H10F13128   4.638   4.003   7.744  0.2372 -0.5112  0.0124
  123OSM   C11F13129   4.449   4.116   7.757 -0.2011  0.2239 -0.8050
  123OSM   H11F13130   4.343   4.096   7.733 -0.0314 -0.4340 -1.0017
  123OSM   H11G13131   4.471   4.223   7.737  0.0835  0.3060 -0.0527
  123OSM   C12F13132   4.472   4.110   7.911 -0.6764  0.8634 -0.3742
  123OSM   H12F13133   4.404   4.185   7.956  0.0884  1.4313 -0.1582
  123OSM   H12G13134   4.576   4.137   7.936 -0.6305  0.0782  0.2870
  123OSM   C13F13135   4.429   3.971   7.969  0.8182  0.2659 -0.6166
  123OSM   H13F13136   4.513   3.899   7.955  1.1072 -0.0249  2.2530
  123OSM   H13G13137   4.345   3.939   7.904  0.2668  1.6305 -0.5943
  123OSM   C14F13138   4.397   3.964   8.118 -0.3274 -0.3689  0.0617
  123OSM   H14F13139   4.336   4.050   8.154  1.4409  0.9197  0.0660
  123OSM   H14G13140   4.487   3.967   8.183 -0.0861 -2.4794 -0.1399
  123OSM   C15F13141   4.320   3.834   8.145 -0.3102  0.1066 -0.6427
  123OSM   H15F13142   4.346   3.799   8.247 -1.7360  0.9672  0.0324
  123OSM   H15G13143   4.349   3.752   8.076  2.8343  2.4242 -2.2054
  123OSM   C16F13144   4.166   3.850   8.134  0.7025 -0.0491 -0.2641
  123OSM   H16F13145   4.141   3.866   8.027 -0.2848 -0.9886 -0.1750
  123OSM   H16G13146   4.131   3.941   8.188 -0.7739  0.0322 -1.3262
  123OSM   C17F13147   4.094   3.738   8.199 -0.9840  0.2841  0.1433
  123OSM   H17F13148   4.106   3.739   8.309  0.1245 -0.9415  0.0523
  123OSM   H17G13149   4.129   3.637   8.167 -1.7754 -0.2431  0.9004
  123OSM   C18F13150   3.937   3.749   8.173  0.1302  0.3093  0.2946
  123OSM   H18F13151   3.903   3.654   8.221 -2.5079  0.7964 -0.5762
  123OSM   H18G13152   3.910   3.753   8.066 -0.8309  0.6343  0.5500
  123OSM   H18H13153   3.907   3.839   8.231 -2.0179 -0.1985 -0.0087
  124OSM      N13154   1.045   1.766   5.999 -0.6642 -0.0949  0.1733
  124OSM    C1513155   0.990   1.801   5.860  0.1468 -0.1102  0.0148
  124OSM   H15A13156   1.014   1.905   5.842 -1.8041  0.4007  0.3043
  124OSM   H15B13157   0.885   1.785   5.843  0.5505 -0.2290 -2.5968
  124OSM   H15C13158   1.051   1.751   5.787  2.5323  2.0878  0.4284
  124OSM    C1413159   1.193   1.787   5.987  0.3174 -0.3192 -0.3463
  124OSM   H14A13160   1.215   1.890   5.961  0.2087 -0.3934 -0.7245
  124OSM   H14B13161   1.232   1.716   5.916 -0.3377  1.6441 -2.7416
  124OSM   H14C13162   1.243   1.769   6.082  2.0125 -0.1699 -1.1926
  124OSM    C1313163   0.980   1.860   6.094  0.9268  0.0795 -0.1518
  124OSM   H13A13164   0.946   1.950   6.045  1.3768  0.9541  1.1294
  124OSM   H13B13165   1.050   1.885   6.172  1.2511  1.1375 -0.7780
  124OSM   H13C13166   0.891   1.823   6.143  0.0050  0.1371 -1.7405
  124OSM    C1213167   1.004   1.626   6.034 -0.2142  0.1626  0.4868
  124OSM   H12A13168   1.053   1.562   5.962 -2.2148  0.3157 -1.0493
  124OSM   H12B13169   0.899   1.608   6.015  0.0575 -0.0228 -0.8904
  124OSM    C1113170   1.049   1.589   6.174  0.6639  0.5328 -0.1133
  124OSM   H11A13171   1.014   1.657   6.255  0.5721  0.0162  0.2793
  124OSM   H11B13172   1.160   1.597   6.170  0.6113  0.9407 -0.8715
  124OSM      P13173   0.877   1.413   6.251 -0.0391 -0.1867  0.2188
  124OSM    O1313174   0.770   1.484   6.174  0.3767 -0.4408 -0.6074
  124OSM    O1413175   0.870   1.266   6.260 -0.0074 -0.2993 -0.5334
  124OSM    O1113176   0.856   1.465   6.400  0.7370  0.0301 -0.1343
  124OSM    O1213177   1.024   1.455   6.200 -0.4206  0.7389  0.2440
  124OSM    C1S13178   0.966   1.476   6.486  0.5132 -0.2915  0.3764
  124OSM    H1S13179   1.021   1.572   6.469  0.7750  0.0785  3.1004
  124OSM    H1T13180   1.038   1.392   6.476 -0.8849 -1.4582  0.0678
  124OSM     NF13181   1.017   1.554   6.721  0.1423 -0.1140 -0.5247
  124OSM    HNF13182   1.067   1.494   6.783  0.8283  0.7104 -0.2576
  124OSM    C2S13183   0.919   1.493   6.632  0.0650 -0.3059  0.4354
  124OSM    H2S13184   0.838   1.568   6.635  0.6972  0.4119 -0.1537
  124OSM    C3S13185   0.862   1.357   6.681  0.1773  0.2017 -0.0070
  124OSM    H3S13186   0.946   1.283   6.683 -0.5414 -0.6666 -1.5429
  124OSM     O313187   0.765   1.295   6.591 -0.1779 -0.0121  0.3128
  124OSM    HO313188   0.769   1.358   6.519 -2.1852 -0.6142 -0.3562
  124OSM    C4S13189   0.807   1.362   6.821  0.7246 -0.4526  0.9844
  124OSM    H4S13190   0.746   1.451   6.842 -0.0937 -0.9028  0.5524
  124OSM    C5S13191   0.842   1.285   6.922  0.4084 -0.1817  0.1861
  124OSM    H5S13192   0.905   1.196   6.904  0.6299 -0.5866  2.8021
  124OSM    C6S13193   0.788   1.305   7.062 -0.3078  0.2504  0.7493
  124OSM    H6S13194   0.697   1.367   7.071 -0.1225  0.6651 -0.1669
  124OSM    H6T13195   0.866   1.355   7.123 -0.1443  1.9403 -0.8110
  124OSM    C7S13196   0.764   1.176   7.140 -0.2335  0.2352 -0.2676
  124OSM    H7S13197   0.845   1.103   7.119 -0.1357 -0.4034  2.2320
  124OSM    H7T13198   0.662   1.146   7.109 -0.2912  0.0955  0.0594
  124OSM    C8S13199   0.759   1.186   7.295 -0.1002 -0.2117  0.2120
  124OSM    H8S13200   0.705   1.283   7.302  1.3924  0.7685 -1.4828
  124OSM    H8T13201   0.864   1.184   7.331 -0.0181  0.9653  0.0603
  124OSM    C9S13202   0.685   1.066   7.367 -0.4795 -0.3200  1.3717
  124OSM    H9S13203   0.742   0.971   7.352 -1.2602 -0.3609 -1.7376
  124OSM    H9T13204   0.584   1.041   7.328 -0.2550  0.9319 -0.0666
  124OSM   C10S13205   0.668   1.090   7.519  0.2343  0.0832 -0.2851
  124OSM   H10S13206   0.624   1.189   7.543  0.3129 -0.0421  0.3713
  124OSM   H10T13207   0.771   1.088   7.560  0.0767  0.1597  0.1171
  124OSM   C11S13208   0.594   0.973   7.586 -0.3302 -0.5172 -0.1175
  124OSM   H11S13209   0.641   0.877   7.556  0.2285 -0.2489 -0.1000
  124OSM   H11T13210   0.491   0.960   7.545 -1.4628 -1.4655  2.8242
  124OSM   C12S13211   0.598   0.969   7.743 -0.3362  0.0109  0.4722
  124OSM   H12S13212   0.562   1.067   7.783  1.2597  0.1939  1.5256
  124OSM   H12T13213   0.701   0.957   7.784  0.1170  0.6089 -0.4645
  124OSM   C13S13214   0.512   0.858   7.804  0.3278  0.3464  0.2282
  124OSM   H13S13215   0.524   0.763   7.748 -1.1337  0.4018 -0.1898
  124OSM   H13T13216   0.409   0.891   7.781 -0.8290 -0.9605  3.2217
  124OSM   C14S13217   0.529   0.826   7.946 -0.7754  0.2873 -0.3601
  124OSM   H14S13218   0.634   0.800   7.970 -1.5301 -1.5395  1.0772
  124OSM   H14T13219   0.464   0.738   7.965  1.6226 -1.0692  1.8014
  124OSM   C15S13220   0.477   0.944   8.034  0.5273  0.2478  0.1158
  124OSM   H15S13221   0.402   0.997   7.972  1.2680 -0.7498 -1.6657
  124OSM   H15T13222   0.553   1.025   8.039  1.0359  0.0002 -2.7326
  124OSM   C16S13223   0.396   0.908   8.156  0.3508 -0.8659  0.0522
  124OSM   H16S13224   0.435   0.836   8.232 -1.5392 -0.9661  0.9520
  124OSM   H16T13225   0.311   0.844   8.126 -1.6810 -0.0726  3.7937
  124OSM   C17S13226   0.351   1.032   8.238  0.2772 -0.4528 -0.1870
  124OSM   H17S13227   0.310   1.099   8.159  1.7861 -1.1523 -1.5832
  124OSM   H17T13228   0.443   1.075   8.284  0.3804 -0.6452 -0.2138
  124OSM   C18S13229   0.248   1.021   8.351  0.2840 -0.6194 -0.2539
  124OSM   H18S13230   0.299   0.993   8.446 -1.6853  2.0637  1.6648
  124OSM   H18T13231   0.181   0.934   8.333 -1.9051  0.9211  0.2924
  124OSM   H18U13232   0.189   1.112   8.372 -0.7922 -0.5144 -3.5514
  124OSM    C1F13233   1.044   1.681   6.705  0.0992 -0.1610 -0.4063
  124OSM     OF13234   0.976   1.754   6.628  0.3706  0.1791  0.0041
  124OSM    C2F13235   1.179   1.728   6.766  0.7043  0.3858 -0.6023
  124OSM    H2F13236   1.254   1.736   6.684  1.0588 -2.6939 -0.6572
  124OSM    H2G13237   1.219   1.649   6.833  3.2873 -0.3369 -2.8891
  124OSM    C3F13238   1.159   1.869   6.833 -0.1858  0.9547 -0.4613
  124OSM    H3F13239   1.106   1.944   6.772 -0.2095  3.5110  2.5392
  124OSM    H3G13240   1.256   1.923   6.838  1.1192 -1.4987  3.4324
  124OSM    C4F13241   1.114   1.877   6.983  0.1627  0.0316  0.2138
  124OSM    H4F13242   1.181   1.815   7.046  0.8198 -0.1056 -0.6196
  124OSM    H4G13243   1.015   1.828   6.980  1.1548 -1.9935 -0.7514
  124OSM    C5F13244   1.102   2.026   7.033 -0.1472  0.0028 -0.6228
  124OSM    H5F13245   1.065   2.085   6.946  0.1068  2.1356  0.6900
  124OSM    H5G13246   1.206   2.058   7.052  0.5740 -2.5812 -0.0635
  124OSM    C6F13247   1.019   2.057   7.158  0.2267  0.0055  1.2073
  124OSM    H6F13248   0.928   1.994   7.157 -0.1063  0.5037 -0.4121
  124OSM    H6G13249   0.987   2.164   7.160  2.7991  0.8494 -0.4919
  124OSM    C7F13250   1.112   2.034   7.281  0.0583 -0.6762 -0.3894
  124OSM    H7F13251   1.205   2.095   7.279 -0.6003  0.5343  2.8567
  124OSM    H7G13252   1.158   1.935   7.260  0.2371 -0.4907 -0.8740
  124OSM    C8F13253   1.041   2.047   7.414 -0.2823  0.4804 -0.3118
  124OSM    H8F13254   0.955   1.977   7.411  0.2088 -0.1097 -0.6465
  124OSM    H8G13255   1.011   2.154   7.421 -0.0251  0.5552 -0.3286
  124OSM    C9F13256   1.127   2.024   7.533 -0.0697 -0.7781 -0.0540
  124OSM    H9F13257   1.231   2.056   7.518 -0.2739 -0.4326 -0.7607
  124OSM   C10F13258   1.082   1.985   7.651 -0.8535  0.3423  0.5443
  124OSM   H10F13259   1.158   1.972   7.729  2.0697 -3.7615 -2.7940
  124OSM   C11F13260   0.938   1.957   7.695  0.1070 -0.3818  0.6353
  124OSM   H11F13261   0.874   1.941   7.606  1.4224  1.2402 -0.6329
  124OSM   H11G13262   0.891   2.045   7.743 -3.5576 -2.5179  1.1356
  124OSM   C12F13263   0.909   1.846   7.793  0.4395 -0.3041  0.1171
  124OSM   H12F13264   0.933   1.746   7.751  0.3969  0.3462 -1.4835
  124OSM   H12G13265   0.799   1.842   7.811  0.5500  2.1851  1.5131
  124OSM   C13F13266   0.981   1.868   7.930 -0.1287 -0.3234  0.0504
  124OSM   H13F13267   0.955   1.969   7.968  1.2771  0.2091 -0.3641
  124OSM   H13G13268   1.090   1.876   7.910  0.8037  1.3131  5.1132
  124OSM   C14F13269   0.949   1.767   8.042  0.1488 -0.2913  0.3578
  124OSM   H14F13270   0.981   1.669   8.000 -0.4493 -0.1627 -0.4222
  124OSM   H14G13271   0.841   1.774   8.068  0.1869  1.2434  0.1430
  124OSM   C15F13272   1.027   1.797   8.175  0.8101  0.5052 -0.3034
  124OSM   H15F13273   0.989   1.896   8.206  1.3567  1.2223 -1.8361
  124OSM   H15G13274   1.135   1.813   8.154  1.0844  0.1393  0.8006
  124OSM   C16F13275   1.022   1.678   8.270  0.3591  0.6698 -0.2635
  124OSM   H16F13276   1.060   1.580   8.232 -1.9108 -0.6277  0.7046
  124OSM   H16G13277   0.915   1.654   8.288 -0.0870  2.2438 -0.7815
  124OSM   C17F13278   1.085   1.713   8.403 -0.1561 -0.2896 -0.3373
  124OSM   H17F13279   1.050   1.817   8.423  0.1440 -0.6040  2.0012
  124OSM   H17G13280   1.195   1.718   8.397 -0.2829 -0.3623 -3.8888
  124OSM   C18F13281   1.030   1.622   8.515 -0.3599  0.0205 -1.0259
  124OSM   H18F13282   1.058   1.666   8.614 -0.3183  0.3099 -1.1659
  124OSM   H18G13283   1.074   1.520   8.509  0.0661  0.1410 -0.1101
  124OSM   H18H13284   0.921   1.618   8.499 -0.6567  0.0610  0.8844
  125OSM      N13285   0.307   3.536   5.937 -0.6132  0.2415 -0.0200
  125OSM    C1513286   0.221   3.419   5.937 -0.2578  0.0980  0.3934
  125OSM   H15A13287   0.148   3.440   6.014  1.4552  1.0837  1.7957
  125OSM   H15B13288   0.278   3.334   5.972  1.8355  0.4853 -1.9569
  125OSM   H15C13289   0.186   3.399   5.837  0.0298 -1.4999  0.6017
  125OSM    C1413290   0.398   3.528   5.812  0.8219  0.2248 -0.1048
  125OSM   H14A13291   0.353   3.562   5.720  2.3787 -0.4222 -1.1103
  125OSM   H14B13292   0.413   3.424   5.785  0.8041  0.6083 -1.6533
  125OSM   H14C13293   0.489   3.582   5.834  0.9079 -0.0062  0.1049
  125OSM    C1313294   0.230   3.665   5.912  0.1765  0.1862  0.1506
  125OSM   H13A13295   0.174   3.654   5.821  0.1203  1.5008  0.0202
  125OSM   H13B13296   0.299   3.747   5.897 -0.3149  0.8279  1.3514
  125OSM   H13C13297   0.168   3.693   5.996  1.1908  2.5751  0.1331
  125OSM    C1213298   0.389   3.534   6.069  0.3859  0.3419 -0.0192
  125OSM   H12A13299   0.313   3.532   6.146 -0.3510 -0.9738 -0.7607
  125OSM   H12B13300   0.441   3.627   6.085  1.1801 -0.1346  0.1860
  125OSM    C1113301   0.499   3.429   6.088 -0.7310 -0.0083  0.4632
  125OSM   H11A13302   0.556   3.458   6.179  1.3551  0.2641 -0.8916
  125OSM   H11B13303   0.569   3.440   6.002 -2.5506  0.7418 -0.9358
  125OSM      P13304   0.364   3.230   6.197 -0.1892 -0.1187 -0.0105
  125OSM    O1313305   0.300   3.336   6.278  0.3216  0.3680 -0.5095
  125OSM    O1413306   0.281   3.116   6.146  0.9523  0.2044  0.2319
  125OSM    O1113307   0.479   3.171   6.292 -0.3148 -0.3951  0.0303
  125OSM    O1213308   0.460   3.290   6.089 -0.3398  0.8176  0.2811
  125OSM    C1S13309   0.532   3.224   6.410 -0.9329 -0.7529 -0.2513
  125OSM    H1S13310   0.516   3.334   6.419 -1.8555 -0.8450 -0.7454
  125OSM    H1T13311   0.642   3.214   6.416 -1.0332 -2.5909 -1.2751
  125OSM     NF13312   0.497   3.206   6.657 -0.6699 -0.6245  0.1029
  125OSM    HNF13313   0.556   3.153   6.719 -1.5993 -0.0303  1.5162
  125OSM    C2S13314   0.473   3.143   6.530  0.9331 -0.5101 -0.1794
  125OSM    H2S13315   0.362   3.142   6.519  0.7838 -0.1283  1.2331
  125OSM    C3S13316   0.519   2.996   6.525 -0.2919  0.2385  0.0068
  125OSM    H3S13317   0.628   2.985   6.546 -0.4194 -2.2414 -0.3908
  125OSM     O313318   0.495   2.928   6.403 -0.4576  0.1637 -0.3271
  125OSM    HO313319   0.481   3.000   6.340  0.1397 -0.9120 -1.7175
  125OSM    C4S13320   0.458   2.919   6.637  0.5496  0.3308 -0.2345
  125OSM    H4S13321   0.523   2.928   6.725  1.5684 -1.4502 -0.7936
  125OSM    C5S13322   0.350   2.830   6.646  0.1764 -0.1410  0.3297
  125OSM    H5S13323   0.301   2.798   6.552 -1.0562  2.6347 -0.0336
  125OSM    C6S13324   0.308   2.750   6.770  0.1647 -0.4332 -0.0342
  125OSM    H6S13325   0.289   2.644   6.741  2.3957 -1.3877  1.8506
  125OSM    H6T13326   0.206   2.787   6.796  0.3510  0.5975 -0.7456
  125OSM    C7S13327   0.387   2.756   6.898 -0.2262  0.1276 -0.7019
  125OSM    H7S13328   0.396   2.859   6.940  1.1581  0.6489 -2.2352
  125OSM    H7T13329   0.490   2.716   6.882  0.9344  0.3725  4.9628
  125OSM    C8S13330   0.323   2.680   7.014 -1.1668 -0.2667 -0.6504
  125OSM    H8S13331   0.323   2.569   7.005  3.4395 -0.7339  3.1193
  125OSM    H8T13332   0.214   2.702   7.020 -0.9783  0.6898 -0.8296
  125OSM    C9S13333   0.387   2.714   7.148  0.3533 -0.0250  0.0669
  125OSM    H9S13334   0.390   2.823   7.170  2.3286  0.2469 -1.4592
  125OSM    H9T13335   0.494   2.688   7.136  0.8767  1.9796  0.2872
  125OSM   C10S13336   0.325   2.642   7.264  0.1194 -0.5638  0.2962
  125OSM   H10S13337   0.343   2.533   7.258 -0.0642 -0.5924  0.2620
  125OSM   H10T13338   0.216   2.667   7.258 -0.0192 -1.5553 -1.4040
  125OSM   C11S13339   0.391   2.688   7.398  0.5786 -0.5915  0.1833
  125OSM   H11S13340   0.370   2.797   7.412  0.5720 -0.8574  2.4280
  125OSM   H11T13341   0.500   2.666   7.399  0.8120  0.5045  0.9311
  125OSM   C12S13342   0.322   2.595   7.503  0.3144 -0.3555  0.4544
  125OSM   H12S13343   0.327   2.492   7.462  0.1969 -0.5353  0.8876
  125OSM   H12T13344   0.217   2.632   7.510 -0.4473 -2.6901  1.9721
  125OSM   C13S13345   0.395   2.599   7.637  0.5575  0.6068 -0.5615
  125OSM   H13S13346   0.355   2.685   7.694  2.4109 -0.1613  1.9944
  125OSM   H13T13347   0.506   2.595   7.637  0.5300 -0.5780 -0.2122
  125OSM   C14S13348   0.364   2.465   7.715  0.4176  0.0630 -0.0748
  125OSM   H14S13349   0.408   2.459   7.817  0.7018 -1.5045 -0.2799
  125OSM   H14T13350   0.408   2.374   7.670  1.1211  1.1319 -1.5599
  125OSM   C15S13351   0.209   2.446   7.727  0.2846 -0.6203  0.2574
  125OSM   H15S13352   0.170   2.408   7.631  0.9581  0.0416 -0.2910
  125OSM   H15T13353   0.155   2.541   7.748 -0.2953 -1.4427  2.6204
  125OSM   C16S13354   0.162   2.348   7.835  0.6726 -0.2955 -0.5196
  125OSM   H16S13355   0.182   2.400   7.930 -0.5144  0.3808 -0.6355
  125OSM   H16T13356   0.217   2.251   7.824 -0.8446 -1.5368  2.5181
  125OSM   C17S13357   0.009   2.330   7.822  0.9169  0.1326  0.0269
  125OSM   H17S13358  -0.025   2.295   7.722  0.8810 -3.0108  1.0979
  125OSM   H17T13359  -0.032   2.433   7.828 -0.6717 -0.5545  1.3495
  125OSM   C18S13360  -0.064   2.253   7.928  0.0201  0.5518  0.2918
  125OSM   H18S13361  -0.063   2.143   7.910 -0.1358  0.3279  1.6092
  125OSM   H18T13362  -0.172   2.279   7.931  0.0668  1.0084 -1.4571
  125OSM   H18U13363  -0.025   2.273   8.030  0.6683 -1.6108  0.5070
  125OSM    C1F13364   0.439   3.325   6.680  0.5031  0.4568 -0.2105
  125OSM     OF13365   0.337   3.362   6.626 -0.0640 -0.3033 -0.6049
  125OSM    C2F13366   0.517   3.405   6.777 -0.3903  0.9115  0.5267
  125OSM    H2F13367   0.583   3.468   6.714 -0.3704  0.5871  0.2225
  125OSM    H2G13368   0.580   3.329   6.830 -0.0888 -0.3013 -1.5165
  125OSM    C3F13369   0.426   3.491   6.866  0.8022 -0.5062  0.0409
  125OSM    H3F13370   0.348   3.434   6.921 -0.3651  2.1417  1.2390
  125OSM    H3G13371   0.371   3.564   6.804 -0.2937 -0.4957  1.0093
  125OSM    C4F13372   0.500   3.581   6.965  0.5224 -1.2897  0.1738
  125OSM    H4F13373   0.580   3.639   6.913 -0.7745 -0.2638 -0.7309
  125OSM    H4G13374   0.557   3.519   7.037  1.2819 -0.4023  0.3492
  125OSM    C5F13375   0.400   3.669   7.042  0.1415 -0.0826  0.8103
  125OSM    H5F13376   0.333   3.713   6.966 -0.3633 -1.0241  0.7064
  125OSM    H5G13377   0.454   3.754   7.089  0.5331  0.9900 -1.5243
  125OSM    C6F13378   0.306   3.601   7.144  0.1076  0.3877 -0.7282
  125OSM    H6F13379   0.372   3.529   7.196 -1.5701  0.9247  2.2210
  125OSM    H6G13380   0.229   3.542   7.087 -2.9098  3.6440 -0.1910
  125OSM    C7F13381   0.237   3.694   7.246  0.4732 -0.2174 -0.5666
  125OSM    H7F13382   0.173   3.755   7.179 -1.7376 -0.9269  0.8458
  125OSM    H7G13383   0.311   3.767   7.284  0.2297  0.5124 -1.4700
  125OSM    C8F13384   0.148   3.633   7.359 -0.4720 -0.3801  0.4464
  125OSM    H8F13385   0.061   3.618   7.292 -0.3710 -1.9441  0.6431
  125OSM    H8G13386   0.136   3.718   7.430  0.9493  0.3260 -0.1302
  125OSM    C9F13387   0.208   3.508   7.414 -0.2075 -0.0394 -0.4663
  125OSM    H9F13388   0.214   3.425   7.342 -1.8513 -1.6439  1.2058
  125OSM   C10F13389   0.248   3.499   7.545 -0.4380  0.3000  0.0580
  125OSM   H10F13390   0.295   3.403   7.572  3.2252  2.1009  0.3732
  125OSM   C11F13391   0.254   3.605   7.653 -0.8979  0.8045 -0.1914
  125OSM   H11F13392   0.199   3.700   7.637 -1.2922  0.1596 -3.0146
  125OSM   H11G13393   0.356   3.645   7.672 -1.3953  0.9203  2.3992
  125OSM   C12F13394   0.200   3.552   7.787  0.2272  0.2525  0.8254
  125OSM   H12F13395   0.093   3.523   7.777  0.0428  1.4259 -0.6355
  125OSM   H12G13396   0.210   3.635   7.860  2.3959 -0.4526  1.3845
  125OSM   C13F13397   0.288   3.443   7.848 -0.5248 -0.2500 -0.6625
  125OSM   H13F13398   0.396   3.466   7.832 -0.6321  2.1310  1.7110
  125OSM   H13G13399   0.260   3.346   7.803  1.7945 -1.9277  1.3467
  125OSM   C14F13400   0.277   3.431   8.005 -0.4797 -0.7220 -0.3245
  125OSM   H14F13401   0.167   3.433   8.026 -0.7141 -0.2542 -1.5552
  125OSM   H14G13402   0.338   3.517   8.040  0.9357 -1.6080 -0.6049
  125OSM   C15F13403   0.329   3.302   8.066  1.1201 -0.1567  0.1859
  125OSM   H15F13404   0.439   3.315   8.073  0.9225  0.4002  2.6360
  125OSM   H15G13405   0.293   3.205   8.025 -0.0146  0.8804 -1.3389
  125OSM   C16F13406   0.291   3.304   8.213  0.7576 -0.4647 -0.1281
  125OSM   H16F13407   0.183   3.283   8.226  0.1798  2.5479  0.3197
  125OSM   H16G13408   0.317   3.407   8.248  1.1512 -0.4026 -0.5953
  125OSM   C17F13409   0.360   3.201   8.298  0.8878 -0.3341  0.1588
  125OSM   H17F13410   0.466   3.234   8.298  1.4029 -1.9591 -0.5288
  125OSM   H17G13411   0.353   3.104   8.245 -1.0145 -0.8338  1.2850
  125OSM   C18F13412   0.299   3.194   8.443 -0.7455  0.3132 -0.3640
  125OSM   H18F13413   0.353   3.114   8.499 -1.8020 -1.6537 -2.1121
  125OSM   H18G13414   0.192   3.169   8.453 -0.8494  1.3838  1.4276
  125OSM   H18H13415   0.317   3.286   8.503  0.9245 -0.2343  0.0034
  126OSM      N13416   5.247   2.576   6.537  0.0308  0.2856 -0.0398
  126OSM    C1513417   5.276   2.634   6.677  0.3861  0.2971 -0.6828
  126OSM   H15A13418   5.184   2.674   6.718  0.8077 -1.2175  1.9034
  126OSM   H15B13419   5.340   2.721   6.675  0.2549  0.3837 -1.0986
  126OSM   H15C13420   5.325   2.560   6.739  1.4869  1.5131 -0.0837
  126OSM    C1413421   5.217   2.684   6.440 -0.2532  0.2157 -0.7683
  126OSM   H14A13422   5.302   2.751   6.442 -0.7112  0.7655  1.1975
  126OSM   H14B13423   5.127   2.738   6.466  0.0255 -0.3815  1.5608
  126OSM   H14C13424   5.215   2.646   6.339  2.1026 -0.1158 -0.6981
  126OSM    C1313425   5.372   2.514   6.492 -0.7987 -0.1075  0.5938
  126OSM   H13A13426   5.356   2.489   6.388  3.2741 -0.9965  0.0752
  126OSM   H13B13427   5.409   2.425   6.540 -0.4453 -0.4033 -0.2048
  126OSM   H13C13428   5.457   2.581   6.498  0.3788 -1.4829 -0.2342
  126OSM    C1213429   5.137   2.470   6.540 -0.1195 -0.0487 -0.1865
  126OSM   H12A13430   5.184   2.393   6.599  2.6568  1.7385  0.0064
  126OSM   H12B13431   5.124   2.430   6.440 -1.4441 -0.2259  0.0541
  126OSM    C1113432   5.002   2.513   6.595 -0.3027  0.8353 -0.0551
  126OSM   H11A13433   5.012   2.505   6.705 -1.1368 -1.0000 -0.1015
  126OSM   H11B13434   4.935   2.431   6.562  1.1917 -0.7404  0.7160
  126OSM      P13435   4.907   2.746   6.647  0.1960  0.2522 -0.1772
  126OSM    O1313436   4.914   2.877   6.587 -0.0481  0.0505 -0.0495
  126OSM    O1413437   4.778   2.696   6.695 -0.9009 -0.3342  0.1477
  126OSM    O1113438   5.008   2.739   6.761  0.3816  0.8836 -0.4237
  126OSM    O1213439   4.951   2.631   6.547  0.2797  0.5490  0.0871
  126OSM    C1S13440   5.028   2.833   6.868 -0.5038 -0.5186  0.6908
  126OSM    H1S13441   4.970   2.927   6.856 -0.0439 -0.3267 -0.0649
  126OSM    H1T13442   5.134   2.866   6.875 -1.2175  2.1869 -0.6959
  126OSM     NF13443   4.963   2.872   7.103 -0.7956 -0.7501 -0.8676
  126OSM    HNF13444   5.043   2.901   7.155 -0.9605 -0.2880 -0.8744
  126OSM    C2S13445   4.987   2.770   7.003  0.2827  0.0662 -0.2544
  126OSM    H2S13446   4.890   2.716   6.990 -0.4104  1.3608 -0.5743
  126OSM    C3S13447   5.091   2.659   7.043  1.4601  0.1520  0.4469
  126OSM    H3S13448   5.185   2.717   7.059  0.7479  2.6420 -3.6314
  126OSM     O313449   5.119   2.570   6.931  0.1177  0.7420 -0.2644
  126OSM    HO313450   5.076   2.619   6.861 -0.6209  0.1056 -0.2667
  126OSM    C4S13451   5.065   2.574   7.173 -0.5463 -0.0939  0.0060
  126OSM    H4S13452   5.105   2.622   7.263 -0.4329 -0.4228  0.1339
  126OSM    C5S13453   4.996   2.454   7.174 -0.8799  0.5446  0.3759
  126OSM    H5S13454   4.946   2.411   7.087  0.2149  0.4361 -0.1987
  126OSM    C6S13455   4.983   2.374   7.297  0.0185  0.2544  0.5366
  126OSM    H6S13456   4.990   2.266   7.269  0.2051  0.1351  1.0311
  126OSM    H6T13457   4.878   2.380   7.333  0.4383  2.2917  1.5051
  126OSM    C7S13458   5.081   2.399   7.419 -0.3347  0.2986 -0.1630
  126OSM    H7S13459   5.029   2.478   7.478 -2.5476  0.9005 -2.8483
  126OSM    H7T13460   5.174   2.446   7.381 -2.4733  1.7174 -3.8476
  126OSM    C8S13461   5.105   2.282   7.513 -0.8449  0.3006 -0.0678
  126OSM    H8S13462   5.190   2.219   7.481 -1.9864 -1.1816 -0.2139
  126OSM    H8T13463   5.013   2.221   7.524 -0.1857 -0.6613  0.2153
  126OSM    C9S13464   5.131   2.312   7.661 -0.3767 -0.0792 -0.2156
  126OSM    H9S13465   5.147   2.220   7.720  0.2827  0.0862 -0.1265
  126OSM    H9T13466   5.041   2.356   7.708  1.0879 -0.0956  2.6895
  126OSM   C10S13467   5.267   2.395   7.691 -0.1045 -0.2234  0.8124
  126OSM   H10S13468   5.244   2.499   7.660  1.4184  0.6065  2.3454
  126OSM   H10T13469   5.349   2.349   7.631 -0.0502  1.9957 -0.8640
  126OSM   C11S13470   5.311   2.399   7.837  0.8846  0.0357 -0.0472
  126OSM   H11S13471   5.248   2.472   7.893  2.9415  0.9108  1.1838
  126OSM   H11T13472   5.411   2.445   7.842  1.0952 -0.5502  1.9314
  126OSM   C12S13473   5.310   2.271   7.914  0.9032 -0.4885 -0.1449
  126OSM   H12S13474   5.364   2.195   7.854  1.7489 -0.9200  1.1482
  126OSM   H12T13475   5.211   2.223   7.927  0.1112  1.5348  1.7110
  126OSM   C13S13476   5.383   2.285   8.046 -0.1373  0.1677 -0.2682
  126OSM   H13S13477   5.338   2.365   8.109  0.1798  1.0907 -1.1988
  126OSM   H13T13478   5.486   2.319   8.022  0.0518 -0.8038 -0.8569
  126OSM   C14S13479   5.380   2.148   8.111  0.0815 -0.4870 -0.2820
  126OSM   H14S13480   5.428   2.075   8.042 -1.8005 -2.8972  0.8946
  126OSM   H14T13481   5.275   2.115   8.125 -0.4243  1.1384 -0.1021
  126OSM   C15S13482   5.455   2.139   8.242  0.7980 -0.4585 -0.5046
  126OSM   H15S13483   5.548   2.194   8.218 -0.2149  2.1494  1.3319
  126OSM   H15T13484   5.480   2.036   8.276  0.8396 -0.1845  0.3237
  126OSM   C16S13485   5.382   2.228   8.357  0.2709 -0.4141 -0.7365
  126OSM   H16S13486   5.273   2.210   8.366  0.7106 -2.1558  1.4892
  126OSM   H16T13487   5.405   2.333   8.329  1.1304  0.0411  1.6011
  126OSM   C17S13488   5.425   2.190   8.501 -0.4702 -0.0117 -0.1632
  126OSM   H17S13489   5.535   2.201   8.502 -0.4323 -0.0790 -1.7299
  126OSM   H17T13490   5.402   2.081   8.512  0.6311 -0.3674 -1.2956
  126OSM   C18S13491   5.365   2.272   8.615  0.0506 -1.0139 -0.4428
  126OSM   H18S13492   5.415   2.252   8.712  1.1310  1.9650 -0.3207
  126OSM   H18T13493   5.258   2.244   8.625 -0.8613  2.6993  1.0003
  126OSM   H18U13494   5.369   2.382   8.594  1.3201 -0.6059  1.7963
  126OSM    C1F13495   4.858   2.961   7.091 -0.3740  0.4176  0.0825
  126OSM     OF13496   4.765   2.939   7.013 -0.2157  0.4949 -0.6854
  126OSM    C2F13497   4.868   3.091   7.171  0.1871  0.2515  0.8210
  126OSM    H2F13498   4.820   3.177   7.121  2.5121  1.3818  0.4720
  126OSM    H2G13499   4.976   3.118   7.170  0.2151  0.1084 -1.8131
  126OSM    C3F13500   4.823   3.085   7.320 -0.1216 -0.5632 -0.3349
  126OSM    H3F13501   4.889   3.020   7.381  0.1602 -0.4799 -0.5512
  126OSM    H3G13502   4.717   3.061   7.343  0.9136 -3.0277  2.2409
  126OSM    C4F13503   4.846   3.225   7.381 -0.6261  1.3527 -0.0621
  126OSM    H4F13504   4.792   3.305   7.326 -0.5072  1.6591  0.2622
  126OSM    H4G13505   4.953   3.247   7.361 -0.0554 -0.2724  1.1425
  126OSM    C5F13506   4.824   3.223   7.528  0.0638 -0.3352 -0.6577
  126OSM    H5F13507   4.898   3.169   7.591 -0.5497  0.4977  0.8276
  126OSM    H5G13508   4.730   3.163   7.539  0.0043  0.0587  1.1613
  126OSM    C6F13509   4.785   3.362   7.591  0.4964  1.0534  0.4108
  126OSM    H6F13510   4.727   3.415   7.513  0.7411  1.0054  0.1924
  126OSM    H6G13511   4.883   3.412   7.609  0.5610  1.4459 -1.0049
  126OSM    C7F13512   4.717   3.335   7.723  0.4466 -0.0667  0.3774
  126OSM    H7F13513   4.779   3.265   7.784  1.3586  1.9307  1.7917
  126OSM    H7G13514   4.621   3.282   7.704  1.5880 -2.5408  1.2719
  126OSM    C8F13515   4.686   3.465   7.811  0.8031 -0.0757  0.3069
  126OSM    H8F13516   4.606   3.440   7.884 -2.5743 -2.8670 -4.0438
  126OSM    H8G13517   4.638   3.540   7.744  0.6935 -0.3628  0.0637
  126OSM    C9F13518   4.797   3.525   7.895 -0.0157  0.2059 -0.2901
  126OSM    H9F13519   4.888   3.468   7.871  1.8372  1.1257  4.2088
  126OSM   C10F13520   4.794   3.617   7.991  0.4579 -0.3073 -0.8413
  126OSM   H10F13521   4.892   3.636   8.040  1.4304 -1.2362 -2.3920
  126OSM   C11F13522   4.674   3.682   8.042 -0.1522 -0.3196 -0.5929
  126OSM   H11F13523   4.580   3.651   7.991  0.4558 -0.9949 -1.3244
  126OSM   H11G13524   4.679   3.792   8.036 -2.6360  0.0638  2.7844
  126OSM   C12F13525   4.662   3.656   8.199 -0.0630  0.0587  0.0259
  126OSM   H12F13526   4.588   3.732   8.232 -0.5129  0.1935 -1.2722
  126OSM   H12G13527   4.755   3.682   8.253  0.7167  0.5493 -1.5456
  126OSM   C13F13528   4.611   3.514   8.237  0.0403 -0.9331  0.2008
  126OSM   H13F13529   4.671   3.442   8.178  0.1573  0.2061 -1.1031
  126OSM   H13G13530   4.500   3.517   8.225 -0.2145  1.5228  2.4785
  126OSM   C14F13531   4.630   3.487   8.390 -0.4202  0.0243 -0.0262
  126OSM   H14F13532   4.563   3.565   8.434 -1.4340 -1.0398  0.3629
  126OSM   H14G13533   4.733   3.511   8.422 -0.0886 -1.0677 -0.2787
  126OSM   C15F13534   4.589   3.348   8.427 -0.0240 -0.4778  0.0771
  126OSM   H15F13535   4.669   3.281   8.389  0.9023 -0.0377  1.2215
  126OSM   H15G13536   4.498   3.317   8.371 -0.4302 -1.0849  1.0683
  126OSM   C16F13537   4.567   3.327   8.577 -0.7524 -0.1447 -0.0139
  126OSM   H16F13538   4.558   3.218   8.593  0.5362 -0.5248 -1.6993
  126OSM   H16G13539   4.472   3.371   8.615 -1.2098  1.1966 -2.5725
  126OSM   C17F13540   4.682   3.391   8.665 -0.1274  0.0139  0.1954
  126OSM   H17F13541   4.694   3.499   8.642  1.3643  0.1010  1.3579
  126OSM   H17G13542   4.776   3.337   8.644  0.1713 -0.3867  2.4304
  126OSM   C18F13543   4.657   3.376   8.818  0.2133  0.1412  0.0443
  126OSM   H18F13544   4.750   3.401   8.873  0.1857 -0.1807  0.2365
  126OSM   H18G13545   4.625   3.272   8.840  0.4390  0.1126  0.2279
  126OSM   H18H13546   4.574   3.446   8.843 -2.1351 -2.1516 -1.1440
  127OSM      N13547   5.793   0.749   6.119 -0.1305 -0.8587 -0.0154
  127OSM    C1513548   5.691   0.743   6.002 -0.4400  0.3644  0.1045
  127OSM   H15A13549   5.701   0.826   5.933 -0.5758  1.4602  1.3589
  127OSM   H15B13550   5.596   0.750   6.052 -0.9979 -0.1132 -0.8754
  127OSM   H15C13551   5.715   0.652   5.949  0.6464  1.4623 -1.3283
  127OSM    C1413552   5.765   0.640   6.217 -0.0560  0.1326  0.0236
  127OSM   H14A13553   5.770   0.545   6.166 -0.4913  0.9538 -1.5786
  127OSM   H14B13554   5.666   0.636   6.260  0.4593  1.8118  1.4336
  127OSM   H14C13555   5.826   0.639   6.307 -2.8767  1.0733  2.0040
  127OSM    C1313556   5.924   0.715   6.058 -0.6491  0.2044 -0.3229
  127OSM   H13A13557   5.920   0.630   5.991 -0.6461 -0.3407  0.3701
  127OSM   H13B13558   5.997   0.689   6.133 -0.7012 -0.0068 -0.3468
  127OSM   H13C13559   5.964   0.789   5.990 -1.0186 -1.3506 -2.2917
  127OSM    C1213560   5.793   0.883   6.181 -0.2911 -0.2692 -0.6066
  127OSM   H12A13561   5.864   0.882   6.262 -0.8263  1.6349 -0.0884
  127OSM   H12B13562   5.695   0.908   6.221 -0.2753 -0.3434 -0.5220
  127OSM    C1113563   5.817   1.000   6.087  0.6187  1.4277  0.1368
  127OSM   H11A13564   5.718   1.024   6.043 -0.3018 -0.7264  0.9940
  127OSM   H11B13565   5.886   0.977   6.002 -1.4749 -0.6176 -1.0633
  127OSM      P13566   6.000   1.112   6.237 -0.5876 -0.3141  0.2867
  127OSM    O1313567   6.086   1.060   6.131 -0.4633  0.1139  0.0335
  127OSM    O1413568   6.037   1.246   6.285 -0.0918 -0.9713  0.4354
  127OSM    O1113569   5.990   1.017   6.359  0.3960  0.4705 -0.5973
  127OSM    O1213570   5.855   1.109   6.170  0.1150  0.1920  0.1417
  127OSM    C1S13571   6.001   1.063   6.495 -0.6714  0.1780 -0.1357
  127OSM    H1S13572   5.928   1.145   6.512 -1.0461 -0.0193 -0.7682
  127OSM    H1T13573   6.106   1.097   6.509 -0.6219 -0.1376  0.2666
  127OSM     NF13574   5.999   0.996   6.717 -0.4508  0.7410  0.1341
  127OSM    HNF13575   6.088   0.996   6.763 -1.7830 -0.6115  2.8500
  127OSM    C2S13576   6.004   0.938   6.585 -0.7495 -0.0472  0.3824
  127OSM    H2S13577   5.904   0.893   6.569 -1.8561  3.2107 -2.5495
  127OSM    C3S13578   6.113   0.836   6.546  0.3480 -0.6768 -0.1077
  127OSM    H3S13579   6.214   0.878   6.561 -0.2833  0.2696  1.5093
  127OSM     O313580   6.109   0.800   6.405 -0.1315  0.8063  0.4969
  127OSM    HO313581   6.068   0.877   6.364 -0.2934  0.6158  0.2986
  127OSM    C4S13582   6.089   0.710   6.630  0.6641 -0.4768  0.4089
  127OSM    H4S13583   6.022   0.638   6.581  0.3377  0.4003 -0.4606
  127OSM    C5S13584   6.148   0.670   6.745 -0.2403 -0.1467 -0.7205
  127OSM    H5S13585   6.215   0.739   6.798  0.3453 -1.5437  0.3860
  127OSM    C6S13586   6.116   0.541   6.808 -0.2742 -0.1980 -0.2574
  127OSM    H6S13587   6.030   0.489   6.762 -0.3870 -1.0386  0.8615
  127OSM    H6T13588   6.091   0.556   6.916  1.1859 -2.1707  0.3970
  127OSM    C7S13589   6.236   0.446   6.795  0.0787 -0.8045 -0.0488
  127OSM    H7S13590   6.335   0.496   6.793 -0.5358  0.4575  0.5174
  127OSM    H7T13591   6.230   0.401   6.694  1.4792 -1.0762 -0.0309
  127OSM    C8S13592   6.259   0.321   6.885 -0.0145  0.3892 -0.4219
  127OSM    H8S13593   6.342   0.260   6.843  1.9828  2.0913  0.8765
  127OSM    H8T13594   6.166   0.263   6.871 -1.1864  1.7298  1.5791
  127OSM    C9S13595   6.290   0.356   7.033  0.9017  1.1809  0.7987
  127OSM    H9S13596   6.205   0.418   7.069 -1.1347  0.4666 -2.5735
  127OSM    H9T13597   6.385   0.412   7.047  1.6758  0.0151  0.2333
  127OSM   C10S13598   6.296   0.230   7.122  0.1969  0.0074 -0.3125
  127OSM   H10S13599   6.360   0.165   7.058  2.1642 -1.0292  2.6181
  127OSM   H10T13600   6.194   0.186   7.129 -0.5038  1.3057 -1.8704
  127OSM   C11S13601   6.354   0.249   7.265 -0.2607 -0.4280 -0.2522
  127OSM   H11S13602   6.326   0.347   7.310  0.5134 -0.7471  0.9528
  127OSM   H11T13603   6.462   0.272   7.249 -0.5163  1.0655  0.1199
  127OSM   C12S13604   6.321   0.136   7.361  0.4459 -0.2206  0.2065
  127OSM   H12S13605   6.375   0.045   7.329 -1.4212 -1.2924  0.0664
  127OSM   H12T13606   6.210   0.133   7.351  0.2855  0.4512  1.7131
  127OSM   C13S13607   6.354   0.186   7.509  0.3254 -0.2778 -1.0083
  127OSM   H13S13608   6.293   0.127   7.581 -1.9168  0.5960 -2.1359
  127OSM   H13T13609   6.322   0.291   7.525  0.7295 -0.4283  0.9414
  127OSM   C14S13610   6.501   0.168   7.539  0.3024  0.4152 -0.3925
  127OSM   H14S13611   6.561   0.243   7.484  0.2895  0.5205 -0.2636
  127OSM   H14T13612   6.516   0.066   7.498  0.7349  0.1024  0.5201
  127OSM   C15S13613   6.549   0.174   7.681  0.4784  0.2819 -0.0358
  127OSM   H15S13614   6.472   0.109   7.726 -0.5023  2.2054  1.1327
  127OSM   H15T13615   6.530   0.270   7.732  0.4716  0.7423 -0.8864
  127OSM   C16S13616   6.685   0.106   7.708 -0.1099  0.4880 -0.6116
  127OSM   H16S13617   6.768   0.180   7.701 -1.0277  1.8992  2.5192
  127OSM   H16T13618   6.697   0.014   7.647  0.9365  0.2861 -0.1192
  127OSM   C17S13619   6.699   0.051   7.854  0.6757  0.2015 -0.5381
  127OSM   H17S13620   6.623  -0.028   7.869  1.0703 -0.2070 -0.6839
  127OSM   H17T13621   6.677   0.134   7.925  0.6971 -1.1193  1.0455
  127OSM   C18S13622   6.838  -0.017   7.886  0.1065 -0.2742 -0.0223
  127OSM   H18S13623   6.914   0.064   7.896 -0.3096  0.4495 -2.5325
  127OSM   H18T13624   6.867  -0.092   7.811  0.7188 -1.6610  1.5749
  127OSM   H18U13625   6.837  -0.069   7.984 -1.4043 -0.0959  0.0625
  127OSM    C1F13626   5.893   1.050   6.776  0.4166 -0.0425  0.1370
  127OSM     OF13627   5.782   1.027   6.731 -0.5813 -0.5984 -0.4519
  127OSM    C2F13628   5.922   1.131   6.901  0.3588 -0.3562 -0.0799
  127OSM    H2F13629   5.929   1.237   6.872 -1.9135 -0.7735 -2.3673
  127OSM    H2G13630   6.016   1.097   6.948  0.6964 -0.5198 -0.8767
  127OSM    C3F13631   5.809   1.123   7.009  0.2053 -0.0588 -0.4068
  127OSM    H3F13632   5.799   1.028   7.065 -0.6795 -1.8123 -3.4044
  127OSM    H3G13633   5.708   1.146   6.968 -0.6155 -2.0624  0.4468
  127OSM    C4F13634   5.839   1.243   7.101 -0.7430 -0.3345 -0.3426
  127OSM    H4F13635   5.855   1.340   7.050 -0.1477  1.0702  2.4224
  127OSM    H4G13636   5.935   1.215   7.152 -0.3035  0.0560 -0.9557
  127OSM    C5F13637   5.720   1.258   7.199 -0.1142 -0.7694 -0.0819
  127OSM    H5F13638   5.678   1.161   7.231 -2.9480  0.4046 -0.0970
  127OSM    H5G13639   5.637   1.314   7.151 -0.0149  1.1731  1.9183
  127OSM    C6F13640   5.767   1.326   7.331  0.2879  0.2193 -0.1091
  127OSM    H6F13641   5.831   1.414   7.309  2.4602 -1.4495 -0.5650
  127OSM    H6G13642   5.820   1.253   7.396 -0.7671 -0.4992 -0.0348
  127OSM    C7F13643   5.641   1.364   7.404  0.1830 -0.9033  0.0913
  127OSM    H7F13644   5.555   1.363   7.334 -0.3568 -3.9027  0.7370
  127OSM    H7G13645   5.656   1.469   7.439  1.7809 -1.0204 -0.1965
  127OSM    C8F13646   5.607   1.264   7.518 -0.3450 -0.2153  0.4303
  127OSM    H8F13647   5.608   1.160   7.476 -2.1500  0.1931 -0.7080
  127OSM    H8G13648   5.501   1.275   7.550  0.2679  2.5507  1.5674
  127OSM    C9F13649   5.703   1.288   7.628  0.2475 -0.5637 -0.1756
  127OSM    H9F13650   5.809   1.266   7.609  0.4536 -1.7203  2.1180
  127OSM   C10F13651   5.674   1.328   7.752 -0.6094 -0.1941  0.7375
  127OSM   H10F13652   5.762   1.338   7.818  0.4075  0.2387 -0.6614
  127OSM   C11F13653   5.544   1.370   7.810 -0.5106  0.5618 -0.3960
  127OSM   H11F13654   5.457   1.398   7.747 -0.9851  1.7675  0.7644
  127OSM   H11G13655   5.559   1.453   7.882 -1.7064 -0.9623  1.6802
  127OSM   C12F13656   5.496   1.251   7.903 -0.3168  0.0450 -0.3087
  127OSM   H12F13657   5.482   1.164   7.835  0.1558 -1.0925  1.0336
  127OSM   H12G13658   5.409   1.280   7.966  0.0673 -0.8245  0.6446
  127OSM   C13F13659   5.596   1.205   8.008  0.2799  0.2144 -0.0224
  127OSM   H13F13660   5.695   1.187   7.959  1.0687  1.9210  0.8876
  127OSM   H13G13661   5.575   1.109   8.060  0.8930  1.0679  1.8341
  127OSM   C14F13662   5.624   1.315   8.103  0.5957 -0.1746 -0.0737
  127OSM   H14F13663   5.540   1.388   8.098  0.2385 -0.6876 -2.0437
  127OSM   H14G13664   5.713   1.373   8.071  0.2824  1.2621  1.6190
  127OSM   C15F13665   5.621   1.272   8.248  0.0131 -0.9583 -0.4167
  127OSM   H15F13666   5.654   1.363   8.302 -1.1041 -0.9882  0.3372
  127OSM   H15G13667   5.700   1.200   8.278  0.7213  0.8580  2.2123
  127OSM   C16F13668   5.489   1.242   8.313 -0.1919 -0.5081  0.3298
  127OSM   H16F13669   5.456   1.140   8.281 -2.0219  0.3996 -0.7556
  127OSM   H16G13670   5.412   1.318   8.288 -2.1805 -1.9712  1.7565
  127OSM   C17F13671   5.509   1.251   8.465 -0.8798 -0.7922 -0.5725
  127OSM   H17F13672   5.411   1.253   8.517  0.5092  0.3940  2.0749
  127OSM   H17G13673   5.556   1.346   8.498 -0.4265 -0.7631 -1.3039
  127OSM   C18F13674   5.595   1.134   8.520 -0.5270  0.6760 -1.0776
  127OSM   H18F13675   5.540   1.041   8.546  0.2411  0.2517 -0.9400
  127OSM   H18G13676   5.627   1.165   8.622 -2.1559  0.1876 -0.4042
  127OSM   H18H13677   5.688   1.111   8.463  0.5899  0.1416  0.9054
  128OSM      N13678   1.558   3.967   5.871  0.3328  0.3415 -0.3718
  128OSM    C1513679   1.651   3.848   5.860  0.7213 -0.2250  0.0550
  128OSM   H15A13680   1.690   3.832   5.760 -2.1296 -2.7991 -0.7169
  128OSM   H15B13681   1.596   3.760   5.890  2.2391 -1.7190 -1.4192
  128OSM   H15C13682   1.742   3.860   5.917 -0.7699 -0.5353  2.5380
  128OSM    C1413683   1.431   3.947   5.791  0.2759  0.1055 -0.1699
  128OSM   H14A13684   1.410   3.841   5.793 -2.2693  0.5944  0.7248
  128OSM   H14B13685   1.456   3.974   5.690  0.3752 -2.4062 -0.8641
  128OSM   H14C13686   1.336   3.983   5.826 -0.4444 -2.5898  0.7679
  128OSM    C1313687   1.515   3.984   6.017  0.1505  0.3096  0.4018
  128OSM   H13A13688   1.600   4.018   6.074 -0.7829  0.1447  1.9241
  128OSM   H13B13689   1.480   3.889   6.057  0.9154 -0.3925 -0.5707
  128OSM   H13C13690   1.437   4.059   6.012  0.8928  0.9179 -2.5078
  128OSM    C1213691   1.632   4.094   5.827 -0.4125  0.1136 -0.6315
  128OSM   H12A13692   1.672   4.084   5.728  2.1726 -1.5092  0.5181
  128OSM   H12B13693   1.724   4.098   5.885  0.3487  1.0523 -1.8888
  128OSM    C1113694   1.564   4.230   5.840  0.1381 -0.8621  0.3084
  128OSM   H11A13695   1.462   4.218   5.797 -0.7618  0.2180  2.0644
  128OSM   H11B13696   1.614   4.304   5.775 -0.3756 -1.3073 -0.5998
  128OSM      P13697   1.677   4.307   6.056 -0.2541  0.1493  0.0671
  128OSM    O1313698   1.753   4.187   6.093  0.1911  0.0986 -0.2909
  128OSM    O1413699   1.751   4.429   6.010 -0.1751  0.1744 -0.1131
  128OSM    O1113700   1.605   4.349   6.198 -0.0059 -0.8691 -0.6076
  128OSM    O1213701   1.546   4.269   5.974 -0.3726 -0.3221  0.3398
  128OSM    C1S13702   1.527   4.260   6.276 -0.6364  0.5432  0.0061
  128OSM    H1S13703   1.565   4.156   6.268 -1.4365  0.2799 -0.3912
  128OSM    H1T13704   1.426   4.256   6.231 -0.9264 -0.9501  0.7449
  128OSM     NF13705   1.476   4.196   6.509  0.0339 -0.6139 -0.5088
  128OSM    HNF13706   1.402   4.224   6.569  0.5602 -0.7106  0.1860
  128OSM    C2S13707   1.521   4.309   6.422  0.0779 -0.0467 -0.6271
  128OSM    H2S13708   1.624   4.340   6.450 -0.3667  0.0945  0.9201
  128OSM    C3S13709   1.428   4.433   6.435 -0.1201  0.1658  0.0997
  128OSM    H3S13710   1.325   4.393   6.424 -1.7902  3.8259  1.6832
  128OSM     O313711   1.445   4.532   6.336  0.5157  0.0904  0.1329
  128OSM    HO313712   1.495   4.485   6.269 -0.1587 -0.8999  0.3104
  128OSM    C4S13713   1.441   4.491   6.575  0.6136  0.1742  0.0270
  128OSM    H4S13714   1.380   4.435   6.648  0.2757  1.0062  0.3920
  128OSM    C5S13715   1.524   4.592   6.616 -0.3252  0.0325  0.3286
  128OSM    H5S13716   1.585   4.642   6.539 -1.2594  2.3755  1.0493
  128OSM    C6S13717   1.529   4.651   6.751  0.4193 -0.1674 -0.0260
  128OSM    H6S13718   1.460   4.737   6.757  1.4993  0.7385 -0.3668
  128OSM    H6T13719   1.633   4.687   6.769  0.3288 -0.1620  0.4752
  128OSM    C7S13720   1.484   4.564   6.865 -0.5277 -0.0646 -0.0746
  128OSM    H7S13721   1.543   4.470   6.873 -1.1582 -0.3846  0.9923
  128OSM    H7T13722   1.380   4.532   6.846 -0.0469 -1.3095 -0.6410
  128OSM    C8S13723   1.505   4.638   6.997 -0.0436 -0.5055 -0.0793
  128OSM    H8S13724   1.462   4.739   6.983  3.7462  1.1873 -0.1643
  128OSM    H8T13725   1.613   4.643   7.022  0.0586 -0.7444 -0.4589
  128OSM    C9S13726   1.437   4.568   7.117  0.6557 -0.1368 -0.0377
  128OSM    H9S13727   1.455   4.460   7.099  0.2937 -0.0778 -0.7620
  128OSM    H9T13728   1.331   4.570   7.087  0.6229  0.5414  0.1082
  128OSM   C10S13729   1.466   4.628   7.253  0.2620  0.2324 -0.2776
  128OSM   H10S13730   1.369   4.655   7.302  0.5435 -0.3450  0.6171
  128OSM   H10T13731   1.520   4.722   7.229  0.1533  0.8064  1.5834
  128OSM   C11S13732   1.542   4.538   7.345 -0.1369 -0.4061 -0.4541
  128OSM   H11S13733   1.649   4.539   7.316  0.2290  0.6025  0.8867
  128OSM   H11T13734   1.508   4.432   7.336 -0.3322 -0.5359  1.6889
  128OSM   C12S13735   1.541   4.589   7.489  0.2982 -0.5596 -0.6305
  128OSM   H12S13736   1.436   4.616   7.512 -0.1629 -2.4716 -0.4291
  128OSM   H12T13737   1.596   4.685   7.503 -2.2863  0.7083  1.3728
  128OSM   C13S13738   1.581   4.500   7.607  0.4121 -0.3550  0.4713
  128OSM   H13S13739   1.686   4.464   7.598  0.7102  0.6836 -0.3323
  128OSM   H13T13740   1.521   4.409   7.585 -0.1714 -0.0561  0.8371
  128OSM   C14S13741   1.548   4.558   7.741 -0.1769  0.1879  0.1414
  128OSM   H14S13742   1.511   4.663   7.740 -0.6413  0.0251 -1.9578
  128OSM   H14T13743   1.638   4.562   7.806  0.1475 -1.7613 -0.1651
  128OSM   C15S13744   1.445   4.479   7.829 -0.6990  0.1979  1.1264
  128OSM   H15S13745   1.476   4.373   7.835 -2.3878 -0.2747  1.6763
  128OSM   H15T13746   1.345   4.471   7.780 -0.9500  1.7888  1.3654
  128OSM   C16S13747   1.436   4.536   7.973 -0.3496 -0.3698  0.5428
  128OSM   H16S13748   1.408   4.642   7.959 -0.7360 -0.4056  1.0264
  128OSM   H16T13749   1.536   4.530   8.022  0.7939  3.9732 -1.0054
  128OSM   C17S13750   1.324   4.474   8.056  0.0027  0.6195  0.5657
  128OSM   H17S13751   1.314   4.365   8.038  1.0407  0.1397  2.7472
  128OSM   H17T13752   1.237   4.529   8.015 -0.1117 -0.5958 -0.8478
  128OSM   C18S13753   1.339   4.496   8.214 -0.1975  0.4103 -0.2636
  128OSM   H18S13754   1.251   4.465   8.274 -0.4290 -0.7971 -1.2098
  128OSM   H18T13755   1.350   4.606   8.229 -0.1450  0.3125  0.4587
  128OSM   H18U13756   1.428   4.443   8.251 -0.5385 -0.1158 -0.1951
  128OSM    C1F13757   1.534   4.075   6.526  0.2812  0.2758  0.1572
  128OSM     OF13758   1.636   4.046   6.461  0.2375  0.3543  0.0957
  128OSM    C2F13759   1.461   3.979   6.610  0.2652  0.3245  0.0022
  128OSM    H2F13760   1.363   3.948   6.568  0.5976 -0.7094 -0.0344
  128OSM    H2G13761   1.430   4.030   6.704 -1.0977  1.8208 -1.2398
  128OSM    C3F13762   1.546   3.858   6.657  0.0305  0.6591 -0.6708
  128OSM    H3F13763   1.639   3.899   6.703  0.8680 -0.2185 -1.5680
  128OSM    H3G13764   1.581   3.799   6.570  0.1167  0.5835 -0.5829
  128OSM    C4F13765   1.488   3.773   6.767  0.1563 -0.2699 -0.5405
  128OSM    H4F13766   1.543   3.679   6.787  0.1041 -0.9747 -3.4863
  128OSM    H4G13767   1.383   3.744   6.748 -0.9410  1.0806  3.2091
  128OSM    C5F13768   1.473   3.835   6.911 -0.0883 -0.3165 -0.2164
  128OSM    H5F13769   1.413   3.927   6.892 -0.6959 -0.9819 -1.4977
  128OSM    H5G13770   1.575   3.864   6.946  0.2274 -0.3426 -1.1111
  128OSM    C6F13771   1.419   3.741   7.016  0.1460  0.1774 -0.0700
  128OSM    H6F13772   1.492   3.660   7.036 -0.8034  0.0665  3.1981
  128OSM    H6G13773   1.321   3.699   6.985  0.3416  0.2087 -0.7486
  128OSM    C7F13774   1.410   3.804   7.152 -0.3249  0.0427  0.8326
  128OSM    H7F13775   1.366   3.905   7.151 -0.8661 -0.1689  2.0167
  128OSM    H7G13776   1.513   3.817   7.190  0.0033  0.1489 -0.0870
  128OSM    C8F13777   1.327   3.719   7.252 -0.3516 -0.2093  0.0499
  128OSM    H8F13778   1.344   3.611   7.232  0.6926 -0.3101  1.3537
  128OSM    H8G13779   1.216   3.723   7.251 -0.4883 -2.9414 -0.6102
  128OSM    C9F13780   1.371   3.760   7.392 -0.1581  0.9311 -0.3660
  128OSM    H9F13781   1.459   3.704   7.428 -0.1691  1.5897  0.7017
  128OSM   C10F13782   1.314   3.849   7.470  0.3982  0.0051  0.2226
  128OSM   H10F13783   1.365   3.878   7.563  1.5379 -2.2581  0.3380
  128OSM   C11F13784   1.198   3.937   7.438  0.1385 -0.2962  0.0036
  128OSM   H11F13785   1.198   3.964   7.330 -0.1849  1.3177  0.3996
  128OSM   H11G13786   1.199   4.030   7.498 -0.0535 -0.0183 -0.4235
  128OSM   C12F13787   1.069   3.858   7.491 -0.6251 -1.3087 -0.3845
  128OSM   H12F13788   1.061   3.758   7.444  0.8279 -1.4664 -0.3174
  128OSM   H12G13789   0.979   3.916   7.461  0.2898 -0.2085 -1.0657
  128OSM   C13F13790   1.064   3.853   7.645 -0.4243  0.7306  0.8485
  128OSM   H13F13791   1.096   3.944   7.702 -1.2698  0.1249  2.3268
  128OSM   H13G13792   1.128   3.768   7.676 -1.4483 -0.7504 -0.9725
  128OSM   C14F13793   0.920   3.834   7.692  0.1674 -0.9478 -0.1332
  128OSM   H14F13794   0.876   3.735   7.668  2.4871 -1.7609 -1.1875
  128OSM   H14G13795   0.864   3.912   7.636 -0.4858 -0.5037  1.1157
  128OSM   C15F13796   0.916   3.862   7.845 -0.2372 -0.1149 -0.4173
  128OSM   H15F13797   0.992   3.932   7.884 -2.3071  2.1963 -0.4505
  128OSM   H15G13798   0.926   3.768   7.903 -1.1142  0.3831  0.5491
  128OSM   C16F13799   0.773   3.912   7.870 -0.4515 -0.1082 -0.5067
  128OSM   H16F13800   0.703   3.846   7.815 -1.3880  1.9116 -1.7799
  128OSM   H16G13801   0.760   4.015   7.831 -0.0906 -0.6665 -2.1324
  128OSM   C17F13802   0.729   3.905   8.028 -0.0919 -0.5068 -0.0321
  128OSM   H17F13803   0.696   3.802   8.054  0.5386 -0.1087  2.5331
  128OSM   H17G13804   0.648   3.979   8.043  0.1479 -0.5177  1.3823
  128OSM   C18F13805   0.848   3.948   8.114 -0.0646  0.1268 -0.5217
  128OSM   H18F13806   0.892   4.037   8.064 -2.1612  0.1323 -2.4402
  128OSM   H18G13807   0.936   3.881   8.106  0.9010  1.4520 -1.2574
  128OSM   H18H13808   0.814   3.965   8.218 -0.8443  0.4156 -0.8161
  129OSM      N13809   5.012   0.862   6.100  0.4146  0.1934 -0.5673
  129OSM    C1513810   5.063   0.993   6.044 -0.5832 -0.6003  0.3385
  129OSM   H15A13811   4.986   1.056   6.003  0.4888 -0.4469 -1.4615
  129OSM   H15B13812   5.124   0.977   5.957  2.9433 -1.0562  2.7657
  129OSM   H15C13813   5.123   1.038   6.122  0.8666  0.6998 -1.5039
  129OSM    C1413814   4.918   0.893   6.215  0.2974 -0.3135 -0.7379
  129OSM   H14A13815   4.836   0.953   6.180 -0.9880 -2.4820 -1.5440
  129OSM   H14B13816   4.978   0.946   6.288 -0.6900 -0.3565  0.1092
  129OSM   H14C13817   4.871   0.808   6.262  0.7287 -0.0132  0.2496
  129OSM    C1313818   4.939   0.792   5.983 -0.0422 -0.4313  0.3585
  129OSM   H13A13819   4.899   0.697   6.014 -0.4992 -0.3090  0.1470
  129OSM   H13B13820   5.006   0.770   5.901  0.5235 -0.8596  0.9283
  129OSM   H13C13821   4.856   0.851   5.948  1.2833  1.1174 -0.2058
  129OSM    C1213822   5.125   0.781   6.157 -0.1544  0.9307 -0.5500
  129OSM   H12A13823   5.179   0.744   6.071  0.9724  2.0468 -0.3432
  129OSM   H12B13824   5.075   0.699   6.206 -0.2460  1.8403  0.9040
  129OSM    C1113825   5.211   0.837   6.270  0.3649  0.2747 -0.0144
  129OSM   H11A13826   5.270   0.753   6.312  3.2333  0.4818 -3.3572
  129OSM   H11B13827   5.140   0.869   6.349 -0.5509  1.9146 -1.4661
  129OSM      P13828   5.417   0.944   6.164  0.3648 -0.2938 -0.4525
  129OSM    O1313829   5.413   0.830   6.069  0.2530 -0.2084 -1.0016
  129OSM    O1413830   5.459   1.073   6.106 -0.6382  0.2395  0.1516
  129OSM    O1113831   5.513   0.914   6.285 -0.4588  0.2632  0.4626
  129OSM    O1213832   5.275   0.957   6.231  0.0988 -0.4426  0.5803
  129OSM    C1S13833   5.534   1.000   6.402  0.5596  0.0041  0.8286
  129OSM    H1S13834   5.480   1.097   6.395  0.5124 -0.1346 -1.2319
  129OSM    H1T13835   5.640   1.031   6.393  1.1529 -1.8719  1.0574
  129OSM     NF13836   5.534   1.018   6.639 -0.2242  0.6479 -0.8421
  129OSM    HNF13837   5.622   1.012   6.686  0.0290 -0.1348 -1.4138
  129OSM    C2S13838   5.509   0.922   6.536  0.3504 -0.6311 -0.3459
  129OSM    H2S13839   5.400   0.899   6.534  0.1255  0.4783 -1.6562
  129OSM    C3S13840   5.594   0.795   6.536 -0.4404  1.5997 -0.6878
  129OSM    H3S13841   5.702   0.816   6.521  0.1962 -1.3260 -0.5513
  129OSM     O313842   5.555   0.692   6.446  0.4753  0.0978  0.0681
  129OSM    HO313843   5.513   0.747   6.380  2.8883  2.3059  0.2965
  129OSM    C4S13844   5.577   0.724   6.675  0.1332 -0.4093  0.3828
  129OSM    H4S13845   5.483   0.676   6.705  1.0172 -0.9595  2.3806
  129OSM    C5S13846   5.678   0.720   6.767 -0.9244 -0.4362  0.5137
  129OSM    H5S13847   5.775   0.763   6.738  0.1611 -2.2500  1.3605
  129OSM    C6S13848   5.676   0.636   6.891  0.1787  0.3557 -0.3301
  129OSM    H6S13849   5.701   0.532   6.862  0.5070  0.1539  0.6805
  129OSM    H6T13850   5.575   0.639   6.936  0.8163  0.5941  1.1015
  129OSM    C7S13851   5.773   0.685   7.007 -1.1551 -0.1232  0.0496
  129OSM    H7S13852   5.721   0.777   7.044 -1.0960  0.0113 -0.1986
  129OSM    H7T13853   5.876   0.706   6.973 -1.1674 -2.1603 -1.2946
  129OSM    C8S13854   5.792   0.595   7.130 -0.3505  0.2877 -0.6432
  129OSM    H8S13855   5.854   0.647   7.207  0.0955 -1.9545  0.5333
  129OSM    H8T13856   5.847   0.505   7.096 -0.0038  1.5402 -3.6091
  129OSM    C9S13857   5.652   0.554   7.189 -0.2381 -0.1252  0.3616
  129OSM    H9S13858   5.591   0.478   7.136 -2.4212  1.0184  1.1301
  129OSM    H9T13859   5.583   0.642   7.184  3.0537  2.5529  0.1142
  129OSM   C10S13860   5.636   0.499   7.336  0.6330  0.2479  0.2434
  129OSM   H10S13861   5.636   0.388   7.342 -0.5173  0.1274 -1.6176
  129OSM   H10T13862   5.534   0.519   7.374  0.6625 -1.0965  1.0696
  129OSM   C11S13863   5.726   0.565   7.447  0.0956 -0.0355 -1.1001
  129OSM   H11S13864   5.744   0.675   7.439 -0.7961  0.2747  0.8876
  129OSM   H11T13865   5.818   0.513   7.413  0.8296  0.4948  0.0443
  129OSM   C12S13866   5.708   0.514   7.599 -0.2848  0.0772  0.6417
  129OSM   H12S13867   5.688   0.405   7.595  1.0283 -0.2049  1.2924
  129OSM   H12T13868   5.612   0.558   7.633  0.0053 -0.2988  1.9486
  129OSM   C13S13869   5.826   0.542   7.688 -0.0189  0.0243  0.3270
  129OSM   H13S13870   5.859   0.647   7.672 -1.7355  0.8300  1.9042
  129OSM   H13T13871   5.906   0.470   7.662  0.2384  0.3494  0.2104
  129OSM   C14S13872   5.777   0.525   7.831 -0.5048 -0.5484 -0.4074
  129OSM   H14S13873   5.854   0.466   7.885 -0.4873 -2.7712 -2.7646
  129OSM   H14T13874   5.686   0.461   7.833 -1.3959  0.6560 -1.4989
  129OSM   C15S13875   5.748   0.656   7.901  0.5368 -0.0741  0.2240
  129OSM   H15S13876   5.660   0.704   7.854  1.0525  1.6326  0.9787
  129OSM   H15T13877   5.840   0.716   7.914 -0.1074  0.7741  0.9274
  129OSM   C16S13878   5.687   0.628   8.046  0.1177 -0.7716 -0.5197
  129OSM   H16S13879   5.762   0.578   8.111  0.9254 -0.0765 -0.9090
  129OSM   H16T13880   5.597   0.562   8.041 -0.1997 -0.4911  1.0989
  129OSM   C17S13881   5.626   0.756   8.111 -0.0247 -0.1960  0.0620
  129OSM   H17S13882   5.585   0.742   8.214 -1.7316 -0.6309 -0.6573
  129OSM   H17T13883   5.539   0.778   8.046 -0.0548 -0.3687  0.0429
  129OSM   C18S13884   5.729   0.863   8.113 -0.5426  0.0004  0.1148
  129OSM   H18S13885   5.683   0.947   8.168  0.2880  1.9298 -2.0551
  129OSM   H18T13886   5.748   0.893   8.007  1.9450 -2.7082 -0.2934
  129OSM   H18U13887   5.823   0.826   8.158  0.7468  1.4328 -1.3398
  129OSM    C1F13888   5.462   1.128   6.651  0.0239 -0.1427 -0.4731
  129OSM     OF13889   5.350   1.136   6.603 -0.0962 -0.0594 -0.5510
  129OSM    C2F13890   5.534   1.243   6.716  0.4208  0.5018  0.1256
  129OSM    H2F13891   5.573   1.311   6.637 -1.8781  0.0284 -1.4434
  129OSM    H2G13892   5.618   1.205   6.778 -2.3416 -3.0247  1.8324
  129OSM    C3F13893   5.444   1.318   6.815  0.2693  0.0588 -0.8849
  129OSM    H3F13894   5.358   1.366   6.765  0.6596  0.7793 -0.8697
  129OSM    H3G13895   5.505   1.405   6.848 -1.2488  1.0036 -0.5226
  129OSM    C4F13896   5.390   1.238   6.938 -0.0204  0.1489  0.0293
  129OSM    H4F13897   5.470   1.169   6.974 -1.4658 -0.3504  2.4430
  129OSM    H4G13898   5.313   1.171   6.894  0.2116 -1.4156  1.9049
  129OSM    C5F13899   5.328   1.328   7.048  0.2802  0.4656 -0.3167
  129OSM    H5F13900   5.239   1.387   7.017  0.2053  0.2870 -0.4395
  129OSM    H5G13901   5.404   1.402   7.081  0.8993 -0.2973 -0.0095
  129OSM    C6F13902   5.283   1.247   7.166 -0.7111  0.3726 -0.1361
  129OSM    H6F13903   5.355   1.177   7.213 -2.4832  0.5466  2.9621
  129OSM    H6G13904   5.205   1.182   7.122 -2.0342  2.0727 -0.3768
  129OSM    C7F13905   5.221   1.339   7.277  0.2264  0.4069  0.0636
  129OSM    H7F13906   5.138   1.402   7.238 -1.2660 -1.4666  0.0859
  129OSM    H7G13907   5.306   1.405   7.301  0.2252  0.2788  0.4315
  129OSM    C8F13908   5.164   1.267   7.401  0.0898  0.1850 -0.0436
  129OSM    H8F13909   5.151   1.338   7.485 -1.4721 -2.1590  1.7739
  129OSM    H8G13910   5.241   1.195   7.435  0.5848  0.8127  0.1806
  129OSM    C9F13911   5.037   1.192   7.368  0.2291  0.6860  0.4612
  129OSM    H9F13912   5.030   1.157   7.264  0.8989  2.1348 -0.0845
  129OSM   C10F13913   4.926   1.181   7.439  0.7976  0.0155 -0.0041
  129OSM   H10F13914   4.843   1.117   7.406  1.3229 -0.1878 -0.9659
  129OSM   C11F13915   4.903   1.244   7.576 -0.4752 -0.4063  0.2149
  129OSM   H11F13916   4.797   1.230   7.607 -0.8076 -0.0749 -0.7590
  129OSM   H11G13917   4.906   1.355   7.568 -2.9560 -0.4133 -1.0895
  129OSM   C12F13918   5.002   1.188   7.680  0.1230 -0.9698  0.4556
  129OSM   H12F13919   5.104   1.216   7.646 -0.6391  0.8275 -0.4531
  129OSM   H12G13920   4.999   1.078   7.687 -0.8312 -1.0882 -1.4753
  129OSM   C13F13921   4.987   1.259   7.811  0.1568  0.4641 -0.0788
  129OSM   H13F13922   4.892   1.237   7.864  0.4560 -1.7708 -0.4234
  129OSM   H13G13923   4.984   1.365   7.777 -1.6302  0.1471 -1.0066
  129OSM   C14F13924   5.111   1.251   7.913  1.2166 -0.5470  0.5550
  129OSM   H14F13925   5.198   1.305   7.870  0.5422  0.1683  0.0735
  129OSM   H14G13926   5.134   1.143   7.919  0.9631 -0.5833  0.9413
  129OSM   C15F13927   5.066   1.326   8.042 -0.4412 -0.5881  0.5445
  129OSM   H15F13928   4.964   1.298   8.075 -0.4514  0.1198  1.1220
  129OSM   H15G13929   5.058   1.429   8.001  3.0278 -0.6521 -0.3903
  129OSM   C16F13930   5.164   1.320   8.167 -0.4772  0.5623  0.0975
  129OSM   H16F13931   5.269   1.298   8.137 -0.3486  1.4902 -0.1441
  129OSM   H16G13932   5.135   1.239   8.238  3.0923 -1.2628 -0.3802
  129OSM   C17F13933   5.157   1.447   8.252  0.7408  0.1935  0.0922
  129OSM   H17F13934   5.190   1.419   8.354 -0.5049 -0.6239  0.2727
  129OSM   H17G13935   5.056   1.491   8.264  0.9366  0.2452  1.5721
  129OSM   C18F13936   5.258   1.552   8.196 -0.0500  0.6394  0.3228
  129OSM   H18F13937   5.235   1.654   8.234 -2.7548 -0.3817  1.5738
  129OSM   H18G13938   5.257   1.534   8.087  0.2199  0.9537  0.2684
  129OSM   H18H13939   5.357   1.526   8.239  0.7547 -0.0795 -1.9189
  130OSM      N13940   1.455   2.717   6.210  0.5733  0.4385 -0.3311
  130OSM    C1513941   1.463   2.577   6.159 -0.3242 -0.7941 -0.0556
  130OSM   H15A13942   1.547   2.567   6.092 -0.1003 -0.5214  0.1848
  130OSM   H15B13943   1.366   2.553   6.117 -0.5313 -0.8237  0.4384
  130OSM   H15C13944   1.473   2.511   6.244  0.4452 -1.1672 -0.4265
  130OSM    C1413945   1.402   2.800   6.093  0.6708  0.1307  1.3029
  130OSM   H14A13946   1.407   2.906   6.113 -0.7494  0.3392  0.5576
  130OSM   H14B13947   1.302   2.773   6.065  1.2639 -1.9985  1.1933
  130OSM   H14C13948   1.461   2.776   6.006  0.4361 -0.0240  1.1882
  130OSM    C1313949   1.354   2.703   6.317  0.3814  0.6565 -0.3454
  130OSM   H13A13950   1.314   2.802   6.335 -0.6752  0.3299 -0.8578
  130OSM   H13B13951   1.388   2.666   6.413 -2.8319  0.9239  0.9491
  130OSM   H13C13952   1.270   2.650   6.275  1.2800  0.4694 -1.9631
  130OSM    C1213953   1.586   2.765   6.257 -0.1521 -0.7065 -0.0484
  130OSM   H12A13954   1.665   2.763   6.183 -0.7367  0.0960 -0.7050
  130OSM   H12B13955   1.613   2.707   6.344 -0.2085  2.3721  2.1107
  130OSM    C1113956   1.606   2.908   6.321 -0.3812  0.5892 -0.1729
  130OSM   H11A13957   1.714   2.923   6.346 -0.2803 -0.7352  0.2331
  130OSM   H11B13958   1.546   2.907   6.414  1.2001  0.5750  0.8675
  130OSM      P13959   1.659   3.081   6.120  0.0756  0.0551 -0.1302
  130OSM    O1313960   1.768   2.985   6.087 -0.0474  0.0885  0.1973
  130OSM    O1413961   1.569   3.141   6.014 -0.7618 -0.2619  0.3023
  130OSM    O1113962   1.725   3.198   6.201  0.9671 -0.1472  0.0970
  130OSM    O1213963   1.561   3.008   6.228  0.3905  0.1155 -0.0094
  130OSM    C1S13964   1.659   3.261   6.318  0.4459  0.6487  0.1251
  130OSM    H1S13965   1.551   3.239   6.329  0.1151  1.0528 -2.0785
  130OSM    H1T13966   1.673   3.371   6.305  0.2161  0.6767  0.1038
  130OSM     NF13967   1.656   3.298   6.564 -0.1421 -0.5573 -0.3391
  130OSM    HNF13968   1.697   3.386   6.584 -0.5706 -0.3012 -0.6010
  130OSM    C2S13969   1.718   3.224   6.457  0.1953 -0.1712  1.2877
  130OSM    H2S13970   1.688   3.119   6.473  2.6898 -0.9750  1.0155
  130OSM    C3S13971   1.873   3.243   6.448 -0.1473 -0.0424 -0.3109
  130OSM    H3S13972   1.896   3.349   6.425  1.2293 -0.4290 -0.7412
  130OSM     O313973   1.943   3.177   6.337 -0.9052 -0.4788 -0.7996
  130OSM    HO313974   1.870   3.149   6.281 -3.1281  3.0291  0.1690
  130OSM    C4S13975   1.932   3.198   6.581  0.2341 -0.0681 -0.8924
  130OSM    H4S13976   1.937   3.281   6.652  2.9787 -1.9741  1.2352
  130OSM    C5S13977   1.982   3.073   6.613 -0.0926  0.1158 -0.9256
  130OSM    H5S13978   1.972   2.988   6.544  0.3238 -1.7433  1.2500
  130OSM    C6S13979   2.044   3.041   6.750  0.6050 -0.6315  0.0937
  130OSM    H6S13980   2.146   2.998   6.734  1.1704 -0.1381  2.2707
  130OSM    H6T13981   1.986   2.957   6.794  3.4400 -1.8576  1.6413
  130OSM    C7S13982   2.048   3.163   6.850  0.4732 -0.3332  0.2312
  130OSM    H7S13983   1.945   3.199   6.868 -0.4696 -1.7881 -2.0589
  130OSM    H7T13984   2.101   3.251   6.809 -1.4105 -0.6329 -2.9730
  130OSM    C8S13985   2.104   3.121   6.984 -0.3650  0.1428  0.4591
  130OSM    H8S13986   2.200   3.070   6.962 -0.5554 -0.1823  0.3678
  130OSM    H8T13987   2.030   3.049   7.026 -2.1600  0.8107 -1.4893
  130OSM    C9S13988   2.128   3.228   7.085  0.0358 -0.5187 -0.0092
  130OSM    H9S13989   2.041   3.296   7.088  0.5271  0.1569 -0.8377
  130OSM    H9T13990   2.222   3.280   7.054  0.7707 -2.0141 -0.3674
  130OSM   C10S13991   2.165   3.173   7.220  0.9087 -0.1225  0.0549
  130OSM   H10S13992   2.270   3.136   7.224  0.5663 -1.2030 -0.7471
  130OSM   H10T13993   2.098   3.088   7.245  0.9295 -0.1737 -0.0614
  130OSM   C11S13994   2.140   3.273   7.330  0.1212  0.3833  0.6229
  130OSM   H11S13995   2.034   3.302   7.314  0.5210  2.5174  1.6952
  130OSM   H11T13996   2.198   3.368   7.319 -0.1764  0.5594  0.5738
  130OSM   C12S13997   2.174   3.206   7.456  0.5646  0.4495  0.1646
  130OSM   H12S13998   2.282   3.219   7.480  1.0710 -1.0179 -1.2194
  130OSM   H12T13999   2.148   3.098   7.457 -0.8728  0.7542 -1.5243
  130OSM   C13S14000   2.088   3.270   7.573  0.0106  0.2134 -0.3096
  130OSM   H13S14001   1.980   3.272   7.547 -0.4175 -1.6289  1.1695
  130OSM   H13T14002   2.120   3.375   7.589  1.3181 -0.3257  0.7868
  130OSM   C14S14003   2.083   3.194   7.702 -0.3487 -0.3334  0.4892
  130OSM   H14S14004   2.086   3.085   7.682 -0.9597 -0.0832 -1.0422
  130OSM   H14T14005   1.984   3.201   7.751  0.2728  0.9202  1.5993
  130OSM   C15S14006   2.199   3.219   7.804  0.3070  0.6561 -0.1448
  130OSM   H15S14007   2.185   3.324   7.840  1.7227  0.4941  0.9203
  130OSM   H15T14008   2.294   3.200   7.749 -0.0225 -0.6671 -0.2647
  130OSM   C16S14009   2.196   3.119   7.921  0.3210 -0.1256 -0.1210
  130OSM   H16S14010   2.176   3.017   7.883 -0.0147  0.1424 -0.6812
  130OSM   H16T14011   2.106   3.147   7.980  2.3983  0.5219  2.8886
  130OSM   C17S14012   2.319   3.102   8.011 -0.1081  0.0945 -0.6386
  130OSM   H17S14013   2.361   3.202   8.034 -0.1818 -0.1245  0.4853
  130OSM   H17T14014   2.400   3.060   7.948 -0.8813  0.3531 -1.8198
  130OSM   C18S14015   2.288   3.036   8.148  0.5509 -0.3481 -0.5708
  130OSM   H18S14016   2.212   3.088   8.211  0.1724  1.3766 -2.4239
  130OSM   H18T14017   2.386   3.024   8.199  0.6394 -0.2674 -0.7217
  130OSM   H18U14018   2.254   2.934   8.119  1.9985 -1.2720  0.8660
  130OSM    C1F14019   1.533   3.276   6.621  0.7309  0.8278 -0.2443
  130OSM     OF14020   1.448   3.193   6.584  0.0467  0.6216  0.1317
  130OSM    C2F14021   1.494   3.355   6.741  0.3580  0.3140 -1.1989
  130OSM    H2F14022   1.474   3.463   6.727  1.0099  0.9078  1.9802
  130OSM    H2G14023   1.569   3.333   6.820 -1.0753 -2.3955 -0.5223
  130OSM    C3F14024   1.363   3.304   6.802 -0.1621 -0.0155 -0.3732
  130OSM    H3F14025   1.369   3.194   6.821  1.9860  0.2947  0.8760
  130OSM    H3G14026   1.276   3.326   6.736  0.5451 -1.6587 -1.8842
  130OSM    C4F14027   1.341   3.373   6.941 -0.9269  0.2716  0.1317
  130OSM    H4F14028   1.333   3.484   6.930  0.1045  0.1836 -1.8183
  130OSM    H4G14029   1.436   3.372   6.997 -0.7361  2.7310 -0.0929
  130OSM    C5F14030   1.214   3.318   7.003 -0.4795  0.0079  0.2464
  130OSM    H5F14031   1.217   3.207   6.996 -0.6805  0.0422 -0.4205
  130OSM    H5G14032   1.128   3.346   6.939 -0.8085 -0.1971  0.5989
  130OSM    C6F14033   1.197   3.361   7.147  0.2786  0.6621  0.2931
  130OSM    H6F14034   1.111   3.298   7.178  0.1415  0.0098 -1.3527
  130OSM    H6G14035   1.177   3.470   7.149 -1.7276  0.3465 -1.4871
  130OSM    C7F14036   1.312   3.319   7.239  0.3681  0.6736 -0.1303
  130OSM    H7F14037   1.393   3.395   7.229  1.3820 -0.1510  1.5923
  130OSM    H7G14038   1.346   3.223   7.195  1.0703  0.0441  1.7437
  130OSM    C8F14039   1.260   3.295   7.381 -0.9355  0.5822  0.0738
  130OSM    H8F14040   1.348   3.261   7.439 -2.0375  0.2828  1.6112
  130OSM    H8G14041   1.195   3.205   7.387 -0.6010  0.4928  2.8303
  130OSM    C9F14042   1.185   3.405   7.446 -0.1357 -1.1207 -0.3632
  130OSM    H9F14043   1.118   3.461   7.378 -1.8329 -0.6802  1.6242
  130OSM   C10F14044   1.177   3.436   7.574  0.0850  0.5421  0.4202
  130OSM   H10F14045   1.130   3.530   7.605  1.7339  1.4938  0.0837
  130OSM   C11F14046   1.247   3.365   7.688 -0.1627 -0.9363  0.5123
  130OSM   H11F14047   1.259   3.255   7.671 -0.9217 -1.0636  0.7821
  130OSM   H11G14048   1.191   3.371   7.784  0.6952  0.7884  0.9150
  130OSM   C12F14049   1.389   3.413   7.730  1.9272 -0.7103  0.0928
  130OSM   H12F14050   1.457   3.404   7.643  4.8325  2.6394  1.8788
  130OSM   H12G14051   1.430   3.359   7.817 -1.2108  0.6541  2.5559
  130OSM   C13F14052   1.402   3.564   7.769 -0.4370 -0.0596 -0.1324
  130OSM   H13F14053   1.380   3.618   7.674  1.6019  1.4257  0.2100
  130OSM   H13G14054   1.511   3.584   7.782 -0.7483  1.7011 -0.1681
  130OSM   C14F14055   1.321   3.605   7.888  0.4896  0.2419 -0.0760
  130OSM   H14F14056   1.328   3.532   7.972 -0.4517 -1.0789 -1.1218
  130OSM   H14G14057   1.217   3.588   7.852  0.5131  0.8814 -0.4441
  130OSM   C15F14058   1.359   3.757   7.916 -0.1705  0.3194  0.3697
  130OSM   H15F14059   1.328   3.818   7.828  0.8830  0.3035 -0.0211
  130OSM   H15G14060   1.468   3.763   7.939 -0.0490  0.6822 -0.3018
  130OSM   C16F14061   1.277   3.813   8.039 -0.7310  0.5922  0.5448
  130OSM   H16F14062   1.310   3.752   8.126 -0.6724 -0.7296 -0.3923
  130OSM   H16G14063   1.172   3.786   8.016 -1.1801  2.0412  0.8143
  130OSM   C17F14064   1.275   3.965   8.067 -1.0290  0.6559 -0.3217
  130OSM   H17F14065   1.201   4.022   8.008  0.8273  2.8222 -0.6236
  130OSM   H17G14066   1.376   4.006   8.043 -0.8631  0.2314 -0.3574
  130OSM   C18F14067   1.251   3.991   8.215  0.5872 -0.1306  0.1859
  130OSM   H18F14068   1.336   3.944   8.269 -0.2828 -0.7509  1.0344
  130OSM   H18G14069   1.153   3.947   8.242  0.1700  1.2011  0.8857
  130OSM   H18H14070   1.262   4.100   8.231 -2.5449  0.0351  1.5574
  131OSM      N14071   6.274   5.665   5.788 -1.1189 -0.1635 -0.3262
  131OSM    C1514072   6.139   5.604   5.740 -0.7583  0.0032  0.0345
  131OSM   H15A14073   6.105   5.522   5.803  2.5463 -1.5847 -0.1422
  131OSM   H15B14074   6.160   5.574   5.639  0.0123  1.0174 -0.1098
  131OSM   H15C14075   6.058   5.675   5.736 -0.6588  0.1897  1.1405
  131OSM    C1414076   6.388   5.563   5.767 -0.1184 -0.4312  0.0483
  131OSM   H14A14077   6.361   5.486   5.697 -0.3563  0.4226 -0.8037
  131OSM   H14B14078   6.422   5.504   5.851 -0.4759 -0.6586  0.0324
  131OSM   H14C14079   6.470   5.619   5.724  2.3753 -2.0729  2.4919
  131OSM    C1314080   6.289   5.787   5.702  1.0865 -0.5865  0.1589
  131OSM   H13A14081   6.219   5.866   5.725  0.3210 -0.9070 -1.0299
  131OSM   H13B14082   6.280   5.759   5.598 -1.9196 -0.5029  0.3545
  131OSM   H13C14083   6.393   5.818   5.709  0.8178  0.6187 -0.9111
  131OSM    C1214084   6.262   5.709   5.927 -0.0151 -0.1944 -0.0663
  131OSM   H12A14085   6.354   5.760   5.951 -0.1544 -0.1848  0.4480
  131OSM   H12B14086   6.266   5.615   5.981 -2.0603 -0.7278 -0.7959
  131OSM    C1114087   6.146   5.802   5.968 -0.8574 -0.4516 -0.3737
  131OSM   H11A14088   6.123   5.810   6.076 -0.7933 -0.9663 -0.3216
  131OSM   H11B14089   6.052   5.764   5.922 -0.4572 -0.1470 -1.4752
  131OSM      P14090   6.282   6.033   5.982 -0.1812 -0.6724 -0.0497
  131OSM    O1314091   6.399   5.955   6.018 -0.1470 -0.0836  0.1181
  131OSM    O1414092   6.310   6.140   5.878 -0.0074  0.0980 -0.2798
  131OSM    O1114093   6.211   6.090   6.114 -0.2888 -0.1874  0.5392
  131OSM    O1214094   6.176   5.936   5.927 -0.4022  0.1627 -0.4075
  131OSM    C1S14095   6.185   6.028   6.239  0.0217  0.4149  0.8619
  131OSM    H1S14096   6.238   5.931   6.239  1.0663  0.9717 -0.5247
  131OSM    H1T14097   6.076   6.007   6.246 -0.2095  0.6599 -1.7703
  131OSM     NF14098   6.212   6.054   6.478  0.4640  0.4601  0.1407
  131OSM    HNF14099   6.128   6.065   6.531  0.4137 -2.2691  0.6643
  131OSM    C2S14100   6.227   6.119   6.348  1.1558 -0.0156  0.0443
  131OSM    H2S14101   6.335   6.144   6.343  1.0812  0.1200 -0.9280
  131OSM    C3S14102   6.153   6.252   6.333 -0.1417  0.0368  0.2225
  131OSM    H3S14103   6.044   6.230   6.332 -0.3690  1.1593 -0.1958
  131OSM     O314104   6.206   6.324   6.225  0.2060 -0.4756  0.0357
  131OSM    HO314105   6.241   6.251   6.174  2.2504  0.2281  0.3755
  131OSM    C4S14106   6.171   6.348   6.451 -0.9319  0.1272 -0.3707
  131OSM    H4S14107   6.259   6.414   6.450  0.6535 -1.8635  1.6793
  131OSM    C5S14108   6.098   6.372   6.565  0.0674  0.1066  0.3189
  131OSM    H5S14109   6.008   6.313   6.583 -0.2070 -0.4441 -2.6943
  131OSM    C6S14110   6.126   6.461   6.685  0.9913  0.3332 -0.3602
  131OSM    H6S14111   6.073   6.558   6.675 -1.2437 -0.8427 -0.2357
  131OSM    H6T14112   6.236   6.472   6.685  0.9123  1.1634  0.2282
  131OSM    C7S14113   6.085   6.392   6.815  0.0035  0.2495 -0.3021
  131OSM    H7S14114   6.128   6.290   6.824  0.4462  0.3924 -0.7533
  131OSM    H7T14115   5.975   6.385   6.826  0.2438  0.7779  3.1869
  131OSM    C8S14116   6.116   6.468   6.942 -0.6712  0.1423 -0.0510
  131OSM    H8S14117   6.055   6.560   6.958  0.6558  0.9593  0.4388
  131OSM    H8T14118   6.218   6.513   6.944  1.4997 -4.5059 -0.4479
  131OSM    C9S14119   6.082   6.385   7.061 -0.3859  0.4921 -0.2365
  131OSM    H9S14120   6.138   6.289   7.065 -0.8771  0.1597 -1.0878
  131OSM    H9T14121   5.977   6.353   7.048 -0.1111 -0.2399 -0.7517
  131OSM   C10S14122   6.107   6.468   7.193 -0.4157  0.1205  0.8805
  131OSM   H10S14123   6.070   6.572   7.187  0.9257  0.5962  0.6788
  131OSM   H10T14124   6.218   6.472   7.204 -0.4697  0.6411  1.2596
  131OSM   C11S14125   6.040   6.404   7.313  0.1119 -0.4619 -0.1912
  131OSM   H11S14126   6.100   6.318   7.347  0.9601  0.4556  0.6756
  131OSM   H11T14127   5.937   6.367   7.295 -0.2916 -0.2111  1.5258
  131OSM   C12S14128   6.028   6.496   7.435 -0.2853  0.7397 -0.4235
  131OSM   H12S14129   5.942   6.467   7.498 -2.4424 -1.0491 -4.0113
  131OSM   H12T14130   5.998   6.600   7.408  2.1605  0.9564 -2.5838
  131OSM   C13S14131   6.163   6.502   7.505 -0.5786  0.0394 -1.1850
  131OSM   H13S14132   6.239   6.564   7.454  0.5081 -0.0299  0.3002
  131OSM   H13T14133   6.202   6.399   7.515  0.2190  0.4926  0.5665
  131OSM   C14S14134   6.155   6.567   7.645  0.3608 -0.5973 -0.0543
  131OSM   H14S14135   6.078   6.510   7.701  1.0787  0.9395  2.5941
  131OSM   H14T14136   6.122   6.673   7.643  0.0479 -0.7043 -0.7185
  131OSM   C15S14137   6.287   6.569   7.707 -0.4817  0.7137 -0.4281
  131OSM   H15S14138   6.366   6.611   7.640  0.7195 -2.0558 -0.8327
  131OSM   H15T14139   6.303   6.459   7.700  0.5323  0.7535  1.0378
  131OSM   C16S14140   6.287   6.608   7.860  0.2506 -0.1487 -0.0600
  131OSM   H16S14141   6.183   6.588   7.891  1.3955 -2.7923  2.3059
  131OSM   H16T14142   6.318   6.714   7.856  0.3702 -0.2010 -0.5753
  131OSM   C17S14143   6.372   6.528   7.961  0.7106  0.4784  0.1353
  131OSM   H17S14144   6.480   6.531   7.935  1.4706 -2.2295  2.6519
  131OSM   H17T14145   6.333   6.424   7.966 -2.8083  1.8123  1.6814
  131OSM   C18S14146   6.371   6.582   8.102 -0.1698  0.4014  0.6784
  131OSM   H18S14147   6.464   6.551   8.155  1.2547 -0.1690 -2.0954
  131OSM   H18T14148   6.289   6.543   8.165  1.0512 -2.1865  0.7247
  131OSM   H18U14149   6.364   6.693   8.093 -0.7275  0.2841 -0.3387
  131OSM    C1F14150   6.283   5.949   6.514 -0.1013  0.2530 -0.4478
  131OSM     OF14151   6.374   5.910   6.441  0.4259  0.4298  0.3569
  131OSM    C2F14152   6.257   5.870   6.632 -0.0164 -0.4986 -0.0385
  131OSM    H2F14153   6.149   5.850   6.644 -0.2748  0.8225 -0.0089
  131OSM    H2G14154   6.300   5.933   6.713 -1.4138 -0.4564  0.6832
  131OSM    C3F14155   6.334   5.738   6.638  0.4156  0.3481  0.3613
  131OSM    H3F14156   6.444   5.753   6.635  1.1462 -4.3323 -1.5986
  131OSM    H3G14157   6.305   5.682   6.546 -1.9805  1.3152  0.5208
  131OSM    C4F14158   6.308   5.649   6.762  0.2207  0.1342  0.1959
  131OSM    H4F14159   6.378   5.563   6.760 -0.4499 -0.4401  0.8402
  131OSM    H4G14160   6.204   5.608   6.755 -0.3354  1.1259  2.3310
  131OSM    C5F14161   6.330   5.720   6.894 -0.4202  0.7411  0.6387
  131OSM    H5F14162   6.247   5.790   6.916  0.0417  1.4762  0.0717
  131OSM    H5G14163   6.422   5.781   6.886  0.3456 -0.3245  1.1321
  131OSM    C6F14164   6.334   5.612   7.010  0.6750  0.1510  0.4479
  131OSM    H6F14165   6.415   5.537   6.996 -0.0190 -1.3447  3.9187
  131OSM    H6G14166   6.238   5.558   7.002  1.5562 -1.6552  1.5684
  131OSM    C7F14167   6.340   5.671   7.151  0.0214  0.7421 -0.7555
  131OSM    H7F14168   6.245   5.720   7.177 -0.6040 -1.9744  2.4617
  131OSM    H7G14169   6.418   5.747   7.128 -0.0765  1.3341  0.7906
  131OSM    C8F14170   6.381   5.564   7.255  0.2872 -0.2821  0.4291
  131OSM    H8F14171   6.462   5.502   7.209  0.1963 -0.6190  0.7228
  131OSM    H8G14172   6.301   5.490   7.272  0.3752 -0.2739  0.8758
  131OSM    C9F14173   6.427   5.621   7.390  0.0421  0.3550  0.6058
  131OSM    H9F14174   6.525   5.582   7.423 -0.1674 -2.0913 -1.5701
  131OSM   C10F14175   6.364   5.717   7.461  0.7896 -0.0049 -0.6621
  131OSM   H10F14176   6.419   5.761   7.546 -1.8089 -0.2213  1.1735
  131OSM   C11F14177   6.232   5.771   7.440 -0.6663 -0.0768 -0.0295
  131OSM   H11F14178   6.174   5.703   7.374  2.1540 -1.4434 -1.1723
  131OSM   H11G14179   6.243   5.871   7.393 -1.0035  0.3578  0.7938
  131OSM   C12F14180   6.157   5.794   7.579 -0.0215  0.3667  0.4933
  131OSM   H12F14181   6.076   5.864   7.549  0.7147  1.8505  1.8961
  131OSM   H12G14182   6.221   5.845   7.654 -0.0887  3.2783 -1.3397
  131OSM   C13F14183   6.094   5.672   7.637  0.2355 -0.0700 -0.3615
  131OSM   H13F14184   6.170   5.594   7.661  1.9339  1.7988  0.4563
  131OSM   H13G14185   6.042   5.622   7.552 -0.8087 -1.4641  1.0593
  131OSM   C14F14186   5.988   5.686   7.742  0.6146 -0.2825  0.3894
  131OSM   H14F14187   5.963   5.586   7.781  0.5981 -0.6285 -0.4903
  131OSM   H14G14188   5.892   5.727   7.704  2.5207  2.0899 -2.1424
  131OSM   C15F14189   6.037   5.759   7.869 -0.2665  0.1373  0.2056
  131OSM   H15F14190   5.947   5.755   7.934 -0.8502 -0.0031 -0.6010
  131OSM   H15G14191   6.064   5.863   7.841  0.6702 -0.2435 -0.3608
  131OSM   C16F14192   6.135   5.673   7.953  0.2952  0.4347 -0.1303
  131OSM   H16F14193   6.167   5.737   8.038 -3.2623  4.5962 -1.7517
  131OSM   H16G14194   6.226   5.650   7.894  0.8902 -1.1519  1.3581
  131OSM   C17F14195   6.074   5.541   8.006 -0.3527  0.4417  0.0962
  131OSM   H17F14196   6.055   5.471   7.922 -0.6032  0.5903  0.0276
  131OSM   H17G14197   5.978   5.566   8.056 -1.0796 -1.8648 -0.0611
  131OSM   C18F14198   6.172   5.469   8.099 -0.1343  0.3837  0.4304
  131OSM   H18F14199   6.191   5.516   8.198  3.9187 -1.9175  0.8656
  131OSM   H18G14200   6.267   5.449   8.045 -1.8254  1.7440 -3.2494
  131OSM   H18H14201   6.123   5.374   8.130 -1.1385  1.0892  1.0409
  132OSM      N14202   1.813   0.538   6.159  0.6831  0.2487 -0.0116
  132OSM    C1514203   1.698   0.505   6.068 -0.0595  0.3099 -0.1885
  132OSM   H15A14204   1.684   0.398   6.063  1.1225  0.1593 -0.4730
  132OSM   H15B14205   1.715   0.557   5.975  0.8226  2.3762  1.0830
  132OSM   H15C14206   1.608   0.554   6.103 -1.6366 -1.4615 -1.6855
  132OSM    C1414207   1.924   0.466   6.096  0.4023 -0.6392 -0.0218
  132OSM   H14A14208   1.952   0.513   6.002  0.8649  4.0179  2.3023
  132OSM   H14B14209   1.900   0.362   6.083  1.0050 -0.6731 -0.9724
  132OSM   H14C14210   2.017   0.464   6.151 -0.2246 -0.4863  1.0561
  132OSM    C1314211   1.837   0.687   6.160 -0.2232  0.7782 -0.3645
  132OSM   H13A14212   1.928   0.713   6.212  0.5404 -0.9604 -0.8045
  132OSM   H13B14213   1.755   0.738   6.208 -0.8667  1.1796 -1.8540
  132OSM   H13C14214   1.842   0.724   6.059 -2.5757  0.3623 -0.6565
  132OSM    C1214215   1.789   0.500   6.304  1.3005  0.0486  0.1023
  132OSM   H12A14216   1.870   0.514   6.374 -0.1210  3.0329  1.2446
  132OSM   H12B14217   1.791   0.392   6.301 -2.3666 -0.0607 -0.9812
  132OSM    C1114218   1.652   0.538   6.374  0.8712 -0.1066 -0.0195
  132OSM   H11A14219   1.640   0.645   6.348 -0.4597  0.2372  1.9078
  132OSM   H11B14220   1.666   0.524   6.483 -0.2775  0.2374  0.1841
  132OSM      P14221   1.409   0.528   6.292  0.0744 -0.3057 -0.1286
  132OSM    O1314222   1.438   0.624   6.180  0.5315  0.1738 -0.3479
  132OSM    O1414223   1.306   0.428   6.264 -0.0567  0.2490  0.5621
  132OSM    O1114224   1.374   0.608   6.426 -0.3089  0.0633  0.4351
  132OSM    O1214225   1.548   0.455   6.315  0.3847  0.9816  0.1605
  132OSM    C1S14226   1.338   0.527   6.538 -0.0345  0.2429 -0.0272
  132OSM    H1S14227   1.392   0.431   6.547 -1.1959 -0.3364  0.9329
  132OSM    H1T14228   1.229   0.508   6.529  0.6270 -3.8202 -0.2205
  132OSM     NF14229   1.340   0.525   6.791 -0.5892  0.9813  0.7923
  132OSM    HNF14230   1.275   0.557   6.859  1.8576 -0.3995  3.9009
  132OSM    C2S14231   1.377   0.599   6.673 -0.3268 -0.8637 -0.0027
  132OSM    H2S14232   1.487   0.601   6.659 -0.2842  1.8536  0.3913
  132OSM    C3S14233   1.336   0.749   6.669  0.1325 -0.7422 -0.2722
  132OSM    H3S14234   1.230   0.758   6.635  0.2454 -0.5641 -0.5850
  132OSM     O314235   1.415   0.826   6.576  0.8025  0.0148 -0.3876
  132OSM    HO314236   1.448   0.762   6.512 -0.1630 -0.5666 -0.3193
  132OSM    C4S14237   1.348   0.822   6.807 -0.2658 -0.3761 -0.1427
  132OSM    H4S14238   1.257   0.794   6.863  0.6317 -1.2733  0.8671
  132OSM    C5S14239   1.449   0.896   6.863  0.2078 -0.1521  0.6363
  132OSM    H5S14240   1.550   0.896   6.820  0.1598 -0.4913  0.5221
  132OSM    C6S14241   1.439   0.946   7.000 -0.5201  0.1903  0.0754
  132OSM    H6S14242   1.382   0.879   7.068  0.2763  0.2046  0.7667
  132OSM    H6T14243   1.395   1.048   6.991  0.2810  0.7430  2.0352
  132OSM    C7S14244   1.575   0.969   7.069 -0.0583  0.7216  0.2861
  132OSM    H7S14245   1.639   1.053   7.032  0.8278 -0.0277  0.0964
  132OSM    H7T14246   1.641   0.880   7.075  0.7386  1.1038 -2.0909
  132OSM    C8S14247   1.552   1.004   7.223 -0.1891  0.5156  0.2889
  132OSM    H8S14248   1.491   1.096   7.227 -0.9150  0.0404  0.1258
  132OSM    H8T14249   1.657   1.036   7.244  0.2402 -0.3135 -0.5279
  132OSM    C9S14250   1.515   0.883   7.308  0.1750 -1.3643  0.0124
  132OSM    H9S14251   1.588   0.802   7.289  0.2438 -1.3708  0.3055
  132OSM    H9T14252   1.412   0.854   7.277 -1.6015  2.4582  1.9201
  132OSM   C10S14253   1.514   0.913   7.458 -0.4132 -0.2019  0.8648
  132OSM   H10S14254   1.431   0.986   7.471 -2.4531 -2.4048  0.4905
  132OSM   H10T14255   1.602   0.960   7.507 -0.3195 -0.3398  0.8266
  132OSM   C11S14256   1.475   0.792   7.532  0.4042 -0.3333  0.2772
  132OSM   H11S14257   1.563   0.725   7.524 -0.8812 -2.1145  0.7403
  132OSM   H11T14258   1.381   0.743   7.496 -0.7675  1.0964  1.3588
  132OSM   C12S14259   1.453   0.815   7.677 -0.0502  0.2948  0.7832
  132OSM   H12S14260   1.379   0.896   7.692  0.4941  0.8620  0.4105
  132OSM   H12T14261   1.551   0.832   7.728  0.1037 -2.2135  1.3983
  132OSM   C13S14262   1.399   0.691   7.756 -0.6156 -0.2511  0.2098
  132OSM   H13S14263   1.458   0.602   7.728 -0.4797  0.7214 -2.7163
  132OSM   H13T14264   1.292   0.673   7.731 -0.4716  0.1869 -0.7466
  132OSM   C14S14265   1.416   0.727   7.900 -0.0068 -0.9505  0.5887
  132OSM   H14S14266   1.323   0.784   7.920 -0.3416 -1.9161  1.8539
  132OSM   H14T14267   1.502   0.791   7.930  0.4986 -2.8164  3.3110
  132OSM   C15S14268   1.406   0.611   7.990  0.3851 -0.0455 -0.2075
  132OSM   H15S14269   1.311   0.555   7.977  0.9928 -0.9127 -0.9971
  132OSM   H15T14270   1.382   0.651   8.090 -1.5388 -0.2855 -0.5375
  132OSM   C16S14271   1.516   0.501   8.004 -0.6233  0.1747  0.1242
  132OSM   H16S14272   1.616   0.541   8.030 -0.6147  0.3168 -0.1291
  132OSM   H16T14273   1.541   0.465   7.902 -2.2861  0.3398 -0.3509
  132OSM   C17S14274   1.483   0.397   8.102 -0.2122 -0.1888 -0.5370
  132OSM   H17S14275   1.393   0.343   8.066  0.7513 -1.5453 -0.9583
  132OSM   H17T14276   1.465   0.442   8.202  1.6104  1.9761 -1.1482
  132OSM   C18S14277   1.590   0.280   8.121 -0.3454  0.5091  0.6002
  132OSM   H18S14278   1.687   0.322   8.157  0.0297 -1.2840  1.7619
  132OSM   H18T14279   1.599   0.233   8.021  1.0090  0.7680  0.5892
  132OSM   H18U14280   1.551   0.203   8.191 -1.4571  1.7267  1.3443
  132OSM    C1F14281   1.383   0.403   6.823 -0.0347  0.7795 -1.2831
  132OSM     OF14282   1.473   0.349   6.755  0.0578  0.4369 -0.0385
  132OSM    C2F14283   1.311   0.325   6.927  0.2789  0.2153  0.1686
  132OSM    H2F14284   1.299   0.216   6.911 -2.0433  0.6292 -1.1649
  132OSM    H2G14285   1.206   0.361   6.932 -0.1312 -1.0715  1.0224
  132OSM    C3F14286   1.379   0.357   7.064  0.2177 -0.7702  0.2517
  132OSM    H3F14287   1.488   0.341   7.078  0.5145  1.1234  0.2796
  132OSM    H3G14288   1.341   0.285   7.139 -1.0559  0.0241  0.3791
  132OSM    C4F14289   1.331   0.501   7.114 -0.7007 -0.3533  0.7037
  132OSM    H4F14290   1.235   0.539   7.071 -1.2264  0.1160  2.2550
  132OSM    H4G14291   1.411   0.566   7.072 -0.8383 -0.6484 -0.0391
  132OSM    C5F14292   1.341   0.518   7.268  0.9012  0.1548  1.1029
  132OSM    H5F14293   1.341   0.624   7.301  0.2642  0.8370 -0.9542
  132OSM    H5G14294   1.446   0.491   7.289  0.9398 -1.4632 -0.9731
  132OSM    C6F14295   1.228   0.431   7.326 -0.1528 -0.2506  0.8126
  132OSM    H6F14296   1.162   0.386   7.249 -0.0484  0.2661  0.4166
  132OSM    H6G14297   1.165   0.504   7.381 -2.3058 -2.1958  0.9887
  132OSM    C7F14298   1.285   0.317   7.408 -0.1347  0.3393 -0.7806
  132OSM    H7F14299   1.337   0.242   7.343  1.7542 -0.3150  1.4275
  132OSM    H7G14300   1.200   0.271   7.463  0.4624 -1.0333 -0.9729
  132OSM    C8F14301   1.376   0.367   7.527  0.0874  0.9475 -0.8052
  132OSM    H8F14302   1.316   0.426   7.599 -0.2761 -2.2459  1.6335
  132OSM    H8G14303   1.453   0.436   7.487  1.8798 -0.0687  0.8006
  132OSM    C9F14304   1.441   0.255   7.601  0.7415  0.1208  0.5030
  132OSM    H9F14305   1.541   0.230   7.563 -0.6728 -3.5527 -1.0582
  132OSM   C10F14306   1.402   0.188   7.710  0.4844 -0.2195 -0.5529
  132OSM   H10F14307   1.465   0.107   7.750  1.5995  0.4850 -0.8729
  132OSM   C11F14308   1.271   0.212   7.780 -0.4265  0.2799  0.3249
  132OSM   H11F14309   1.191   0.248   7.712 -1.5124  1.3072  2.1287
  132OSM   H11G14310   1.270   0.291   7.858  1.0350  0.0806  0.5497
  132OSM   C12F14311   1.213   0.079   7.847 -0.0378 -0.0954  0.0922
  132OSM   H12F14312   1.205   0.005   7.765 -0.6018  0.8452 -0.7164
  132OSM   H12G14313   1.113   0.110   7.883  0.1500  2.0177 -1.0747
  132OSM   C13F14314   1.292   0.033   7.960 -0.0476  0.1577 -0.3016
  132OSM   H13F14315   1.284   0.110   8.040 -1.9630 -0.4689  0.1293
  132OSM   H13G14316   1.401   0.016   7.944  0.0826 -0.1219  0.7866
  132OSM   C14F14317   1.239  -0.098   8.012  0.4907  0.5066 -0.0163
  132OSM   H14F14318   1.244  -0.187   7.946 -1.5926  0.0519  0.3819
  132OSM   H14G14319   1.130  -0.086   8.033  0.1474 -2.4655  0.0725
  132OSM   C15F14320   1.315  -0.137   8.139  0.0032 -0.0040 -0.7898
  132OSM   H15F14321   1.302  -0.053   8.211  2.2544  1.0203 -1.5427
  132OSM   H15G14322   1.422  -0.140   8.111  0.1440  1.5443 -0.4543
  132OSM   C16F14323   1.292  -0.278   8.191  0.6450 -0.0018  0.6721
  132OSM   H16F14324   1.183  -0.297   8.198  0.6926 -1.4933 -1.8342
  132OSM   H16G14325   1.337  -0.290   8.292  0.6974  0.3542  0.6898
  132OSM   C17F14326   1.342  -0.388   8.097  0.0501 -0.0109  0.1719
  132OSM   H17F14327   1.451  -0.397   8.117 -0.1124 -3.3168 -0.0605
  132OSM   H17G14328   1.322  -0.359   7.991  1.2673 -2.5296 -0.7799
  132OSM   C18F14329   1.280  -0.520   8.124  0.1387 -0.0593  0.9114
  132OSM   H18F14330   1.181  -0.512   8.075  0.2063  1.8333  1.0406
  132OSM   H18G14331   1.273  -0.545   8.232 -0.2041  0.9378  1.1280
  132OSM   H18H14332   1.330  -0.597   8.061  0.0879  1.2932 -0.8345
  133OSM      N14333   1.788   6.466   6.226  0.0277  0.0723  0.7706
  133OSM    C1514334   1.724   6.409   6.351  0.0545 -1.0261  0.0895
  133OSM   H15A14335   1.639   6.471   6.376 -1.9989 -1.9560 -4.1358
  133OSM   H15B14336   1.792   6.399   6.435  1.0429  2.1680 -0.2598
  133OSM   H15C14337   1.672   6.317   6.330 -0.1463 -0.8315 -0.2781
  133OSM    C1414338   1.874   6.369   6.155 -0.3245 -0.5678  0.5730
  133OSM   H14A14339   1.906   6.419   6.065 -0.4392 -1.3372  0.1031
  133OSM   H14B14340   1.819   6.278   6.140 -0.3769 -0.2422 -1.2990
  133OSM   H14C14341   1.967   6.338   6.199 -0.0371 -1.2650 -0.5253
  133OSM    C1314342   1.683   6.512   6.128  0.0519  0.2103 -0.1918
  133OSM   H13A14343   1.614   6.581   6.174 -0.3861  0.4936 -1.2631
  133OSM   H13B14344   1.623   6.425   6.104  0.5520  0.1660 -1.2791
  133OSM   H13C14345   1.729   6.543   6.036  1.9628 -0.9586  0.3583
  133OSM    C1214346   1.871   6.584   6.276  0.0383 -0.1689 -0.1276
  133OSM   H12A14347   1.942   6.615   6.200  0.1033  0.0452  0.0198
  133OSM   H12B14348   1.942   6.543   6.348  2.7172  0.7510 -2.1576
  133OSM    C1114349   1.790   6.701   6.344 -0.6190 -0.0882 -0.4872
  133OSM   H11A14350   1.719   6.658   6.418  0.7148 -1.7295 -0.1340
  133OSM   H11B14351   1.736   6.761   6.268 -0.7197 -1.3810 -1.4415
  133OSM      P14352   1.932   6.921   6.371 -0.1879  0.2543  0.2937
  133OSM    O1314353   2.082   6.919   6.369  0.3157 -0.2450 -0.1127
  133OSM    O1414354   1.874   6.982   6.244  1.0502 -0.5086 -0.3612
  133OSM    O1114355   1.893   7.011   6.492  0.5959  0.6304  0.3420
  133OSM    O1214356   1.880   6.782   6.418 -0.1209  0.5448 -0.0292
  133OSM    C1S14357   1.785   6.997   6.579 -0.0343  0.6611 -0.0915
  133OSM    H1S14358   1.751   6.891   6.578 -2.4872  1.4028 -2.2927
  133OSM    H1T14359   1.692   7.045   6.540 -2.4300 -2.4088  1.6267
  133OSM     NF14360   1.731   6.998   6.821 -0.9366 -0.3168  0.4146
  133OSM    HNF14361   1.662   7.066   6.846  0.5667  0.1377  3.5874
  133OSM    C2S14362   1.831   7.046   6.726 -0.1131 -0.3231  0.3342
  133OSM    H2S14363   1.931   7.003   6.747  0.5508  1.0278 -0.0216
  133OSM    C3S14364   1.847   7.201   6.722 -0.3706 -0.6008 -0.0906
  133OSM    H3S14365   1.752   7.241   6.681  0.2209  0.1212 -0.7616
  133OSM     O314366   1.946   7.241   6.623 -0.5054  0.2065  0.0624
  133OSM    HO314367   1.957   7.162   6.570  0.1359  0.4096 -0.1058
  133OSM    C4S14368   1.884   7.254   6.861  0.0215 -0.0761 -0.2908
  133OSM    H4S14369   1.990   7.272   6.884 -0.0901 -2.4355  2.2536
  133OSM    C5S14370   1.792   7.297   6.952 -0.3825  0.0281  0.1538
  133OSM    H5S14371   1.688   7.289   6.915 -0.5599 -2.4012  1.1285
  133OSM    C6S14372   1.823   7.356   7.089 -0.0523 -0.7196  0.0086
  133OSM    H6S14373   1.801   7.465   7.091 -0.6936 -0.8198 -1.4207
  133OSM    H6T14374   1.930   7.339   7.113 -0.0608 -1.9268 -0.8010
  133OSM    C7S14375   1.756   7.281   7.201  0.2193  0.4400  0.5813
  133OSM    H7S14376   1.797   7.178   7.187  0.4204  0.5785  0.1331
  133OSM    H7T14377   1.646   7.288   7.197  0.1488 -0.8924 -0.1310
  133OSM    C8S14378   1.790   7.325   7.344  0.2569 -0.1947 -0.5924
  133OSM    H8S14379   1.731   7.418   7.362  2.8246  1.3898 -0.0253
  133OSM    H8T14380   1.898   7.345   7.364  0.0852 -0.9988  1.2206
  133OSM    C9S14381   1.742   7.222   7.448  0.1469 -0.1221 -1.0291
  133OSM    H9S14382   1.801   7.128   7.446 -2.9638 -2.2554  2.4636
  133OSM    H9T14383   1.641   7.198   7.408 -0.1110  0.0245 -0.4731
  133OSM   C10S14384   1.735   7.283   7.592  0.1883 -0.1975  0.1904
  133OSM   H10S14385   1.658   7.235   7.655  1.1217 -0.3122  1.2563
  133OSM   H10T14386   1.696   7.387   7.584 -0.0769 -0.3040  0.1138
  133OSM   C11S14387   1.870   7.299   7.656  0.0161  1.1086  0.7404
  133OSM   H11S14388   1.931   7.386   7.624  1.8188 -0.2796  0.3027
  133OSM   H11T14389   1.928   7.206   7.641  0.5535  1.3134  1.5162
  133OSM   C12S14390   1.846   7.309   7.809 -0.0338 -0.1878  0.1053
  133OSM   H12S14391   1.806   7.213   7.848  0.5578 -1.0206 -1.2887
  133OSM   H12T14392   1.785   7.400   7.831 -1.0767 -0.8618  0.0081
  133OSM   C13S14393   1.975   7.329   7.884 -0.3598 -0.6022  1.3800
  133OSM   H13S14394   2.020   7.428   7.859  1.2707 -1.8460 -0.7580
  133OSM   H13T14395   2.046   7.253   7.846 -1.6976 -0.5867 -1.2519
  133OSM   C14S14396   1.958   7.322   8.039 -0.3069  0.1755 -0.3992
  133OSM   H14S14397   1.885   7.252   8.083  0.7372 -1.5334 -1.3240
  133OSM   H14T14398   1.904   7.418   8.053 -0.1794  0.1688  0.1578
  133OSM   C15S14399   2.090   7.330   8.122 -0.2739 -0.4363  0.3085
  133OSM   H15S14400   2.165   7.398   8.075 -2.0024  1.1655 -0.1988
  133OSM   H15T14401   2.147   7.235   8.112  0.1629 -0.0929 -0.5379
  133OSM   C16S14402   2.078   7.368   8.266  0.6171  0.3771  1.0725
  133OSM   H16S14403   2.180   7.376   8.309  1.5156 -1.0371 -0.7513
  133OSM   H16T14404   2.023   7.292   8.325  1.0085 -1.5496 -1.0169
  133OSM   C17S14405   1.998   7.501   8.282 -0.0268  0.2667 -0.7001
  133OSM   H17S14406   1.896   7.501   8.240 -0.7607  1.5242  1.0147
  133OSM   H17T14407   2.061   7.573   8.225  0.0512 -0.5817 -1.6865
  133OSM   C18S14408   1.982   7.548   8.432  0.0859 -0.3305 -0.1578
  133OSM   H18S14409   1.935   7.475   8.501 -4.6487  2.0074 -0.7016
  133OSM   H18T14410   1.914   7.636   8.438  0.7602  0.2196 -0.4100
  133OSM   H18U14411   2.084   7.582   8.463  1.2108 -1.4524 -2.4310
  133OSM    C1F14412   1.722   6.881   6.860 -0.3587  0.3967  0.5659
  133OSM     OF14413   1.789   6.793   6.815  0.0980  0.4723 -0.1110
  133OSM    C2F14414   1.633   6.872   6.969  0.5331 -0.8005 -0.8313
  133OSM    H2F14415   1.552   6.946   6.954 -1.0804 -1.8498  2.1623
  133OSM    H2G14416   1.695   6.902   7.057 -0.2029 -1.3474 -0.1206
  133OSM    C3F14417   1.570   6.740   6.995 -0.8517  0.2761 -0.5319
  133OSM    H3F14418   1.650   6.671   7.027 -1.1416 -0.3626 -1.1837
  133OSM    H3G14419   1.510   6.701   6.911 -3.7045  0.7022  1.2217
  133OSM    C4F14420   1.473   6.750   7.120  1.1773  0.1320  0.3507
  133OSM    H4F14421   1.390   6.818   7.092 -0.4743 -2.3535 -0.9628
  133OSM    H4G14422   1.529   6.795   7.204  0.2702  1.9473  0.0142
  133OSM    C5F14423   1.400   6.615   7.158 -0.2262 -0.1295  0.0124
  133OSM    H5F14424   1.483   6.545   7.182  0.3209  0.5761  0.1998
  133OSM    H5G14425   1.341   6.581   7.070  0.9765  1.4395 -1.4193
  133OSM    C6F14426   1.301   6.624   7.276  0.2463 -0.7872 -0.3666
  133OSM    H6F14427   1.261   6.523   7.296 -0.6469 -0.2607  0.5482
  133OSM    H6G14428   1.213   6.686   7.247  0.3013  0.2055  1.4861
  133OSM    C7F14429   1.362   6.680   7.404 -0.7978  0.1449  0.2656
  133OSM    H7F14430   1.312   6.771   7.444 -0.4806 -0.6058  2.4256
  133OSM    H7G14431   1.470   6.697   7.382 -0.5988  0.9606  1.7677
  133OSM    C8F14432   1.367   6.574   7.514  0.2100 -0.5141 -0.0418
  133OSM    H8F14433   1.429   6.621   7.593 -0.2715 -0.4730  0.3119
  133OSM    H8G14434   1.411   6.477   7.483 -0.8935 -0.3842 -2.1299
  133OSM    C9F14435   1.234   6.528   7.567  0.2781 -0.3629 -0.0260
  133OSM    H9F14436   1.175   6.620   7.579  0.0734 -0.5798  0.6878
  133OSM   C10F14437   1.178   6.408   7.585  0.8348 -0.2447 -0.5997
  133OSM   H10F14438   1.078   6.413   7.631  0.9618  0.5500 -0.3939
  133OSM   C11F14439   1.228   6.268   7.559 -0.7248 -0.1795  0.4164
  133OSM   H11F14440   1.306   6.273   7.480  2.8108 -0.8327  3.6986
  133OSM   H11G14441   1.146   6.209   7.513  1.7493 -2.3617 -1.3017
  133OSM   C12F14442   1.286   6.198   7.684 -0.1488  0.3444  0.2419
  133OSM   H12F14443   1.337   6.105   7.651  2.6011  2.2018 -0.9152
  133OSM   H12G14444   1.205   6.177   7.758 -1.1380 -2.7528 -1.6167
  133OSM   C13F14445   1.393   6.267   7.772 -0.8073 -0.0946 -0.0085
  133OSM   H13F14446   1.410   6.197   7.856  1.8366 -0.0207 -0.4335
  133OSM   H13G14447   1.368   6.370   7.804 -3.6894  0.1633 -2.7569
  133OSM   C14F14448   1.531   6.266   7.701  0.0646 -0.0793 -0.5142
  133OSM   H14F14449   1.546   6.342   7.622 -1.5360 -0.6434 -1.3850
  133OSM   H14G14450   1.542   6.167   7.652 -3.5175  0.5821 -2.8580
  133OSM   C15F14451   1.641   6.287   7.806  0.1456 -0.0793 -0.7326
  133OSM   H15F14452   1.643   6.220   7.894  0.5608  1.3162  0.3367
  133OSM   H15G14453   1.617   6.390   7.841 -1.2366 -1.1251  1.5000
  133OSM   C16F14454   1.784   6.271   7.747  0.1330 -0.4352  0.8633
  133OSM   H16F14455   1.792   6.338   7.659  1.8409  0.0591  1.3657
  133OSM   H16G14456   1.795   6.165   7.713 -1.0725  0.0086 -0.9341
  133OSM   C17F14457   1.901   6.301   7.847 -0.7664  0.2205  0.6099
  133OSM   H17F14458   1.894   6.233   7.935  1.9330  0.5327  1.1103
  133OSM   H17G14459   1.888   6.398   7.900 -2.9695 -0.1120  0.7358
  133OSM   C18F14460   2.046   6.293   7.788 -0.2239  0.1227 -0.3039
  133OSM   H18F14461   2.132   6.306   7.857  0.4935 -0.5722 -1.0708
  133OSM   H18G14462   2.050   6.372   7.710  0.8044  0.6663  0.3000
  133OSM   H18H14463   2.051   6.200   7.728  3.0406 -0.2670  0.5093
  134OSM      N14464   2.817   3.548   6.267 -0.0744 -0.0135  0.3626
  134OSM    C1514465   2.958   3.606   6.269 -0.6315  0.4967  0.4316
  134OSM   H15A14466   2.979   3.649   6.172  0.3034  2.4208  1.4595
  134OSM   H15B14467   3.032   3.533   6.298  1.2280  1.1174 -2.5059
  134OSM   H15C14468   2.964   3.690   6.337 -0.0651  0.4735  0.4085
  134OSM    C1414469   2.716   3.664   6.233  0.3621  0.8023 -0.5950
  134OSM   H14A14470   2.620   3.615   6.222  0.3959  0.8357 -1.0422
  134OSM   H14B14471   2.742   3.706   6.137  0.3268  0.0468 -0.9450
  134OSM   H14C14472   2.717   3.747   6.302  0.2371  0.9708 -0.7978
  134OSM    C1314473   2.796   3.442   6.163 -0.2051 -0.3563 -1.2118
  134OSM   H13A14474   2.839   3.347   6.189 -1.8620 -1.5427 -2.7523
  134OSM   H13B14475   2.828   3.481   6.067  2.9048 -0.1211 -0.1440
  134OSM   H13C14476   2.688   3.434   6.165 -0.2603  0.4021  0.0320
  134OSM    C1214477   2.785   3.490   6.403  0.0274  0.1115 -0.1055
  134OSM   H12A14478   2.794   3.572   6.474 -0.5854  0.4917 -0.4651
  134OSM   H12B14479   2.851   3.413   6.439 -0.7508 -1.6707 -2.3654
  134OSM    C1114480   2.639   3.441   6.417  0.7352  0.1839 -0.0768
  134OSM   H11A14481   2.636   3.373   6.504 -0.9188  0.9185  0.4538
  134OSM   H11B14482   2.605   3.389   6.325 -0.8162  0.3544  0.3865
  134OSM      P14483   2.392   3.547   6.441  0.0672 -0.4637  0.0293
  134OSM    O1314484   2.364   3.691   6.425 -0.2665  0.1095 -0.2997
  134OSM    O1414485   2.346   3.453   6.337 -0.4272 -0.1195  0.1166
  134OSM    O1114486   2.360   3.491   6.584  0.6554 -0.3410 -0.8514
  134OSM    O1214487   2.547   3.550   6.444  0.6942 -0.0178 -0.4405
  134OSM    C1S14488   2.420   3.530   6.705 -0.0649 -0.2021  0.0052
  134OSM    H1S14489   2.378   3.628   6.736  1.0527  0.6598 -1.1750
  134OSM    H1T14490   2.528   3.552   6.691  0.0359 -0.3514  0.5541
  134OSM     NF14491   2.431   3.454   6.933 -0.2495  0.0519 -0.5782
  134OSM    HNF14492   2.519   3.422   6.968 -0.2618 -0.6346 -1.1593
  134OSM    C2S14493   2.397   3.412   6.800 -0.4469  0.5539  0.1855
  134OSM    H2S14494   2.290   3.384   6.797  0.0794 -1.8119  1.7065
  134OSM    C3S14495   2.480   3.286   6.754  0.2440  0.3056  0.3555
  134OSM    H3S14496   2.583   3.324   6.735  0.6967 -0.2253  1.6583
  134OSM     O314497   2.417   3.224   6.639 -0.1637 -0.0258  0.0588
  134OSM    HO314498   2.370   3.298   6.601  0.5672  1.1010  1.3281
  134OSM    C4S14499   2.490   3.190   6.869 -0.0428 -0.9617  0.3775
  134OSM    H4S14500   2.389   3.171   6.906  0.1474  0.0418  1.4576
  134OSM    C5S14501   2.595   3.131   6.920  0.2309  0.5420 -0.0515
  134OSM    H5S14502   2.695   3.156   6.883 -0.6929 -0.2363 -3.2683
  134OSM    C6S14503   2.605   3.040   7.036  0.0612  0.0401 -0.0309
  134OSM    H6S14504   2.708   2.997   7.033 -0.0945 -0.2483 -1.6696
  134OSM    H6T14505   2.538   2.952   7.030 -1.4706  1.2898 -1.5045
  134OSM    C7S14506   2.575   3.110   7.171 -0.2154 -0.3647 -0.2810
  134OSM    H7S14507   2.540   3.035   7.245  0.3679  0.3824  0.7701
  134OSM    H7T14508   2.486   3.177   7.160 -0.6424 -0.9661 -0.5154
  134OSM    C8S14509   2.696   3.192   7.229  0.6878  0.5309  0.0278
  134OSM    H8S14510   2.716   3.269   7.153 -0.3052  0.9768  0.2026
  134OSM    H8T14511   2.781   3.123   7.250 -0.7301 -1.7122 -1.4132
  134OSM    C9S14512   2.656   3.282   7.345  0.1979 -0.2232 -0.4121
  134OSM    H9S14513   2.562   3.340   7.333 -0.0988 -0.8480 -1.0771
  134OSM    H9T14514   2.737   3.357   7.360  0.7012 -0.1089 -3.4920
  134OSM   C10S14515   2.649   3.206   7.474 -0.3418 -0.5488  0.5716
  134OSM   H10S14516   2.748   3.165   7.503  0.2987  0.2953 -0.3977
  134OSM   H10T14517   2.585   3.114   7.467 -0.1761 -0.7206  1.2850
  134OSM   C11S14518   2.597   3.278   7.589  0.2539  0.0687 -0.6853
  134OSM   H11S14519   2.486   3.277   7.593  0.2389 -0.9064 -1.2536
  134OSM   H11T14520   2.626   3.385   7.588 -1.2853  0.4974 -0.9570
  134OSM   C12S14521   2.644   3.215   7.717 -0.0681  0.4593 -0.2677
  134OSM   H12S14522   2.755   3.216   7.717 -0.0703  2.3360 -0.2425
  134OSM   H12T14523   2.606   3.110   7.715  0.0469  0.4391 -1.6081
  134OSM   C13S14524   2.610   3.298   7.839  0.1758 -0.0974  0.3321
  134OSM   H13S14525   2.501   3.279   7.848 -0.1140  0.7080 -1.3888
  134OSM   H13T14526   2.624   3.407   7.825  1.1881 -0.2526  0.1385
  134OSM   C14S14527   2.666   3.243   7.965 -0.0354  0.0261  0.5110
  134OSM   H14S14528   2.773   3.212   7.966 -0.3267 -1.0463 -0.3193
  134OSM   H14T14529   2.610   3.150   7.990 -0.4780  0.2972  0.5393
  134OSM   C15S14530   2.647   3.340   8.078 -0.3420 -0.3892 -0.3595
  134OSM   H15S14531   2.560   3.405   8.055 -0.5136 -0.6379 -0.4143
  134OSM   H15T14532   2.728   3.415   8.079 -0.5467 -0.1377  3.0473
  134OSM   C16S14533   2.636   3.274   8.218 -0.1043 -0.1488  0.1197
  134OSM   H16S14534   2.727   3.230   8.265  1.0936  1.4191 -0.6618
  134OSM   H16T14535   2.565   3.192   8.195  1.1153 -1.5352  1.2068
  134OSM   C17S14536   2.563   3.358   8.321  0.3018 -0.1975 -0.6817
  134OSM   H17S14537   2.461   3.387   8.290  0.7334  0.8557 -1.1324
  134OSM   H17T14538   2.625   3.449   8.334  0.4746 -0.5817  1.4645
  134OSM   C18S14539   2.552   3.295   8.468 -0.4560  0.1326 -0.7876
  134OSM   H18S14540   2.452   3.249   8.475 -0.4741  0.5467  2.0193
  134OSM   H18T14541   2.571   3.376   8.542  1.4826 -0.4561 -0.5943
  134OSM   H18U14542   2.632   3.220   8.484  0.8750  2.0694  2.0090
  134OSM    C1F14543   2.340   3.526   6.997 -0.2487  0.6810  0.3076
  134OSM     OF14544   2.245   3.581   6.945  0.3179 -0.0552 -0.2542
  134OSM    C2F14545   2.363   3.536   7.151 -0.1882  0.4392  0.1202
  134OSM    H2F14546   2.473   3.531   7.166 -0.1033  0.7408 -0.3925
  134OSM    H2G14547   2.329   3.438   7.190 -1.9774  1.0968  0.2847
  134OSM    C3F14548   2.308   3.661   7.219  0.0735 -0.3336 -0.2284
  134OSM    H3F14549   2.219   3.698   7.163  1.7047  2.8100 -0.7994
  134OSM    H3G14550   2.382   3.742   7.207  0.8098 -0.4801  2.9468
  134OSM    C4F14551   2.277   3.641   7.364 -0.0826 -0.3576 -1.1102
  134OSM    H4F14552   2.366   3.595   7.411  0.5440  1.6100 -0.3197
  134OSM    H4G14553   2.195   3.566   7.371 -1.4320  1.0298 -1.6740
  134OSM    C5F14554   2.252   3.773   7.433 -0.4482  1.0348 -0.3110
  134OSM    H5F14555   2.178   3.824   7.368 -0.0979 -1.5392 -2.8416
  134OSM    H5G14556   2.344   3.836   7.432 -0.5640  1.2170  0.2466
  134OSM    C6F14557   2.213   3.765   7.582  0.0532 -0.0306 -0.5001
  134OSM    H6F14558   2.128   3.695   7.597  0.7276 -0.4174  1.6719
  134OSM    H6G14559   2.185   3.867   7.617 -0.9228 -0.4022 -0.1762
  134OSM    C7F14560   2.317   3.706   7.681  0.1633  0.2227  0.0281
  134OSM    H7F14561   2.411   3.766   7.675  0.3013  0.2185  1.8431
  134OSM    H7G14562   2.336   3.601   7.650  3.1611  1.2600 -1.9743
  134OSM    C8F14563   2.263   3.705   7.825 -0.5611  0.3662  0.9998
  134OSM    H8F14564   2.159   3.666   7.815  0.4321 -1.9268 -0.9502
  134OSM    H8G14565   2.245   3.810   7.859  0.1470  0.5066  0.9368
  134OSM    C9F14566   2.336   3.611   7.918 -0.0091 -0.6429  0.8264
  134OSM    H9F14567   2.413   3.552   7.868  0.8890  1.4505 -0.3378
  134OSM   C10F14568   2.316   3.599   8.050  0.1400 -0.5142  0.6082
  134OSM   H10F14569   2.392   3.552   8.114  0.0549  0.8149  1.6891
  134OSM   C11F14570   2.220   3.683   8.123  0.0235 -0.7200 -0.2961
  134OSM   H11F14571   2.155   3.723   8.042 -0.6937  1.8710  1.4816
  134OSM   H11G14572   2.255   3.777   8.170  1.4806 -1.1574 -0.4756
  134OSM   C12F14573   2.115   3.611   8.213  0.1548  0.6967  0.4127
  134OSM   H12F14574   2.083   3.526   8.149  0.0179  2.0717 -1.3848
  134OSM   H12G14575   2.023   3.672   8.217  1.3315  2.5213  0.1949
  134OSM   C13F14576   2.159   3.564   8.351  0.8226 -0.0489  0.2335
  134OSM   H13F14577   2.190   3.642   8.423 -1.1601  1.6456 -0.7055
  134OSM   H13G14578   2.253   3.507   8.337  1.1889 -0.0857  2.6077
  134OSM   C14F14579   2.047   3.484   8.416  0.2417 -0.1399 -0.1136
  134OSM   H14F14580   2.010   3.408   8.345 -0.0728 -0.9805  0.9399
  134OSM   H14G14581   1.962   3.553   8.438 -0.6002 -0.7539 -1.3566
  134OSM   C15F14582   2.093   3.423   8.550  0.5287  0.0410  0.3817
  134OSM   H15F14583   2.097   3.509   8.619 -1.2032  0.3435  0.1421
  134OSM   H15G14584   2.181   3.355   8.538 -0.4696 -1.5997  1.9965
  134OSM   C16F14585   1.984   3.328   8.602  0.3457 -0.7948 -0.0393
  134OSM   H16F14586   2.015   3.274   8.694  0.6619 -0.3186  0.1371
  134OSM   H16G14587   1.967   3.251   8.524 -2.0654 -0.8849  0.5314
  134OSM   C17F14588   1.854   3.393   8.636  0.7940 -0.1910 -0.3225
  134OSM   H17F14589   1.780   3.316   8.606  1.5785 -0.9514 -0.3092
  134OSM   H17G14590   1.830   3.476   8.566 -2.3579  0.9507  1.9842
  134OSM   C18F14591   1.820   3.438   8.782  0.6342  0.5489 -0.4434
  134OSM   H18F14592   1.826   3.347   8.845 -0.1234  0.6503 -0.2125
  134OSM   H18G14593   1.712   3.467   8.782  0.9588  1.8428 -1.7150
  134OSM   H18H14594   1.886   3.517   8.825  1.1597 -0.6160  0.9401
  135OSM      N14595   2.021   3.435   6.047 -0.3664  0.5610  0.1956
  135OSM    C1514596   2.031   3.563   5.982 -0.4552  0.1952  0.3064
  135OSM   H15A14597   1.994   3.645   6.042  1.9288  1.7616 -0.3056
  135OSM   H15B14598   1.972   3.560   5.892  0.1635 -1.4061 -0.0661
  135OSM   H15C14599   2.134   3.592   5.967 -0.6481  0.5582 -0.3445
  135OSM    C1414600   1.880   3.387   6.032 -0.0621  0.3691  0.2610
  135OSM   H14A14601   1.809   3.432   6.100 -0.8784 -1.9606  1.0090
  135OSM   H14B14602   1.874   3.281   6.055  0.2341 -0.4612 -3.2940
  135OSM   H14C14603   1.837   3.391   5.933 -2.6624  0.7433  1.3585
  135OSM    C1314604   2.099   3.333   5.963  1.3611  0.5655 -0.5693
  135OSM   H13A14605   2.200   3.367   5.944  1.4593  0.2754 -0.5792
  135OSM   H13B14606   2.048   3.331   5.867 -0.5824  2.9771  0.3431
  135OSM   H13C14607   2.102   3.238   6.014 -1.1851  1.2669  1.0000
  135OSM    C1214608   2.055   3.447   6.192 -0.4915  0.1189 -0.3853
  135OSM   H12A14609   2.155   3.480   6.213 -0.3086 -0.2150 -0.7456
  135OSM   H12B14610   2.046   3.347   6.231 -0.2127  1.0163  2.0817
  135OSM    C1114611   1.964   3.547   6.281 -0.5057  0.5611 -0.3082
  135OSM   H11A14612   1.995   3.525   6.385  1.5719  2.9843 -0.3674
  135OSM   H11B14613   1.856   3.526   6.267 -0.3956 -1.1287  1.2289
  135OSM      P14614   1.936   3.813   6.291 -0.1873  0.4375 -0.4307
  135OSM    O1314615   2.039   3.916   6.276  0.3738 -0.5816 -0.1002
  135OSM    O1414616   1.802   3.816   6.219 -0.2406  0.3122  0.2942
  135OSM    O1114617   1.921   3.782   6.448 -0.2249 -0.8330  0.1020
  135OSM    O1214618   2.003   3.677   6.239 -0.3293  0.6368 -0.4214
  135OSM    C1S14619   2.037   3.782   6.534 -0.6555  0.0979 -1.1162
  135OSM    H1S14620   2.084   3.883   6.538 -2.3814  0.8551  0.9563
  135OSM    H1T14621   2.112   3.703   6.512  0.2959  0.6158  0.2324
  135OSM     NF14622   2.123   3.773   6.766  0.0052 -0.3135  0.4530
  135OSM    HNF14623   2.184   3.704   6.804  1.8928  1.0866  0.0532
  135OSM    C2S14624   2.003   3.748   6.688  0.4014  0.0357  0.4231
  135OSM    H2S14625   1.920   3.815   6.719 -0.1083  0.8576 -2.6161
  135OSM    C3S14626   1.951   3.591   6.691 -0.2080 -1.2120 -0.5740
  135OSM    H3S14627   2.038   3.529   6.660 -0.0489 -2.2156  1.7562
  135OSM     O314628   1.830   3.567   6.616 -0.0493  0.4205 -0.4017
  135OSM    HO314629   1.834   3.646   6.562  0.3530 -0.4319 -1.6389
  135OSM    C4S14630   1.924   3.549   6.839 -0.5010 -0.7089 -0.7503
  135OSM    H4S14631   2.010   3.498   6.887 -0.7061  0.2071  0.6235
  135OSM    C5S14632   1.804   3.555   6.906 -0.0151 -0.2301 -0.0113
  135OSM    H5S14633   1.719   3.598   6.850  2.1034  3.7871 -0.3069
  135OSM    C6S14634   1.779   3.501   7.047 -0.0480 -0.4319  0.5497
  135OSM    H6S14635   1.838   3.410   7.074 -0.1909 -0.4678  0.7429
  135OSM    H6T14636   1.679   3.454   7.032  0.0988 -0.4777 -0.3079
  135OSM    C7S14637   1.773   3.583   7.173  0.2718  0.6548  0.2940
  135OSM    H7S14638   1.688   3.651   7.154 -1.4229 -1.5122 -0.1499
  135OSM    H7T14639   1.863   3.647   7.179  1.1136 -0.4133 -0.5312
  135OSM    C8S14640   1.757   3.511   7.311 -0.1950  0.1621  0.4585
  135OSM    H8S14641   1.831   3.429   7.300 -0.4150 -0.0142  0.2876
  135OSM    H8T14642   1.652   3.474   7.317 -0.0933 -0.3856 -0.8618
  135OSM    C9S14643   1.785   3.598   7.434  0.0377 -0.1465 -1.0527
  135OSM    H9S14644   1.713   3.681   7.417 -0.2069  0.2093  1.5019
  135OSM    H9T14645   1.888   3.641   7.439  0.4796 -1.2551 -0.3850
  135OSM   C10S14646   1.753   3.540   7.572  0.3502  0.0605 -0.1524
  135OSM   H10S14647   1.823   3.454   7.582  0.2712  0.0334  0.1727
  135OSM   H10T14648   1.650   3.498   7.572  0.8533 -1.2201  1.1548
  135OSM   C11S14649   1.813   3.625   7.691  0.4317  0.2826  0.4304
  135OSM   H11S14650   1.747   3.714   7.708 -1.5823 -1.3084  1.1945
  135OSM   H11T14651   1.919   3.652   7.674  1.1896 -3.0852 -0.5164
  135OSM   C12S14652   1.792   3.547   7.818  0.1081 -0.2200  0.6430
  135OSM   H12S14653   1.866   3.465   7.808  0.5520  0.3887 -1.1396
  135OSM   H12T14654   1.692   3.497   7.818  0.1674 -0.3370  0.0114
  135OSM   C13S14655   1.836   3.604   7.958  0.5908 -0.0404  0.2099
  135OSM   H13S14656   1.932   3.658   7.951 -0.1967  1.3259 -0.1325
  135OSM   H13T14657   1.856   3.517   8.025  0.1329  0.8585  1.5259
  135OSM   C14S14658   1.715   3.685   8.017  0.0380 -0.1184  0.5131
  135OSM   H14S14659   1.624   3.623   8.004  0.0698 -0.0828  0.1083
  135OSM   H14T14660   1.694   3.782   7.965 -2.3981 -0.5242  0.6717
  135OSM   C15S14661   1.731   3.715   8.167  0.0615  0.1201 -0.0616
  135OSM   H15S14662   1.804   3.793   8.198  1.5201 -1.5688  0.8627
  135OSM   H15T14663   1.754   3.621   8.222 -0.9256  1.1691  2.2201
  135OSM   C16S14664   1.594   3.754   8.225 -0.1141 -0.6248 -0.6297
  135OSM   H16S14665   1.505   3.689   8.214  0.1841 -1.3288  0.9648
  135OSM   H16T14666   1.564   3.853   8.185  1.5906 -0.2548 -1.0513
  135OSM   C17S14667   1.606   3.778   8.373 -0.7996 -0.1868  0.0504
  135OSM   H17S14668   1.517   3.829   8.415 -0.4585 -0.8843  1.6574
  135OSM   H17T14669   1.682   3.857   8.390  0.1666 -1.4755  1.9111
  135OSM   C18S14670   1.633   3.650   8.455  1.6222 -0.2884 -0.5027
  135OSM   H18S14671   1.725   3.596   8.421 -0.7266 -2.7592 -3.1618
  135OSM   H18T14672   1.549   3.578   8.451  2.8849 -1.8586  0.7219
  135OSM   H18U14673   1.667   3.679   8.557 -0.5965  0.0825  0.1507
  135OSM    C1F14674   2.161   3.899   6.793  0.0487  0.3270 -0.6381
  135OSM     OF14675   2.086   3.998   6.776 -0.9968  0.1770  0.2385
  135OSM    C2F14676   2.295   3.911   6.860  0.2805  0.1988  0.3415
  135OSM    H2F14677   2.371   3.885   6.784 -3.3690 -3.9859 -2.1206
  135OSM    H2G14678   2.292   3.822   6.927 -1.7281 -0.8607 -1.1010
  135OSM    C3F14679   2.302   4.043   6.933  0.3411  0.5944 -0.1896
  135OSM    H3F14680   2.265   4.129   6.873 -0.4792  0.9183  0.7642
  135OSM    H3G14681   2.410   4.059   6.954  0.9144 -2.6428 -0.4067
  135OSM    C4F14682   2.231   4.038   7.068  1.1124  0.3889 -0.5016
  135OSM    H4F14683   2.251   3.941   7.117 -2.1172  1.3810  3.0707
  135OSM    H4G14684   2.122   4.054   7.052  0.4279 -0.3902  2.9970
  135OSM    C5F14685   2.272   4.148   7.158 -0.0903 -0.6422 -0.2916
  135OSM    H5F14686   2.187   4.219   7.166  1.9359  1.5886  2.1002
  135OSM    H5G14687   2.362   4.204   7.125  0.7295  0.1696  3.1272
  135OSM    C6F14688   2.290   4.097   7.301 -0.0203  0.5108 -0.0844
  135OSM    H6F14689   2.346   4.001   7.289 -0.0801  0.6771 -1.7902
  135OSM    H6G14690   2.196   4.059   7.345  0.1775  0.4584  0.3023
  135OSM    C7F14691   2.360   4.195   7.391 -0.5246 -0.1205 -0.9626
  135OSM    H7F14692   2.295   4.279   7.422 -1.6539 -2.2726  2.7920
  135OSM    H7G14693   2.442   4.246   7.337  0.1294 -0.0779  0.0650
  135OSM    C8F14694   2.432   4.132   7.508  0.8823 -0.8477 -0.2948
  135OSM    H8F14695   2.535   4.115   7.472  0.5252  1.3308 -2.4282
  135OSM    H8G14696   2.390   4.038   7.550 -3.8758  2.2079  2.4107
  135OSM    C9F14697   2.447   4.241   7.616 -0.1964  0.0305 -0.6286
  135OSM    H9F14698   2.440   4.348   7.588  0.3743  0.2812  0.1947
  135OSM   C10F14699   2.473   4.211   7.748  1.0662  0.1753 -1.0939
  135OSM   H10F14700   2.490   4.291   7.823  1.2420 -0.1808 -0.7521
  135OSM   C11F14701   2.496   4.071   7.803 -0.4233 -0.3160  0.3081
  135OSM   H11F14702   2.604   4.075   7.828  0.0516  0.0462 -1.7296
  135OSM   H11G14703   2.486   3.989   7.729 -0.5324 -1.1635  1.2412
  135OSM   C12F14704   2.421   4.032   7.934 -0.0523 -0.3438  0.4497
  135OSM   H12F14705   2.423   3.925   7.965 -2.2027 -0.9866 -1.4806
  135OSM   H12G14706   2.313   4.036   7.909 -0.5131 -0.1348  2.3717
  135OSM   C13F14707   2.456   4.110   8.056 -0.6200  0.4126 -0.2884
  135OSM   H13F14708   2.424   4.216   8.046  1.2449  0.9416 -0.8979
  135OSM   H13G14709   2.563   4.105   8.084 -0.1073 -1.0596 -2.4092
  135OSM   C14F14710   2.404   4.064   8.192 -0.4786 -0.1776  0.2197
  135OSM   H14F14711   2.460   4.113   8.276  1.1127  2.4422 -2.2656
  135OSM   H14G14712   2.434   3.958   8.203 -1.3075 -0.2391  2.1105
  135OSM   C15F14713   2.249   4.081   8.198  0.2853  0.3654 -0.2781
  135OSM   H15F14714   2.195   3.996   8.151  0.0668  0.1005  0.4446
  135OSM   H15G14715   2.212   4.166   8.137  0.3358 -0.1191 -0.9752
  135OSM   C16F14716   2.207   4.097   8.343  0.2965  0.4810 -0.5609
  135OSM   H16F14717   2.250   4.190   8.387  1.7312 -0.0020 -0.9461
  135OSM   H16G14718   2.247   4.015   8.407 -0.3006  1.9354  1.7510
  135OSM   C17F14719   2.056   4.111   8.367  0.7865 -0.3462 -1.2956
  135OSM   H17F14720   1.998   4.168   8.292 -1.3660  1.2680  1.4785
  135OSM   H17G14721   2.029   4.166   8.460  2.1268  0.2744 -1.2591
  135OSM   C18F14722   1.992   3.969   8.375  0.5333  0.8665  0.3673
  135OSM   H18F14723   2.006   3.932   8.479 -1.2292  0.4821  0.4770
  135OSM   H18G14724   2.047   3.899   8.309  2.6034  1.4519  1.4077
  135OSM   H18H14725   1.887   3.966   8.341 -0.2501  1.1309  2.6594
  136OSM      N14726   0.293   4.347   5.904  0.4037 -0.3380  0.0767
  136OSM    C1514727   0.177   4.282   5.975 -0.4498  0.1660  0.1845
  136OSM   H15A14728   0.114   4.242   5.897 -0.1779 -3.1866  1.5830
  136OSM   H15B14729   0.126   4.349   6.042  1.1848  3.9009 -2.1074
  136OSM   H15C14730   0.217   4.192   6.019 -1.4413 -1.4463 -2.0642
  136OSM    C1414731   0.377   4.251   5.819  0.3329 -0.6327  0.2369
  136OSM   H14A14732   0.462   4.308   5.785  0.2087 -0.6022 -0.0291
  136OSM   H14B14733   0.327   4.222   5.727 -0.8437  2.3246 -0.1066
  136OSM   H14C14734   0.402   4.165   5.879  1.4327 -1.3981 -1.2882
  136OSM    C1314735   0.228   4.451   5.818 -0.6776  0.1290  0.0834
  136OSM   H13A14736   0.180   4.518   5.888  1.3794  0.7238  0.9430
  136OSM   H13B14737   0.160   4.408   5.745  1.5757 -0.8707 -1.4870
  136OSM   H13C14738   0.311   4.498   5.768  0.6150 -0.6908  1.4241
  136OSM    C1214739   0.381   4.414   6.015  0.1964  0.3866 -0.2316
  136OSM   H12A14740   0.455   4.480   5.972 -1.4122  2.1518 -0.4016
  136OSM   H12B14741   0.435   4.332   6.058  0.6766  1.1221  0.5801
  136OSM    C1114742   0.313   4.489   6.123 -0.0898 -0.6773 -0.1030
  136OSM   H11A14743   0.382   4.511   6.207 -0.1946  0.9210 -0.4184
  136OSM   H11B14744   0.235   4.428   6.174  0.6734 -2.5880 -1.1541
  136OSM      P14745   0.346   4.734   6.032  0.0819  0.1796  0.0067
  136OSM    O1314746   0.477   4.685   5.994 -0.2595  0.7635 -0.2434
  136OSM    O1414747   0.270   4.803   5.926  0.3569  0.3518 -0.0114
  136OSM    O1114748   0.355   4.829   6.157 -0.2603  0.0729 -0.5522
  136OSM    O1214749   0.257   4.614   6.082 -0.3108 -0.2915 -0.2596
  136OSM    C1S14750   0.249   4.855   6.254 -0.3048 -0.4040 -0.2787
  136OSM    H1S14751   0.171   4.776   6.252 -0.3461 -0.3993  0.9612
  136OSM    H1T14752   0.207   4.955   6.231  2.3861  1.0305  0.7642
  136OSM     NF14753   0.191   4.890   6.489  0.2135  0.2717 -0.3721
  136OSM    HNF14754   0.146   4.977   6.505 -1.2553 -0.8279  1.6525
  136OSM    C2S14755   0.306   4.876   6.401 -0.0615  0.5805  0.1542
  136OSM    H2S14756   0.358   4.786   6.440  3.4816  1.4079 -2.4449
  136OSM    C3S14757   0.412   4.992   6.399 -0.1590  0.8009  0.0645
  136OSM    H3S14758   0.357   5.086   6.376 -0.5901  0.2515 -1.1734
  136OSM     O314759   0.512   4.985   6.302  0.1168  0.3551 -0.1701
  136OSM    HO314760   0.485   4.912   6.245 -0.1646 -0.0130  0.4176
  136OSM    C4S14761   0.469   5.017   6.538  0.0890 -0.0038  0.4245
  136OSM    H4S14762   0.420   5.102   6.587  0.5745  0.1523  0.6353
  136OSM    C5S14763   0.574   4.955   6.593 -0.4090  0.1442 -0.4923
  136OSM    H5S14764   0.636   4.890   6.530 -0.8222  0.5908 -1.3719
  136OSM    C6S14765   0.623   4.987   6.732 -0.1255 -0.6422  0.1042
  136OSM    H6S14766   0.554   5.063   6.773  1.6721  1.0883 -0.0184
  136OSM    H6T14767   0.723   5.032   6.716 -0.6591  0.7046  0.4773
  136OSM    C7S14768   0.617   4.870   6.829  0.3550 -0.2745  0.0666
  136OSM    H7S14769   0.689   4.791   6.797 -1.0766 -2.1760  1.4118
  136OSM    H7T14770   0.518   4.819   6.837  1.2098 -1.9435  0.3089
  136OSM    C8S14771   0.661   4.903   6.967 -0.8607 -0.3759  0.5812
  136OSM    H8S14772   0.588   4.976   7.008 -1.7267 -2.1342  2.2249
  136OSM    H8T14773   0.766   4.939   6.977 -0.3590 -1.7061  0.1575
  136OSM    C9S14774   0.641   4.782   7.062  0.3025 -0.4759  0.0806
  136OSM    H9S14775   0.714   4.703   7.035  0.8457 -0.3148  1.0505
  136OSM    H9T14776   0.536   4.748   7.047 -0.9429  3.5180 -0.7403
  136OSM   C10S14777   0.673   4.831   7.201 -0.8681  0.2084 -1.1556
  136OSM   H10S14778   0.601   4.913   7.223 -0.1396  1.4314 -3.2162
  136OSM   H10T14779   0.776   4.871   7.204 -1.0031  0.6947 -2.5679
  136OSM   C11S14780   0.658   4.725   7.309 -0.3566  0.6512  0.6139
  136OSM   H11S14781   0.713   4.632   7.286 -1.5464  0.4017 -1.3131
  136OSM   H11T14782   0.556   4.681   7.317  0.8766 -2.3698  0.0216
  136OSM   C12S14783   0.700   4.768   7.453 -0.4302  0.7931 -0.2641
  136OSM   H12S14784   0.756   4.864   7.448 -1.9706  1.7960  1.2643
  136OSM   H12T14785   0.775   4.698   7.496  1.0289  1.1090 -2.2403
  136OSM   C13S14786   0.576   4.768   7.543  0.4163  0.7746 -0.0164
  136OSM   H13S14787   0.542   4.666   7.568  0.5978  0.6728 -0.1745
  136OSM   H13T14788   0.494   4.812   7.482 -0.1612  0.0259  0.2179
  136OSM   C14S14789   0.604   4.849   7.674 -0.3559 -0.1528 -0.3783
  136OSM   H14S14790   0.624   4.949   7.630  0.3675  0.2732  0.8915
  136OSM   H14T14791   0.685   4.809   7.739  0.6999 -1.0843 -2.2224
  136OSM   C15S14792   0.483   4.870   7.770  0.1197 -0.4780  0.5535
  136OSM   H15S14793   0.444   4.769   7.796  0.3315 -0.2943  1.6132
  136OSM   H15T14794   0.401   4.916   7.711  0.8267 -0.2577 -0.2679
  136OSM   C16S14795   0.512   4.958   7.893  0.2477  0.4132 -0.2286
  136OSM   H16S14796   0.526   5.064   7.862 -1.7211  0.0614 -2.4619
  136OSM   H16T14797   0.607   4.922   7.936 -1.3213 -1.7451  1.5753
  136OSM   C17S14798   0.404   4.949   8.001  0.4245  0.1161  0.0578
  136OSM   H17S14799   0.307   4.990   7.966  0.4320 -0.8441 -1.0922
  136OSM   H17T14800   0.442   5.022   8.077 -0.1612  0.5650 -0.0836
  136OSM   C18S14801   0.375   4.808   8.065  0.2077 -0.1590 -0.0710
  136OSM   H18S14802   0.278   4.812   8.118 -0.3489  2.0685 -1.2070
  136OSM   H18T14803   0.461   4.783   8.132 -0.5583 -2.0706  0.2159
  136OSM   H18U14804   0.369   4.729   7.987 -1.7627 -0.6407  0.5344
  136OSM    C1F14805   0.121   4.786   6.525 -0.6178 -0.0222 -0.1638
  136OSM     OF14806   0.140   4.672   6.490 -0.1890 -0.2026  0.2130
  136OSM    C2F14807   0.018   4.825   6.631  0.0643  0.2570  0.1451
  136OSM    H2F14808  -0.069   4.855   6.569  1.2015 -1.2439 -2.2591
  136OSM    H2G14809   0.047   4.916   6.687  2.1034 -0.4511  0.3012
  136OSM    C3F14810  -0.032   4.711   6.721 -0.2682  0.7069 -0.8870
  136OSM    H3F14811   0.044   4.693   6.800  0.0248  0.3851 -1.2413
  136OSM    H3G14812  -0.038   4.615   6.665 -0.5021  0.5599 -0.6071
  136OSM    C4F14813  -0.164   4.736   6.792 -0.0323  0.5739  0.1088
  136OSM    H4F14814  -0.193   4.647   6.851  0.8466 -0.4887 -1.0495
  136OSM    H4G14815  -0.250   4.763   6.726 -0.6579  0.4890  0.8916
  136OSM    C5F14816  -0.158   4.843   6.902 -0.0117  0.1815  0.0621
  136OSM    H5F14817  -0.254   4.864   6.954 -0.6162  1.1548 -1.3995
  136OSM    H5G14818  -0.120   4.939   6.860 -0.2442  1.4968  2.7530
  136OSM    C6F14819  -0.049   4.809   7.013  0.1116  0.0288 -1.4486
  136OSM    H6F14820   0.054   4.802   6.973  0.3536  0.7713 -0.9581
  136OSM    H6G14821  -0.078   4.706   7.044  1.0590  0.9582  2.7602
  136OSM    C7F14822  -0.050   4.910   7.133  0.1434 -0.2607 -0.1012
  136OSM    H7F14823  -0.154   4.946   7.147  0.9677  1.7032  1.4064
  136OSM    H7G14824   0.022   4.995   7.121 -1.2186  0.8090 -0.7647
  136OSM    C8F14825  -0.013   4.836   7.259 -0.5256 -0.1309  0.7594
  136OSM    H8F14826   0.085   4.784   7.252 -0.8539 -0.8242  1.2611
  136OSM    H8G14827  -0.089   4.755   7.273  0.4708 -1.2578 -0.2096
  136OSM    C9F14828   0.010   4.927   7.372 -0.6059 -0.0369 -0.3011
  136OSM    H9F14829   0.084   5.006   7.353 -2.2555  0.9873 -2.6404
  136OSM   C10F14830  -0.055   4.918   7.490 -0.0747  1.0193  0.0647
  136OSM   H10F14831  -0.025   4.990   7.568  2.7719  0.3899 -0.4151
  136OSM   C11F14832  -0.170   4.826   7.520  0.2547 -0.3376 -0.0543
  136OSM   H11F14833  -0.230   4.803   7.430 -0.9677  1.2717  0.3164
  136OSM   H11G14834  -0.237   4.876   7.594  0.2788  0.1759 -0.3758
  136OSM   C12F14835  -0.127   4.693   7.571  0.2774 -0.2634  0.2531
  136OSM   H12F14836  -0.053   4.656   7.497 -0.0347 -2.2373  0.8970
  136OSM   H12G14837  -0.210   4.622   7.586 -1.2956  1.1863 -1.3184
  136OSM   C13F14838  -0.044   4.697   7.697 -0.3482  1.1222  0.0055
  136OSM   H13F14839   0.051   4.750   7.673  0.6023 -0.7190 -0.3793
  136OSM   H13G14840  -0.012   4.597   7.733 -1.3006  1.1203  0.8779
  136OSM   C14F14841  -0.126   4.757   7.806  0.5754  0.2905 -0.0696
  136OSM   H14F14842  -0.231   4.721   7.800  0.9865 -0.7340 -1.5376
  136OSM   H14G14843  -0.126   4.867   7.792 -0.5752  0.2204 -0.6866
  136OSM   C15F14844  -0.077   4.723   7.947 -0.2080 -0.5808 -0.2203
  136OSM   H15F14845   0.027   4.761   7.959  0.3492 -0.9001 -3.4865
  136OSM   H15G14846  -0.076   4.613   7.963 -0.3612 -0.8240 -1.8118
  136OSM   C16F14847  -0.159   4.796   8.060 -0.6571 -0.3742 -0.4987
  136OSM   H16F14848  -0.268   4.782   8.051 -0.8075  0.5512 -0.2179
  136OSM   H16G14849  -0.144   4.906   8.053  0.3223 -0.2605  2.4209
  136OSM   C17F14850  -0.120   4.741   8.201 -1.1385  0.0196 -0.3793
  136OSM   H17F14851  -0.017   4.769   8.232 -1.5096  0.0148  0.9001
  136OSM   H17G14852  -0.115   4.630   8.200 -1.4872 -0.0362  1.8181
  136OSM   C18F14853  -0.217   4.788   8.315 -1.2913  0.2956 -0.4547
  136OSM   H18F14854  -0.260   4.887   8.289  0.0666  0.4404 -2.2795
  136OSM   H18G14855  -0.162   4.803   8.410 -0.8433  1.2756 -0.8576
  136OSM   H18H14856  -0.289   4.704   8.317  0.5470 -1.2740  0.8228
  137OSM      N14857   4.197   2.833   6.338 -0.4350  0.5905  0.5024
  137OSM    C1514858   4.061   2.845   6.281 -0.3442 -0.1247 -0.4209
  137OSM   H15A14859   4.048   2.929   6.214 -2.0996  1.9120  2.3368
  137OSM   H15B14860   3.983   2.847   6.356 -1.5554 -1.3145 -1.6357
  137OSM   H15C14861   4.042   2.766   6.210  0.8448 -0.4918 -0.3384
  137OSM    C1414862   4.290   2.825   6.221  0.1360  0.3349 -0.0044
  137OSM   H14A14863   4.385   2.875   6.229  0.8561 -0.8323 -1.0980
  137OSM   H14B14864   4.243   2.872   6.136 -1.1948 -0.2235  0.4073
  137OSM   H14C14865   4.298   2.722   6.188  0.4558  0.4660 -0.3467
  137OSM    C1314866   4.215   2.960   6.404 -0.0467  0.7405  0.2923
  137OSM   H13A14867   4.317   2.962   6.439 -0.2672  0.4039  0.9697
  137OSM   H13B14868   4.142   2.970   6.483  0.0812  1.4433  0.3177
  137OSM   H13C14869   4.203   3.043   6.337 -1.1221  0.7975  0.5429
  137OSM    C1214870   4.217   2.725   6.440 -0.2161 -0.1176 -0.4690
  137OSM   H12A14871   4.319   2.736   6.474 -0.6752  1.5471  0.4270
  137OSM   H12B14872   4.212   2.633   6.383 -1.4967  0.8295 -1.9561
  137OSM    C1114873   4.118   2.723   6.556 -0.5198 -0.4533 -0.5169
  137OSM   H11A14874   4.113   2.820   6.609 -0.5353 -2.4641  3.3558
  137OSM   H11B14875   4.146   2.652   6.637  1.2180  1.1359  0.2923
  137OSM      P14876   3.956   2.543   6.482  0.3618  0.0746 -0.1116
  137OSM    O1314877   3.858   2.540   6.375 -0.0591 -0.2523  0.4235
  137OSM    O1414878   4.080   2.467   6.454  0.2043  0.3500 -0.3392
  137OSM    O1114879   3.891   2.503   6.621 -0.5805  0.1857  0.0754
  137OSM    O1214880   3.985   2.693   6.512  0.1844 -0.2267  0.1475
  137OSM    C1S14881   3.844   2.608   6.710 -0.4336  1.0761  0.2460
  137OSM    H1S14882   3.757   2.663   6.668 -1.3855 -0.5698  0.0227
  137OSM    H1T14883   3.930   2.672   6.738  0.2327 -0.4630  1.8103
  137OSM     NF14884   3.728   2.661   6.921  0.4709  0.1055  0.0816
  137OSM    HNF14885   3.773   2.715   6.991 -2.4515 -0.2764  2.3201
  137OSM    C2S14886   3.795   2.555   6.852 -0.4534  0.1494  0.2540
  137OSM    H2S14887   3.717   2.480   6.825 -0.8202  0.5248  0.2580
  137OSM    C3S14888   3.911   2.488   6.937  0.9210 -0.2774  0.1256
  137OSM    H3S14889   3.983   2.569   6.962 -0.2172  0.5048  0.9541
  137OSM     O314890   3.992   2.391   6.871  0.7409  0.4048  0.1024
  137OSM    HO314891   3.972   2.406   6.778  2.6691 -2.3248 -0.8269
  137OSM    C4S14892   3.841   2.433   7.058  0.0077 -0.4737  0.0501
  137OSM    H4S14893   3.818   2.508   7.136  0.1750  0.2239 -0.5624
  137OSM    C5S14894   3.786   2.313   7.073 -0.6106 -0.0073 -0.2247
  137OSM    H5S14895   3.785   2.244   6.987 -0.4492 -0.5502  0.2059
  137OSM    C6S14896   3.713   2.267   7.192  0.7357  0.0676 -0.0469
  137OSM    H6S14897   3.753   2.166   7.216 -1.7679 -0.7608  0.7667
  137OSM    H6T14898   3.603   2.263   7.177  0.4042 -0.0684  2.2262
  137OSM    C7S14899   3.712   2.361   7.316 -0.0142 -0.6623  0.1556
  137OSM    H7S14900   3.668   2.460   7.292 -0.0431 -0.6794  0.1386
  137OSM    H7T14901   3.820   2.377   7.336 -0.0312 -0.2621 -0.0616
  137OSM    C8S14902   3.650   2.299   7.444 -0.6280  0.7254  0.2073
  137OSM    H8S14903   3.697   2.201   7.464 -1.7287  0.5256  1.8552
  137OSM    H8T14904   3.547   2.272   7.413 -0.5711  0.0177  0.6280
  137OSM    C9S14905   3.659   2.395   7.566 -0.4566  0.7791  0.7456
  137OSM    H9S14906   3.579   2.472   7.561 -0.4715  0.6067 -2.8113
  137OSM    H9T14907   3.760   2.442   7.566  1.2952 -2.8035  1.5189
  137OSM   C10S14908   3.675   2.318   7.698  0.3900  1.0829  0.6172
  137OSM   H10S14909   3.768   2.259   7.698  1.4861  2.7786  0.6571
  137OSM   H10T14910   3.577   2.266   7.706  1.0460 -0.2216  0.1773
  137OSM   C11S14911   3.695   2.411   7.813 -0.5655 -0.0850 -0.1573
  137OSM   H11S14912   3.616   2.489   7.812  1.1320  1.6935  0.1329
  137OSM   H11T14913   3.791   2.468   7.805 -0.9864  0.5590 -0.7091
  137OSM   C12S14914   3.699   2.330   7.938  0.6978 -0.0290  0.0140
  137OSM   H12S14915   3.781   2.255   7.929 -0.4276 -0.9923 -2.4539
  137OSM   H12T14916   3.599   2.283   7.942  1.0476 -0.7220  0.8224
  137OSM   C13S14917   3.733   2.411   8.057  0.3421 -0.5344 -0.6194
  137OSM   H13S14918   3.648   2.483   8.058  1.1297  0.4222 -0.9509
  137OSM   H13T14919   3.824   2.472   8.033  0.3246  0.2538  1.2259
  137OSM   C14S14920   3.733   2.338   8.194 -0.1656  0.3583  0.3108
  137OSM   H14S14921   3.823   2.274   8.188  0.8504  1.8492 -0.7366
  137OSM   H14T14922   3.639   2.281   8.205 -1.4799  1.8716 -2.4042
  137OSM   C15S14923   3.757   2.438   8.307 -0.4286 -0.5636 -0.0267
  137OSM   H15S14924   3.680   2.516   8.291  0.8829  1.3600  2.7184
  137OSM   H15T14925   3.850   2.491   8.277 -2.0658  2.4770  0.0979
  137OSM   C16S14926   3.747   2.369   8.447 -0.4742 -0.5988 -0.1382
  137OSM   H16S14927   3.817   2.283   8.452  2.4358  1.8045  2.6101
  137OSM   H16T14928   3.644   2.329   8.446 -0.8858  0.4545 -0.7293
  137OSM   C17S14929   3.770   2.475   8.559 -0.1853  0.1102  0.1531
  137OSM   H17S14930   3.857   2.543   8.544 -1.2282  1.0698 -1.7987
  137OSM   H17T14931   3.798   2.428   8.655 -1.8125 -1.7851 -0.2741
  137OSM   C18S14932   3.648   2.561   8.582 -0.1516  0.3250 -0.1210
  137OSM   H18S14933   3.682   2.653   8.634 -0.4997 -0.1418  0.9482
  137OSM   H18T14934   3.568   2.505   8.635  0.9281 -0.4163  0.7497
  137OSM   H18U14935   3.614   2.602   8.484  0.0288  0.6940 -0.0308
  137OSM    C1F14936   3.604   2.704   6.883 -0.6447 -0.5547 -0.2774
  137OSM     OF14937   3.542   2.640   6.805 -0.1841  0.3313 -0.0042
  137OSM    C2F14938   3.556   2.825   6.947  0.3260 -0.2094  0.5184
  137OSM    H2F14939   3.483   2.874   6.878 -0.4945 -2.0184  0.0908
  137OSM    H2G14940   3.648   2.887   6.958  0.6294 -0.7414  0.9364
  137OSM    C3F14941   3.482   2.807   7.090 -0.2740  0.5516 -0.2075
  137OSM    H3F14942   3.561   2.771   7.159 -2.0634 -1.3189  0.9081
  137OSM    H3G14943   3.403   2.729   7.092 -0.0165  0.3427  2.3832
  137OSM    C4F14944   3.428   2.944   7.143  0.5287  0.0857  0.2921
  137OSM    H4F14945   3.324   2.932   7.181  0.8670 -1.0935  0.8810
  137OSM    H4G14946   3.420   3.021   7.063  1.2654  0.7334  0.8411
  137OSM    C5F14947   3.519   2.997   7.262 -0.0074 -0.5257  0.7908
  137OSM    H5F14948   3.489   3.101   7.287  1.0818 -0.4700  1.9506
  137OSM    H5G14949   3.624   3.012   7.228  0.5190  1.2529  3.0518
  137OSM    C6F14950   3.500   2.917   7.398  0.0142 -0.5882 -0.1834
  137OSM    H6F14951   3.535   2.812   7.402  1.4767 -0.0733  1.1678
  137OSM    H6G14952   3.392   2.913   7.419  0.0811 -1.5854 -0.0162
  137OSM    C7F14953   3.568   2.988   7.517  0.3867  0.5422 -0.2958
  137OSM    H7F14954   3.541   3.096   7.512  0.9192  0.8616  3.0250
  137OSM    H7G14955   3.678   2.985   7.498  1.0073  0.8747  2.9850
  137OSM    C8F14956   3.543   2.926   7.650 -0.1446  0.3248  0.3992
  137OSM    H8F14957   3.438   2.891   7.656 -0.4954  1.4620  1.1228
  137OSM    H8G14958   3.542   2.995   7.737  2.6924 -1.0414  1.5979
  137OSM    C9F14959   3.620   2.809   7.681 -0.5357  0.4912  0.5741
  137OSM    H9F14960   3.622   2.734   7.600 -0.6117  0.6126  0.4612
  137OSM   C10F14961   3.694   2.778   7.787  0.0001 -0.0744 -0.0738
  137OSM   H10F14962   3.748   2.682   7.793 -0.9130 -0.7461 -2.2658
  137OSM   C11F14963   3.717   2.870   7.908  0.7022  0.0830 -0.3429
  137OSM   H11F14964   3.708   2.980   7.894 -0.1136  0.3310  1.9331
  137OSM   H11G14965   3.819   2.852   7.950  0.7076 -0.1724 -0.4647
  137OSM   C12F14966   3.610   2.815   8.008 -0.2758  0.0660 -0.5723
  137OSM   H12F14967   3.620   2.704   8.012 -0.3175  0.0699 -0.3187
  137OSM   H12G14968   3.506   2.833   7.973 -1.6361  1.3590  3.7761
  137OSM   C13F14969   3.613   2.872   8.155  0.0289 -0.5643 -0.3530
  137OSM   H13F14970   3.540   2.806   8.206  1.0298 -2.3663 -1.2181
  137OSM   H13G14971   3.564   2.972   8.158 -2.4000 -1.6321 -2.5835
  137OSM   C14F14972   3.753   2.875   8.214  0.0698  0.5121  0.0702
  137OSM   H14F14973   3.816   2.953   8.166 -2.2341  2.9572  0.8555
  137OSM   H14G14974   3.813   2.785   8.191  0.0775  0.2305  1.1762
  137OSM   C15F14975   3.752   2.918   8.369 -1.2122  0.2843 -0.5731
  137OSM   H15F14976   3.675   2.851   8.414 -1.5654 -0.0829 -1.7127
  137OSM   H15G14977   3.741   3.028   8.372 -1.1995  0.2554  1.1950
  137OSM   C16F14978   3.889   2.897   8.435 -0.4225 -0.5191  0.1000
  137OSM   H16F14979   3.957   2.962   8.375  0.1352 -0.5950  0.6455
  137OSM   H16G14980   3.899   2.789   8.412 -0.4430 -0.5117  0.0540
  137OSM   C17F14981   3.908   2.934   8.584  0.0724 -0.9039 -0.4771
  137OSM   H17F14982   3.858   2.847   8.631 -2.5590  1.1280  0.6235
  137OSM   H17G14983   3.861   3.031   8.611  1.0573  0.0983 -2.2367
  137OSM   C18F14984   4.052   2.931   8.631  0.9200  0.2642  0.0197
  137OSM   H18F14985   4.054   2.908   8.739 -1.4424  0.8805  0.2220
  137OSM   H18G14986   4.101   3.029   8.609  1.3334 -0.0468 -0.4748
  137OSM   H18H14987   4.122   2.854   8.591 -0.6703 -1.4674  0.5151
  138OSM      N14988   3.758   4.950   5.714 -0.0169 -0.6410 -0.1506
  138OSM    C1514989   3.755   5.100   5.749  0.0306 -0.1244  0.0535
  138OSM   H15A14990   3.707   5.101   5.846 -0.6058 -0.3396 -0.2559
  138OSM   H15B14991   3.690   5.156   5.683 -0.8844  0.2711  1.2782
  138OSM   H15C14992   3.858   5.132   5.750  0.1410 -0.4538 -0.3635
  138OSM    C1414993   3.628   4.896   5.751 -0.1680 -0.3930  0.5356
  138OSM   H14A14994   3.600   4.915   5.854 -1.4452  2.5079 -0.3091
  138OSM   H14B14995   3.621   4.790   5.728 -0.2304  0.2950 -2.7867
  138OSM   H14C14996   3.548   4.946   5.699 -0.7133  0.1408  1.8829
  138OSM    C1314997   3.783   4.915   5.561 -0.1743 -0.3393 -0.2017
  138OSM   H13A14998   3.880   4.934   5.517 -0.3312  1.2134  0.0944
  138OSM   H13B14999   3.722   4.973   5.494  0.4460  1.6118  0.8871
  138OSM   H13C15000   3.766   4.809   5.551  0.1435 -0.3736 -0.3901
  138OSM    C1215001   3.860   4.881   5.802 -0.0639 -0.4712  0.1673
  138OSM   H12A15002   3.949   4.937   5.778 -0.0233 -0.2650  0.7894
  138OSM   H12B15003   3.873   4.783   5.759  0.2932  0.6076 -2.2037
  138OSM    C1115004   3.837   4.871   5.949  0.6840 -0.5382 -0.0320
  138OSM   H11A15005   3.919   4.817   6.001  1.8419 -1.0850 -2.3925
  138OSM   H11B15006   3.756   4.799   5.973  2.3767 -2.4351  0.1693
  138OSM      P15007   3.913   5.085   6.085  0.3106 -0.3735 -0.1714
  138OSM    O1315008   4.036   5.012   6.114 -0.4844 -0.2012 -0.1485
  138OSM    O1415009   3.919   5.215   6.008 -0.3207  0.0677 -0.0508
  138OSM    O1115010   3.842   5.114   6.225  0.4326  0.5044  0.1823
  138OSM    O1215011   3.808   5.000   6.012 -0.3438 -0.2217 -0.5369
  138OSM    C1S15012   3.832   5.022   6.331  0.1206 -0.1075 -0.3461
  138OSM    H1S15013   3.798   4.919   6.308 -1.4468  0.4648 -0.7130
  138OSM    H1T15014   3.745   5.038   6.399  0.1817  1.1971 -0.5612
  138OSM     NF15015   3.948   4.916   6.524  0.6023 -0.3044 -0.6821
  138OSM    HNF15016   3.900   4.934   6.610 -0.3306 -2.6910 -0.6424
  138OSM    C2S15017   3.955   5.023   6.426 -0.8043  1.1959  0.7563
  138OSM    H2S15018   4.040   4.997   6.358 -1.2497 -2.8338  1.6369
  138OSM    C3S15019   3.973   5.165   6.499  0.1516  0.3710  0.4501
  138OSM    H3S15020   3.869   5.193   6.525 -0.9439 -0.8988 -2.2919
  138OSM     O315021   4.020   5.262   6.406  0.2149  0.4185  0.0769
  138OSM    HO315022   4.037   5.215   6.324  1.2389  3.0552 -1.2785
  138OSM    C4S15023   4.076   5.160   6.606  0.1930 -0.1634 -0.5486
  138OSM    H4S15024   4.176   5.129   6.573  0.7554 -0.0220  0.9680
  138OSM    C5S15025   4.057   5.174   6.741 -0.0040 -0.4021 -0.1298
  138OSM    H5S15026   3.959   5.191   6.787 -0.0871  0.3773 -0.5748
  138OSM    C6S15027   4.169   5.173   6.841 -0.1245 -0.6862  0.0593
  138OSM    H6S15028   4.237   5.254   6.806  0.0891 -0.8172  0.1699
  138OSM    H6T15029   4.230   5.081   6.833  0.3415 -0.4546  0.8698
  138OSM    C7S15030   4.137   5.193   6.988  1.1061 -0.7412 -0.3807
  138OSM    H7S15031   4.065   5.118   7.027  0.1860  1.2928  1.9644
  138OSM    H7T15032   4.082   5.288   7.008  0.4539 -1.1813 -0.0707
  138OSM    C8S15033   4.262   5.192   7.068 -0.5504  0.2203  0.3025
  138OSM    H8S15034   4.328   5.263   7.013  1.0907 -0.5128  1.2659
  138OSM    H8T15035   4.308   5.091   7.060  0.2451  0.3474  2.9429
  138OSM    C9S15036   4.249   5.231   7.212  0.2604 -0.4629 -0.1073
  138OSM    H9S15037   4.338   5.220   7.278  0.1211  1.2783  0.4025
  138OSM    H9T15038   4.173   5.177   7.272  1.1681 -0.4002  1.1368
  138OSM   C10S15039   4.192   5.377   7.224  0.2059 -0.0812  0.6881
  138OSM   H10S15040   4.085   5.379   7.196  0.1118 -1.9515  0.8641
  138OSM   H10T15041   4.261   5.432   7.156 -2.1587  0.1744 -1.5610
  138OSM   C11S15042   4.211   5.452   7.355 -0.4189 -0.0953  0.1252
  138OSM   H11S15043   4.319   5.448   7.382 -0.4132  0.5706  0.1910
  138OSM   H11T15044   4.151   5.397   7.430  0.6985 -1.2010  0.2245
  138OSM   C12S15045   4.156   5.595   7.358 -0.5070  0.6570 -0.5402
  138OSM   H12S15046   4.125   5.641   7.454  0.8376  1.6038 -0.5456
  138OSM   H12T15047   4.062   5.610   7.300 -0.1269  1.3861 -0.9765
  138OSM   C13S15048   4.263   5.703   7.308  0.9236  1.0866 -0.3840
  138OSM   H13S15049   4.362   5.656   7.322  0.6357  1.3666  2.9971
  138OSM   H13T15050   4.269   5.793   7.373 -1.1888  1.1595 -0.2509
  138OSM   C14S15051   4.231   5.743   7.166  0.5397 -0.1846  0.2767
  138OSM   H14S15052   4.185   5.844   7.170  0.1715 -0.3926  1.4544
  138OSM   H14T15053   4.154   5.681   7.117 -1.8734  0.4088  3.1980
  138OSM   C15S15054   4.341   5.753   7.059  0.2475 -0.0568 -0.3955
  138OSM   H15S15055   4.426   5.688   7.092  0.1987  0.8048  1.4533
  138OSM   H15T15056   4.372   5.859   7.050  1.0532 -0.0358  2.1615
  138OSM   C16S15057   4.289   5.708   6.920 -0.1240 -0.4126 -0.2283
  138OSM   H16S15058   4.191   5.752   6.894  0.2522  0.2194 -0.6104
  138OSM   H16T15059   4.286   5.597   6.920 -0.0032 -0.4185  0.2754
  138OSM   C17S15060   4.394   5.756   6.818  0.0785 -0.6895  0.3710
  138OSM   H17S15061   4.494   5.721   6.851  0.8111  1.6364  0.6997
  138OSM   H17T15062   4.402   5.867   6.816 -1.6798 -0.5584 -0.0367
  138OSM   C18S15063   4.379   5.715   6.680 -0.0779 -0.0341  0.2106
  138OSM   H18S15064   4.276   5.747   6.655 -1.2995 -3.1485  1.0334
  138OSM   H18T15065   4.395   5.605   6.667  0.4726  0.2885 -1.9998
  138OSM   H18U15066   4.455   5.764   6.616 -0.4233 -1.5187 -1.3936
  138OSM    C1F15067   3.960   4.789   6.493 -0.1912 -0.2979 -0.1912
  138OSM     OF15068   3.979   4.748   6.374 -0.0293 -0.0450  0.5380
  138OSM    C2F15069   3.932   4.689   6.606 -0.3722  0.1156  0.2258
  138OSM    H2F15070   3.879   4.607   6.552  1.4130 -0.5015 -0.6195
  138OSM    H2G15071   3.872   4.734   6.688  0.3781 -0.1344  0.9222
  138OSM    C3F15072   4.061   4.636   6.671 -0.0524 -0.8525  0.6784
  138OSM    H3F15073   4.096   4.708   6.748 -1.2001 -0.8468  1.2118
  138OSM    H3G15074   4.141   4.619   6.596  0.5509  0.2742  1.0703
  138OSM    C4F15075   4.040   4.507   6.749 -0.3960 -0.3261  0.3989
  138OSM    H4F15076   4.123   4.472   6.814 -2.2211 -0.5455  2.6492
  138OSM    H4G15077   4.027   4.426   6.673 -1.1492  0.2276 -0.0690
  138OSM    C5F15078   3.905   4.506   6.826  0.0316 -0.1948 -0.1254
  138OSM    H5F15079   3.823   4.510   6.751 -1.4889  2.2004  1.6209
  138OSM    H5G15080   3.882   4.597   6.885 -0.4973  0.2630 -1.0138
  138OSM    C6F15081   3.888   4.373   6.898  0.4166  0.5129  0.3534
  138OSM    H6F15082   3.969   4.348   6.970  2.4520  1.2694 -1.5873
  138OSM    H6G15083   3.903   4.308   6.808 -0.9286 -0.6736  0.9653
  138OSM    C7F15084   3.746   4.355   6.953 -0.1094 -0.2444  0.2413
  138OSM    H7F15085   3.742   4.245   6.973  0.6986 -0.5934 -1.3863
  138OSM    H7G15086   3.674   4.378   6.872 -1.0113  1.9210  1.6401
  138OSM    C8F15087   3.717   4.442   7.078 -0.4922  0.5253 -0.2296
  138OSM    H8F15088   3.613   4.414   7.108 -0.1266  0.6064  1.1540
  138OSM    H8G15089   3.711   4.548   7.044  2.1234  0.4092 -1.1575
  138OSM    C9F15090   3.811   4.419   7.197 -0.4956 -0.5121 -0.0552
  138OSM    H9F15091   3.910   4.379   7.172 -0.2047 -0.0375  0.3339
  138OSM   C10F15092   3.775   4.431   7.324 -0.3210 -0.0997 -0.4733
  138OSM   H10F15093   3.847   4.406   7.403  0.3042  2.2239 -0.2653
  138OSM   C11F15094   3.634   4.477   7.377 -0.3150 -0.8431  0.4232
  138OSM   H11F15095   3.578   4.400   7.434 -0.4611  0.5731  2.2597
  138OSM   H11G15096   3.568   4.516   7.296  0.3022  0.5295  0.5593
  138OSM   C12F15097   3.637   4.600   7.472  0.1519 -0.2760  0.1945
  138OSM   H12F15098   3.533   4.637   7.487  0.9313  1.8066  0.6244
  138OSM   H12G15099   3.703   4.678   7.429  0.5436 -0.1822  0.9630
  138OSM   C13F15100   3.689   4.569   7.618 -0.1652  0.4035 -0.5401
  138OSM   H13F15101   3.796   4.541   7.606 -0.4118 -0.4410 -0.8081
  138OSM   H13G15102   3.638   4.479   7.660  0.3641  0.1300 -0.4752
  138OSM   C14F15103   3.664   4.695   7.701 -0.3361  0.3201 -0.2780
  138OSM   H14F15104   3.559   4.685   7.737  0.6837 -1.5268  2.3907
  138OSM   H14G15105   3.685   4.783   7.637 -1.9418  2.2773  1.7853
  138OSM   C15F15106   3.764   4.701   7.814  0.0287  0.4109 -0.0388
  138OSM   H15F15107   3.873   4.700   7.791 -0.0570 -1.1994 -0.4612
  138OSM   H15G15108   3.747   4.613   7.880 -1.4878 -0.7279 -1.8930
  138OSM   C16F15109   3.747   4.821   7.905  0.0440  0.6343 -0.3992
  138OSM   H16F15110   3.649   4.812   7.958  0.7276  1.2865  0.9909
  138OSM   H16G15111   3.734   4.910   7.841 -0.4345  0.1493 -0.9918
  138OSM   C17F15112   3.858   4.838   8.016 -0.6137 -0.1785 -0.2819
  138OSM   H17F15113   3.845   4.940   8.058 -0.7404  0.7080 -2.4019
  138OSM   H17G15114   3.958   4.839   7.967 -0.9236 -0.4264 -0.9272
  138OSM   C18F15115   3.845   4.743   8.131  0.2131 -0.3025 -0.6275
  138OSM   H18F15116   3.873   4.640   8.098 -3.8751 -0.8101 -2.9022
  138OSM   H18G15117   3.740   4.741   8.169 -0.2439 -1.2711 -1.8769
  138OSM   H18H15118   3.912   4.764   8.217  0.5392 -0.0244 -0.9553
  139OSM      N15119   3.573   5.716   6.090 -0.2025  0.2568  0.2339
  139OSM    C1515120   3.576   5.681   5.946  0.1999 -0.5209 -0.5149
  139OSM   H15A15121   3.623   5.754   5.882 -0.6242  0.8346  0.3804
  139OSM   H15B15122   3.477   5.686   5.904 -0.4990  0.1882  1.1687
  139OSM   H15C15123   3.619   5.583   5.933  0.6188 -0.1612 -1.8257
  139OSM    C1415124   3.513   5.606   6.176 -0.4275 -0.7194 -0.5270
  139OSM   H14A15125   3.518   5.626   6.282 -0.4675 -2.0476 -0.2748
  139OSM   H14B15126   3.563   5.512   6.160  1.3100  0.2702 -0.9891
  139OSM   H14C15127   3.410   5.610   6.144  0.0313 -0.9089 -2.0515
  139OSM    C1315128   3.697   5.757   6.144 -0.2210  0.5873 -0.0060
  139OSM   H13A15129   3.695   5.784   6.249 -0.6340 -0.7764  0.3466
  139OSM   H13B15130   3.735   5.838   6.083  0.8583 -0.4321 -0.7201
  139OSM   H13C15131   3.774   5.684   6.122 -1.5666 -1.0425  0.5279
  139OSM    C1215132   3.480   5.838   6.109  0.1508 -0.5433 -0.2021
  139OSM   H12A15133   3.519   5.932   6.072  1.2067 -1.7590 -2.1955
  139OSM   H12B15134   3.474   5.868   6.213  2.2358 -2.3813  0.4722
  139OSM    C1115135   3.340   5.844   6.048 -0.5669 -0.6927 -0.1457
  139OSM   H11A15136   3.342   5.832   5.938 -0.2976  0.8966 -0.3193
  139OSM   H11B15137   3.292   5.943   6.063  0.8965  0.3419 -2.1138
  139OSM      P15138   3.113   5.730   6.084  0.1762  0.1674  0.9147
  139OSM    O1315139   3.075   5.835   5.986 -0.0993 -0.7885  0.1061
  139OSM    O1415140   3.084   5.594   6.039 -0.2897 -0.3028  0.6794
  139OSM    O1115141   3.064   5.775   6.225  0.0612 -0.1230  0.6239
  139OSM    O1215142   3.264   5.737   6.099  0.3049  0.2667  0.0160
  139OSM    C1S15143   3.150   5.828   6.321  0.0063 -0.5896 -0.3854
  139OSM    H1S15144   3.177   5.934   6.302  0.8346 -1.3856 -3.9604
  139OSM    H1T15145   3.247   5.774   6.323  0.5245  0.3542 -0.1316
  139OSM     NF15146   3.180   5.889   6.563 -0.2865  0.5679 -0.4023
  139OSM    HNF15147   3.215   5.834   6.638 -2.2009 -0.9620 -0.6146
  139OSM    C2S15148   3.099   5.812   6.467 -0.5067  0.2423 -0.2115
  139OSM    H2S15149   2.994   5.847   6.474 -0.2109  1.4424 -1.6468
  139OSM    C3S15150   3.086   5.659   6.504  0.2452 -0.0664 -0.1017
  139OSM    H3S15151   3.187   5.616   6.520  0.2403 -0.6809 -1.5607
  139OSM     O315152   3.019   5.582   6.400 -0.3340 -0.3073 -0.3660
  139OSM    HO315153   2.990   5.640   6.330  0.8992  0.3747 -0.3399
  139OSM    C4S15154   3.008   5.649   6.638 -0.2330 -0.0681 -0.2113
  139OSM    H4S15155   3.076   5.628   6.722 -1.2166  0.5435  0.7471
  139OSM    C5S15156   2.876   5.649   6.658  0.0331 -0.3382 -0.1192
  139OSM    H5S15157   2.812   5.652   6.568 -0.0557  1.2836 -0.0120
  139OSM    C6S15158   2.802   5.640   6.782  0.0615 -0.6322 -0.3242
  139OSM    H6S15159   2.735   5.552   6.781 -0.5261 -0.1866 -0.4885
  139OSM    H6T15160   2.734   5.728   6.782  1.1604  0.2462  0.5979
  139OSM    C7S15161   2.889   5.642   6.910  0.1878 -0.1568 -0.2612
  139OSM    H7S15162   2.956   5.731   6.917  2.0248 -1.5297 -0.1737
  139OSM    H7T15163   2.953   5.552   6.898  0.6256  0.0595  0.4520
  139OSM    C8S15164   2.798   5.623   7.036 -0.3309 -0.1117  0.5686
  139OSM    H8S15165   2.726   5.540   7.026  1.3030 -1.4597 -0.1942
  139OSM    H8T15166   2.726   5.708   7.045  0.3828  0.7668 -1.6064
  139OSM    C9S15167   2.878   5.630   7.174  1.0053  0.4360  0.1040
  139OSM    H9S15168   2.934   5.726   7.172  3.2081 -0.7409  2.4889
  139OSM    H9T15169   2.946   5.542   7.172  0.4635 -0.1221  3.3225
  139OSM   C10S15170   2.791   5.632   7.300  0.4625 -0.3572  0.1868
  139OSM   H10S15171   2.713   5.555   7.283 -0.3481  0.5234 -0.1598
  139OSM   H10T15172   2.736   5.728   7.310  0.1793 -0.4690 -0.2658
  139OSM   C11S15173   2.886   5.620   7.422 -0.3860 -0.5812 -0.3772
  139OSM   H11S15174   2.948   5.711   7.438  0.0042 -0.8366 -0.4372
  139OSM   H11T15175   2.960   5.539   7.403 -0.1988 -0.1528 -1.5693
  139OSM   C12S15176   2.803   5.597   7.551  0.1768  0.2237 -0.3592
  139OSM   H12S15177   2.746   5.501   7.543 -1.1694  1.1653 -2.7551
  139OSM   H12T15178   2.727   5.673   7.578  0.5326  0.4547 -0.0225
  139OSM   C13S15179   2.889   5.575   7.675 -0.4134  0.6828 -0.1343
  139OSM   H13S15180   2.974   5.647   7.684  0.9984 -1.0234  0.4658
  139OSM   H13T15181   2.932   5.472   7.670 -1.5777  0.1700  0.3112
  139OSM   C14S15182   2.806   5.584   7.801  0.2850  0.1320 -0.1173
  139OSM   H14S15183   2.735   5.498   7.796  0.3227  0.1349 -0.6963
  139OSM   H14T15184   2.736   5.669   7.815 -0.0012  0.0194 -0.8392
  139OSM   C15S15185   2.894   5.565   7.924 -0.2433 -0.1388  0.3059
  139OSM   H15S15186   2.964   5.651   7.924 -0.5819  0.1397 -0.6213
  139OSM   H15T15187   2.945   5.467   7.919 -1.0716 -0.4498 -2.4609
  139OSM   C16S15188   2.803   5.572   8.049  0.3599 -1.0090 -0.1638
  139OSM   H16S15189   2.743   5.480   8.066 -1.3321  0.3195  1.2860
  139OSM   H16T15190   2.741   5.663   8.036  0.4753 -1.0313 -0.8859
  139OSM   C17S15191   2.897   5.599   8.165  0.2071 -0.1078  0.1547
  139OSM   H17S15192   2.983   5.663   8.137  1.4585 -1.2055  1.4593
  139OSM   H17T15193   2.939   5.499   8.189  0.2481 -0.7265 -2.3170
  139OSM   C18S15194   2.839   5.666   8.284 -0.2626  0.2197  0.0500
  139OSM   H18S15195   2.923   5.711   8.342  1.6870 -0.8589 -1.8593
  139OSM   H18T15196   2.778   5.592   8.339  1.0072 -0.2760  0.8111
  139OSM   H18U15197   2.775   5.752   8.254  0.5522  1.0274  0.5585
  139OSM    C1F15198   3.188   6.022   6.565 -0.8048 -0.2030 -0.2487
  139OSM     OF15199   3.141   6.089   6.477 -0.0385  0.4222 -0.0584
  139OSM    C2F15200   3.233   6.088   6.693  0.1749  1.3071  0.1478
  139OSM    H2F15201   3.341   6.067   6.705  0.0055  1.3948  2.0814
  139OSM    H2G15202   3.187   6.038   6.781  2.2580 -0.9029  0.0158
  139OSM    C3F15203   3.214   6.247   6.701  0.6391  0.1950  0.1222
  139OSM    H3F15204   3.113   6.282   6.671  0.4734  0.0860  0.5620
  139OSM    H3G15205   3.280   6.296   6.626 -0.5778  2.2145  0.3347
  139OSM    C4F15206   3.233   6.302   6.843 -0.5867 -0.1915 -0.1899
  139OSM    H4F15207   3.177   6.230   6.906  3.1439 -2.1993  1.0106
  139OSM    H4G15208   3.183   6.400   6.842 -0.9357 -0.3070  2.6072
  139OSM    C5F15209   3.375   6.315   6.882  0.2439  0.3503  0.2955
  139OSM    H5F15210   3.432   6.385   6.818  0.0556  0.9962  0.8294
  139OSM    H5G15211   3.428   6.217   6.873  0.6043  0.5304  0.4368
  139OSM    C6F15212   3.396   6.351   7.027 -0.3911  0.6443 -0.5696
  139OSM    H6F15213   3.326   6.436   7.043 -1.3372 -0.5015  1.5408
  139OSM    H6G15214   3.503   6.380   7.038 -0.9946  1.4270  4.3372
  139OSM    C7F15215   3.395   6.239   7.135  0.1454  0.3128  0.2761
  139OSM    H7F15216   3.447   6.159   7.079 -1.8742 -1.8779  1.4218
  139OSM    H7G15217   3.294   6.194   7.151 -0.5138  1.9024  0.6902
  139OSM    C8F15218   3.476   6.265   7.252  0.8069  1.1667 -0.4883
  139OSM    H8F15219   3.577   6.304   7.226  1.6479 -0.5306  0.1649
  139OSM    H8G15220   3.484   6.167   7.303 -0.5074  1.4371  0.2580
  139OSM    C9F15221   3.420   6.367   7.353  0.8001  0.0060 -0.4601
  139OSM    H9F15222   3.351   6.439   7.308 -0.2994 -0.7872 -0.0601
  139OSM   C10F15223   3.428   6.374   7.483  0.8770  0.0837 -0.0955
  139OSM   H10F15224   3.375   6.460   7.526  1.4178 -0.0841  0.9360
  139OSM   C11F15225   3.505   6.289   7.583 -0.7269 -0.0043  0.0295
  139OSM   H11F15226   3.594   6.346   7.618 -0.5053  0.5249 -1.3932
  139OSM   H11G15227   3.538   6.203   7.520 -2.4302 -1.3023  0.8665
  139OSM   C12F15228   3.415   6.243   7.694  0.0361  0.4073  0.2608
  139OSM   H12F15229   3.479   6.170   7.748 -0.8617  1.1387  2.3524
  139OSM   H12G15230   3.325   6.188   7.657 -0.9245  1.3746  1.1113
  139OSM   C13F15231   3.368   6.352   7.795  0.4488  0.1336 -0.0458
  139OSM   H13F15232   3.298   6.299   7.863 -0.4878 -1.1675 -2.0063
  139OSM   H13G15233   3.313   6.435   7.746  1.9571  1.4215  0.3818
  139OSM   C14F15234   3.478   6.432   7.878 -0.5326 -0.7585  0.4242
  139OSM   H14F15235   3.428   6.509   7.939  0.9795 -1.3047  2.3835
  139OSM   H14G15236   3.540   6.495   7.811  0.1144 -0.4920  1.2713
  139OSM   C15F15237   3.562   6.341   7.968 -0.5166 -0.6584  0.3329
  139OSM   H15F15238   3.628   6.282   7.901  1.9649  1.6037  0.6701
  139OSM   H15G15239   3.500   6.273   8.030  1.8423 -2.6922  0.5342
  139OSM   C16F15240   3.653   6.425   8.060 -0.3182 -0.6948  0.1573
  139OSM   H16F15241   3.702   6.505   8.000 -2.4776  0.6511  0.1100
  139OSM   H16G15242   3.740   6.364   8.092 -1.9576 -1.5326  3.2441
  139OSM   C17F15243   3.584   6.483   8.183 -0.6003  0.8022 -0.4859
  139OSM   H17F15244   3.549   6.407   8.256  2.9561 -0.5971 -0.1349
  139OSM   H17G15245   3.490   6.525   8.142 -1.4967 -0.9540 -0.3150
  139OSM   C18F15246   3.661   6.592   8.250 -0.4809 -0.2405  0.6074
  139OSM   H18F15247   3.615   6.640   8.339 -1.9568 -3.1400  1.4707
  139OSM   H18G15248   3.679   6.671   8.174 -2.1519  0.4639  0.9242
  139OSM   H18H15249   3.761   6.550   8.276 -0.0899  0.2929 -0.0333
  140OSM      N15250   3.666   1.600   6.421  0.2091 -0.5247 -0.2215
  140OSM    C1515251   3.779   1.610   6.519 -0.2654  0.3561 -0.0421
  140OSM   H15A15252   3.878   1.614   6.476 -0.3364 -0.0188 -0.2413
  140OSM   H15B15253   3.774   1.522   6.581 -1.4269  0.2613 -0.2646
  140OSM   H15C15254   3.770   1.701   6.576 -1.6110  0.0157  0.2969
  140OSM    C1415255   3.654   1.738   6.362 -0.4747  0.2025 -0.0579
  140OSM   H14A15256   3.638   1.811   6.440 -2.5549 -1.0289  0.7032
  140OSM   H14B15257   3.568   1.743   6.297 -2.2827 -3.1039  1.9354
  140OSM   H14C15258   3.737   1.776   6.304  0.1117 -0.0416  0.6179
  140OSM    C1315259   3.695   1.492   6.319 -0.3493  0.4802 -0.0533
  140OSM   H13A15260   3.730   1.411   6.382 -2.2046  0.1452  0.5838
  140OSM   H13B15261   3.778   1.526   6.259 -0.2377  2.8232  1.3925
  140OSM   H13C15262   3.605   1.466   6.265  0.3903  0.6658 -1.4219
  140OSM    C1215263   3.545   1.558   6.497 -0.5327 -0.1299  0.2238
  140OSM   H12A15264   3.534   1.638   6.569  2.6700  0.0322  0.6382
  140OSM   H12B15265   3.560   1.461   6.542 -0.9817 -0.6712 -0.7875
  140OSM    C1115266   3.404   1.543   6.435  0.5413 -0.5405 -0.0349
  140OSM   H11A15267   3.377   1.643   6.397  2.2912  1.3325  3.3796
  140OSM   H11B15268   3.329   1.528   6.516 -0.2057 -0.3350 -0.6784
  140OSM      P15269   3.332   1.300   6.363 -0.2396 -0.1760  0.0707
  140OSM    O1315270   3.184   1.301   6.368 -0.1708  0.4204  0.3369
  140OSM    O1415271   3.408   1.202   6.284  0.4725 -0.3920  0.3456
  140OSM    O1115272   3.383   1.274   6.515  0.3039  0.0698 -0.0117
  140OSM    O1215273   3.388   1.444   6.335  0.9252 -0.4263  0.1075
  140OSM    C1S15274   3.505   1.208   6.538  0.4265  1.1082 -0.9375
  140OSM    H1S15275   3.594   1.272   6.520 -0.4196  1.6151 -3.5240
  140OSM    H1T15276   3.521   1.121   6.470 -1.8166  0.2731 -0.4158
  140OSM     NF15277   3.651   1.167   6.744 -0.3452 -0.9168  0.3881
  140OSM    HNF15278   3.684   1.079   6.778 -0.0899 -1.6228 -1.6078
  140OSM    C2S15279   3.512   1.176   6.690  0.7198  0.8632  0.0245
  140OSM    H2S15280   3.466   1.254   6.755 -1.5251  0.2382 -0.7628
  140OSM    C3S15281   3.419   1.042   6.711 -0.2202  0.6703 -0.1623
  140OSM    H3S15282   3.474   0.949   6.684 -1.9205 -0.3049 -0.3248
  140OSM     O315283   3.299   1.047   6.636 -0.4094 -0.5619  0.1136
  140OSM    HO315284   3.307   1.132   6.593 -1.0143  0.6162  2.2341
  140OSM    C4S15285   3.394   1.038   6.866  0.2058 -0.3651 -0.3555
  140OSM    H4S15286   3.467   0.972   6.914  1.6340  0.9932 -0.5994
  140OSM    C5S15287   3.288   1.091   6.928 -0.2280  0.6339  1.0278
  140OSM    H5S15288   3.211   1.129   6.859 -0.5493 -2.0845 -0.1875
  140OSM    C6S15289   3.253   1.069   7.069 -0.1866  0.1133 -0.6463
  140OSM    H6S15290   3.169   0.997   7.081  1.0312 -0.8879  2.2332
  140OSM    H6T15291   3.216   1.165   7.112  0.9758  0.4990 -0.4720
  140OSM    C7S15292   3.358   0.999   7.154 -0.1081  0.6855 -0.7107
  140OSM    H7S15293   3.450   1.061   7.154  0.7134 -0.4640  1.6098
  140OSM    H7T15294   3.391   0.900   7.116  1.3933  0.3078  1.5127
  140OSM    C8S15295   3.316   0.973   7.296  0.1527  0.0824 -0.0123
  140OSM    H8S15296   3.385   0.895   7.336 -1.2021 -1.5218 -0.6973
  140OSM    H8T15297   3.215   0.926   7.298  1.3323 -2.5604  2.0489
  140OSM    C9S15298   3.330   1.098   7.382  0.7922 -0.0695  0.3431
  140OSM    H9S15299   3.246   1.166   7.355 -1.4201 -2.4487  1.0347
  140OSM    H9T15300   3.421   1.150   7.346 -0.7315  0.7824 -2.4220
  140OSM   C10S15301   3.342   1.069   7.525  0.4638  0.2650  0.6412
  140OSM   H10S15302   3.443   1.027   7.545  0.9728  0.7083 -0.8953
  140OSM   H10T15303   3.261   0.996   7.545 -0.3489  0.3502 -2.1118
  140OSM   C11S15304   3.322   1.196   7.616 -0.3446  0.1532  0.0612
  140OSM   H11S15305   3.223   1.240   7.594  0.4576  1.7840 -0.4326
  140OSM   H11T15306   3.393   1.281   7.610 -0.4151  0.1313 -1.1950
  140OSM   C12S15307   3.337   1.153   7.756  0.1313  0.7597 -0.7478
  140OSM   H12S15308   3.307   1.047   7.766 -0.5007  0.8777 -1.3168
  140OSM   H12T15309   3.256   1.203   7.815 -1.4582 -1.2288 -1.2083
  140OSM   C13S15310   3.478   1.167   7.829  0.3146  0.0387 -0.5176
  140OSM   H13S15311   3.521   1.268   7.846  2.2695 -0.7490 -0.7654
  140OSM   H13T15312   3.552   1.120   7.762  1.0564  0.6793 -0.1572
  140OSM   C14S15313   3.481   1.105   7.966  0.1231 -0.5005 -0.3297
  140OSM   H14S15314   3.487   0.996   7.946  1.1441 -1.0976  2.9962
  140OSM   H14T15315   3.396   1.129   8.032 -1.1740 -2.8231 -1.0977
  140OSM   C15S15316   3.622   1.138   8.035  0.2881 -0.0522 -0.2029
  140OSM   H15S15317   3.612   1.247   8.054 -2.3435 -0.1116 -1.0323
  140OSM   H15T15318   3.707   1.126   7.965  0.2274 -1.9451  0.0352
  140OSM   C16S15319   3.651   1.058   8.158  0.4377 -0.3598  0.1368
  140OSM   H16S15320   3.553   1.049   8.210  1.1544  0.9162  1.7166
  140OSM   H16T15321   3.715   1.110   8.232  0.4216  1.8906 -1.3904
  140OSM   C17S15322   3.719   0.930   8.125  0.2657 -0.2348  0.0417
  140OSM   H17S15323   3.816   0.959   8.078  0.5156  1.5444  1.6296
  140OSM   H17T15324   3.657   0.869   8.056 -2.0569  2.1648 -0.0348
  140OSM   C18S15325   3.746   0.848   8.258 -0.3400  0.4222  0.0264
  140OSM   H18S15326   3.644   0.808   8.279  0.3661 -1.3400  0.1034
  140OSM   H18T15327   3.778   0.910   8.345 -0.4783  0.8606 -0.2322
  140OSM   H18U15328   3.813   0.762   8.240  1.9738  2.0456  0.7108
  140OSM    C1F15329   3.733   1.275   6.757  0.5181 -0.2176 -0.3624
  140OSM     OF15330   3.693   1.384   6.716  0.0030  0.2988 -0.3712
  140OSM    C2F15331   3.873   1.263   6.809 -0.1450 -0.5422 -0.0561
  140OSM    H2F15332   3.933   1.305   6.726  0.6723 -2.0105 -0.2222
  140OSM    H2G15333   3.906   1.157   6.816  0.4103 -0.4695 -1.4329
  140OSM    C3F15334   3.900   1.351   6.933  0.2930  0.0521  0.4552
  140OSM    H3F15335   3.875   1.457   6.910  3.6406  0.8716  0.3217
  140OSM    H3G15336   4.010   1.349   6.953  0.6631 -0.9201 -1.5861
  140OSM    C4F15337   3.840   1.292   7.064  0.0759  0.3064  0.1766
  140OSM    H4F15338   3.908   1.212   7.100 -0.4315 -0.0825  0.2785
  140OSM    H4G15339   3.737   1.249   7.060 -0.1770  0.7377  1.7032
  140OSM    C5F15340   3.837   1.390   7.184  0.2831 -0.1114  0.2332
  140OSM    H5F15341   3.761   1.468   7.161  1.7657  1.0162 -0.9724
  140OSM    H5G15342   3.933   1.444   7.196 -0.4767  1.6896 -1.5827
  140OSM    C6F15343   3.799   1.321   7.315  0.5782  0.0696  0.5036
  140OSM    H6F15344   3.881   1.257   7.354  1.3315  0.0799 -1.0285
  140OSM    H6G15345   3.725   1.244   7.286  3.3867 -1.6428 -2.4853
  140OSM    C7F15346   3.743   1.409   7.428  0.8951  0.2133  0.4234
  140OSM    H7F15347   3.639   1.441   7.406  0.2574 -1.3598  1.0888
  140OSM    H7G15348   3.814   1.494   7.444  1.3816 -0.0963 -0.0562
  140OSM    C8F15349   3.736   1.339   7.569  0.2192  0.5595 -0.6235
  140OSM    H8F15350   3.714   1.231   7.554 -0.4837  1.0059 -2.9214
  140OSM    H8G15351   3.659   1.385   7.635  0.9791 -1.0860  1.4611
  140OSM    C9F15352   3.873   1.327   7.638  0.5755  0.5958  0.3750
  140OSM    H9F15353   3.942   1.255   7.592 -0.8325 -0.4362 -0.1591
  140OSM   C10F15354   3.910   1.405   7.743 -0.1608  0.4127  0.3662
  140OSM   H10F15355   4.008   1.388   7.789  1.2084  3.0357 -1.4234
  140OSM   C11F15356   3.820   1.516   7.805  0.5945  0.4102 -0.2555
  140OSM   H11F15357   3.739   1.552   7.738 -1.3532 -0.4629  1.5498
  140OSM   H11G15358   3.874   1.611   7.822  0.5252  0.2478  0.8850
  140OSM   C12F15359   3.761   1.463   7.935  0.2877  0.8140 -0.6570
  140OSM   H12F15360   3.703   1.369   7.921 -0.7009  0.9728  2.0556
  140OSM   H12G15361   3.682   1.527   7.979 -0.1807 -1.0537  1.3137
  140OSM   C13F15362   3.868   1.449   8.047  0.1955 -0.2624  0.3314
  140OSM   H13F15363   3.934   1.536   8.028  0.1896 -0.6110 -1.3860
  140OSM   H13G15364   3.927   1.357   8.028 -1.2229 -1.1206  0.0055
  140OSM   C14F15365   3.809   1.452   8.194 -0.5880  0.7618  0.1199
  140OSM   H14F15366   3.754   1.357   8.216 -0.3964  0.5981 -0.1011
  140OSM   H14G15367   3.742   1.537   8.221 -1.7149 -0.7005  2.0487
  140OSM   C15F15368   3.916   1.466   8.297 -0.3789 -0.2209 -0.0092
  140OSM   H15F15369   3.962   1.567   8.295  0.6916 -0.7146 -2.0898
  140OSM   H15G15370   3.996   1.390   8.285 -1.3783 -1.2564 -0.2907
  140OSM   C16F15371   3.862   1.450   8.444  0.2807  0.5498  0.6402
  140OSM   H16F15372   3.774   1.517   8.449  0.0702  0.5011 -1.7249
  140OSM   H16G15373   3.940   1.479   8.517  0.3004 -1.1196  1.2980
  140OSM   C17F15374   3.813   1.310   8.486 -0.0396 -0.6317  0.4112
  140OSM   H17F15375   3.909   1.254   8.491  0.2807 -0.2393 -1.1613
  140OSM   H17G15376   3.743   1.276   8.407  0.7764  0.0865 -0.6225
  140OSM   C18F15377   3.748   1.323   8.622 -0.1600 -0.2901 -0.4240
  140OSM   H18F15378   3.660   1.391   8.616  1.4259  2.0461  1.7225
  140OSM   H18G15379   3.819   1.361   8.698 -0.1308  2.0096 -1.5479
  140OSM   H18H15380   3.718   1.223   8.660  0.6262 -0.5772 -0.5532
  141OSM      N15381   2.352   3.076   6.323 -0.0738 -0.3418  0.5364
  141OSM    C1515382   2.238   3.170   6.353 -0.4701 -0.1130 -0.0077
  141OSM   H15A15383   2.242   3.263   6.298 -0.2949 -0.6063 -0.8356
  141OSM   H15B15384   2.247   3.183   6.460  1.3022  2.5214 -0.4237
  141OSM   H15C15385   2.142   3.129   6.323 -0.7909 -0.6479  1.7408
  141OSM    C1415386   2.479   3.156   6.318 -0.4014  0.8198  0.1452
  141OSM   H14A15387   2.503   3.171   6.423  0.3167  0.6874  0.0034
  141OSM   H14B15388   2.456   3.243   6.259 -0.8840  0.2352 -0.5303
  141OSM   H14C15389   2.555   3.092   6.277 -0.5876  0.0292  1.0015
  141OSM    C1315390   2.350   2.971   6.428 -0.6633  0.0720  0.8218
  141OSM   H13A15391   2.416   2.887   6.412  0.2623  0.8971  0.1961
  141OSM   H13B15392   2.250   2.934   6.444  0.0622 -1.2133  2.5632
  141OSM   H13C15393   2.368   3.021   6.522 -1.5807  0.3597  0.8455
  141OSM    C1215394   2.335   3.014   6.186  0.7553 -0.4028 -0.6349
  141OSM   H12A15395   2.353   3.088   6.109 -0.7403 -0.3040 -0.9129
  141OSM   H12B15396   2.233   2.981   6.174  0.3347  0.4199  0.5681
  141OSM    C1115397   2.439   2.903   6.154 -0.1244 -0.2292  1.2978
  141OSM   H11A15398   2.538   2.938   6.191 -0.2778  0.9123  0.6530
  141OSM   H11B15399   2.437   2.887   6.044  1.0794  0.6650  1.1315
  141OSM      P15400   2.494   2.675   6.266 -0.2931 -0.1813 -0.2167
  141OSM    O1315401   2.414   2.555   6.299  0.0784 -0.0777  0.3646
  141OSM    O1415402   2.600   2.659   6.168  0.2279  1.0757  0.5978
  141OSM    O1115403   2.549   2.735   6.401  0.0929  0.6306  0.1037
  141OSM    O1215404   2.399   2.784   6.222  0.6261  0.5234  0.1436
  141OSM    C1S15405   2.659   2.681   6.472  0.0413  0.4170  0.2531
  141OSM    H1S15406   2.742   2.746   6.437  1.5133 -2.2295 -1.3769
  141OSM    H1T15407   2.678   2.574   6.448 -1.6096  0.1627  0.0515
  141OSM     NF15408   2.761   2.666   6.700  1.0273  0.0427  0.7552
  141OSM    HNF15409   2.757   2.576   6.743  0.5198 -0.9064 -1.2375
  141OSM    C2S15410   2.636   2.700   6.626  0.5467  0.5982  0.3182
  141OSM    H2S15411   2.607   2.807   6.633  3.3450  1.3155  1.4989
  141OSM    C3S15412   2.514   2.610   6.674 -0.8145  0.3628  1.2045
  141OSM    H3S15413   2.549   2.507   6.697 -0.0404 -0.1869 -2.2241
  141OSM     O315414   2.412   2.597   6.577 -0.3296  0.6477  0.2119
  141OSM    HO315415   2.448   2.645   6.502 -1.6596  2.4465  0.6863
  141OSM    C4S15416   2.461   2.657   6.802  0.4017  0.0084  0.4526
  141OSM    H4S15417   2.521   2.621   6.888 -2.0045  1.7029  2.9136
  141OSM    C5S15418   2.351   2.728   6.829 -0.6533 -0.0524  0.3361
  141OSM    H5S15419   2.288   2.739   6.739 -0.0554 -1.5342 -0.2836
  141OSM    C6S15420   2.295   2.775   6.959 -0.3388  0.0212 -0.3915
  141OSM    H6S15421   2.187   2.759   6.976  0.1509 -4.2153 -0.6456
  141OSM    H6T15422   2.304   2.885   6.966  0.8744 -0.1771  1.3366
  141OSM    C7S15423   2.371   2.704   7.075  0.1356 -0.1253  0.2524
  141OSM    H7S15424   2.479   2.732   7.076  0.0755  0.1182  0.0396
  141OSM    H7T15425   2.363   2.593   7.072  0.8295 -0.2169  1.4354
  141OSM    C8S15426   2.307   2.742   7.207 -0.5256 -0.8744  0.4535
  141OSM    H8S15427   2.200   2.717   7.195 -0.8777  1.4804 -1.8625
  141OSM    H8T15428   2.326   2.851   7.219  0.3157 -0.9800  0.1509
  141OSM    C9S15429   2.362   2.681   7.331 -0.3129 -0.0744  0.5522
  141OSM    H9S15430   2.471   2.702   7.324 -0.1999 -0.4333  1.2010
  141OSM    H9T15431   2.355   2.571   7.332 -0.1025 -0.1014  3.0683
  141OSM   C10S15432   2.298   2.748   7.448  0.3984  1.3871  0.0630
  141OSM   H10S15433   2.190   2.726   7.437  0.6498  0.3646 -0.4387
  141OSM   H10T15434   2.319   2.855   7.425 -1.5715  2.1083  1.5326
  141OSM   C11S15435   2.363   2.708   7.582  0.1308 -0.7571 -0.1807
  141OSM   H11S15436   2.470   2.688   7.557  0.3618  0.1288  0.0931
  141OSM   H11T15437   2.319   2.616   7.626 -1.0480  0.8442  2.0577
  141OSM   C12S15438   2.354   2.812   7.696  0.0800  1.0648  0.1422
  141OSM   H12S15439   2.247   2.841   7.707 -0.7250 -1.4479 -0.7011
  141OSM   H12T15440   2.408   2.902   7.659  0.8730  1.0260  1.1821
  141OSM   C13S15441   2.411   2.774   7.828  0.0197  0.6677  0.1681
  141OSM   H13S15442   2.451   2.863   7.882  1.7638  1.9128 -3.0078
  141OSM   H13T15443   2.500   2.711   7.806  0.2665  0.8039  0.7722
  141OSM   C14S15444   2.317   2.676   7.898  0.4912 -0.2650 -0.9001
  141OSM   H14S15445   2.299   2.583   7.840  0.8622 -0.6803 -0.3576
  141OSM   H14T15446   2.218   2.726   7.903  1.6697  1.8982  2.1447
  141OSM   C15S15447   2.382   2.621   8.028  0.6642  0.0623 -0.6669
  141OSM   H15S15448   2.388   2.701   8.105 -3.0361 -0.2407  0.0363
  141OSM   H15T15449   2.483   2.587   7.997  0.2227 -0.0699 -1.9759
  141OSM   C16S15450   2.296   2.513   8.093 -0.2014 -0.3504  0.0753
  141OSM   H16S15451   2.280   2.434   8.016  2.2704  1.2096 -2.1353
  141OSM   H16T15452   2.193   2.549   8.117 -1.0356 -1.1637 -2.0682
  141OSM   C17S15453   2.357   2.467   8.225  0.7970  0.0020  0.2465
  141OSM   H17S15454   2.302   2.374   8.250  2.0990 -1.4320 -2.0233
  141OSM   H17T15455   2.351   2.538   8.311 -0.0394 -0.3986  0.5161
  141OSM   C18S15456   2.500   2.428   8.214 -0.2149  0.1478 -0.6442
  141OSM   H18S15457   2.536   2.371   8.303 -1.2962 -1.4412 -1.1906
  141OSM   H18T15458   2.572   2.511   8.203  1.4574 -1.1064  0.5251
  141OSM   H18U15459   2.515   2.364   8.124 -0.8934  1.5251 -1.7497
  141OSM    C1F15460   2.874   2.744   6.698  0.3700 -0.1111 -0.3187
  141OSM     OF15461   2.878   2.847   6.634 -0.1050  0.2866 -0.3739
  141OSM    C2F15462   3.006   2.681   6.758 -0.1041 -0.3650  0.8139
  141OSM    H2F15463   3.084   2.701   6.681 -0.9210 -3.1590 -0.7863
  141OSM    H2G15464   2.989   2.572   6.765  1.8640 -0.8169 -0.8477
  141OSM    C3F15465   3.065   2.747   6.880  0.4871 -0.2197 -0.2697
  141OSM    H3F15466   3.101   2.850   6.858  1.0186 -0.2719  0.3210
  141OSM    H3G15467   3.156   2.695   6.916  0.2588  1.2559  2.6181
  141OSM    C4F15468   2.958   2.768   6.999 -0.3348 -0.1605  0.3833
  141OSM    H4F15469   2.957   2.674   7.058 -1.0532 -1.0634 -1.0274
  141OSM    H4G15470   2.854   2.800   6.973 -0.2748 -0.7707 -0.6708
  141OSM    C5F15471   3.003   2.870   7.096 -0.3039  0.2042 -0.5078
  141OSM    H5F15472   2.978   2.971   7.057  0.3241  0.1956 -0.9434
  141OSM    H5G15473   3.113   2.870   7.111 -0.2590  3.8211 -0.3373
  141OSM    C6F15474   2.943   2.843   7.233 -0.4158  0.1907 -0.6137
  141OSM    H6F15475   2.966   2.737   7.259  0.6269  0.9618  1.7309
  141OSM    H6G15476   2.832   2.851   7.241 -0.8857 -2.2896 -3.5020
  141OSM    C7F15477   3.020   2.921   7.345  0.0282  0.2460 -0.1505
  141OSM    H7F15478   3.013   3.029   7.319  0.2856  0.4377  0.5609
  141OSM    H7G15479   3.126   2.890   7.334 -0.1677 -0.9116  1.0270
  141OSM    C8F15480   2.965   2.919   7.493  0.3335 -0.2312  0.1771
  141OSM    H8F15481   2.859   2.951   7.502  0.1427 -0.4512 -1.2872
  141OSM    H8G15482   3.008   3.012   7.537 -0.8560  0.6145 -0.4212
  141OSM    C9F15483   3.004   2.799   7.578 -0.2804  0.0504  0.2360
  141OSM    H9F15484   3.096   2.746   7.550 -0.2698  1.6779 -3.0037
  141OSM   C10F15485   2.927   2.745   7.666 -0.0683 -0.5977 -0.2652
  141OSM   H10F15486   2.969   2.655   7.713 -0.1312  0.1891  1.3265
  141OSM   C11F15487   2.797   2.794   7.725 -0.4540 -0.2627  0.9520
  141OSM   H11F15488   2.740   2.705   7.758 -1.1699  0.1967  0.9662
  141OSM   H11G15489   2.733   2.861   7.663  0.4664  0.5752  0.8968
  141OSM   C12F15490   2.815   2.885   7.858  0.7543  0.2823  0.0484
  141OSM   H12F15491   2.736   2.963   7.856 -0.4366 -0.8451  1.6722
  141OSM   H12G15492   2.911   2.939   7.860  0.7101  0.3356  1.9604
  141OSM   C13F15493   2.822   2.811   7.988  0.4761 -0.3628 -0.5567
  141OSM   H13F15494   2.916   2.752   7.996  1.9837  2.2577  2.2639
  141OSM   H13G15495   2.740   2.737   7.981  0.8688 -0.6374 -2.5126
  141OSM   C14F15496   2.799   2.904   8.111  0.0340  0.0424  0.6083
  141OSM   H14F15497   2.694   2.939   8.109  0.1276  0.3044  0.2041
  141OSM   H14G15498   2.869   2.990   8.110 -2.0530  1.7906 -0.3885
  141OSM   C15F15499   2.816   2.820   8.229 -0.1521  0.0482 -0.0750
  141OSM   H15F15500   2.919   2.778   8.227  0.2787  0.9775  1.5040
  141OSM   H15G15501   2.746   2.734   8.236 -1.6758  1.0926 -2.2898
  141OSM   C16F15502   2.829   2.900   8.359 -0.0230  0.1192 -0.9298
  141OSM   H16F15503   2.740   2.967   8.360 -0.6762 -0.7106  2.1788
  141OSM   H16G15504   2.917   2.967   8.358 -1.9275  2.7336  0.1921
  141OSM   C17F15505   2.845   2.826   8.490  0.3631  0.2856 -0.1239
  141OSM   H17F15506   2.837   2.899   8.573  0.8094 -1.3392  1.3649
  141OSM   H17G15507   2.948   2.785   8.491  0.5012  0.5176 -2.4541
  141OSM   C18F15508   2.735   2.720   8.519 -0.4766 -0.4618 -0.3620
  141OSM   H18F15509   2.736   2.638   8.443 -1.5537  0.7202 -1.6909
  141OSM   H18G15510   2.640   2.778   8.521  0.2821  0.7481  2.8527
  141OSM   H18H15511   2.747   2.681   8.622  0.3388 -0.8857 -0.6150
  142OSM      N15512   3.261   4.317   6.028 -0.4070 -0.0780  0.1287
  142OSM    C1515513   3.255   4.469   6.051  0.5648 -1.0064  0.3140
  142OSM   H15A15514   3.318   4.517   6.124 -1.0704  3.0838 -0.8231
  142OSM   H15B15515   3.155   4.477   6.091  0.7088  0.0893  0.4584
  142OSM   H15C15516   3.271   4.527   5.962  0.2365 -2.0269 -0.4267
  142OSM    C1415517   3.151   4.276   5.932 -0.5363  0.3593  0.0111
  142OSM   H14A15518   3.149   4.343   5.847 -1.0954 -1.3202 -1.3189
  142OSM   H14B15519   3.052   4.277   5.976 -1.1810 -1.1259 -1.3924
  142OSM   H14C15520   3.181   4.181   5.892 -0.4240  0.4280 -0.0671
  142OSM    C1315521   3.398   4.292   5.971  0.3439 -0.2443 -0.4016
  142OSM   H13A15522   3.411   4.190   5.940 -0.8579 -0.0127 -1.7154
  142OSM   H13B15523   3.484   4.316   6.032  1.0824 -1.1923 -1.0690
  142OSM   H13C15524   3.411   4.347   5.879  3.5966  2.2138  1.4184
  142OSM    C1215525   3.244   4.246   6.160  0.5575  0.0912  0.5384
  142OSM   H12A15526   3.306   4.297   6.233  0.9462  0.5531 -0.1097
  142OSM   H12B15527   3.263   4.139   6.164 -0.7409 -0.2749 -2.0286
  142OSM    C1115528   3.101   4.251   6.234  0.4177 -0.6241  0.3356
  142OSM   H11A15529   3.116   4.187   6.324  0.3045  1.5963  1.9808
  142OSM   H11B15530   3.016   4.197   6.187  0.0684  1.0254 -0.9652
  142OSM      P15531   2.930   4.452   6.302  0.0284  0.0541 -0.3419
  142OSM    O1315532   2.953   4.601   6.320  0.1530 -0.3482 -0.1612
  142OSM    O1415533   2.838   4.409   6.194 -0.5314 -0.0374 -0.2450
  142OSM    O1115534   2.897   4.385   6.443 -0.1587 -0.5446  0.2025
  142OSM    O1215535   3.074   4.385   6.277  0.1963  0.1579  0.5973
  142OSM    C1S15536   3.001   4.392   6.546  0.5362  0.2793  0.4215
  142OSM    H1S15537   3.062   4.486   6.541 -1.0778  1.3237 -0.0437
  142OSM    H1T15538   3.071   4.306   6.542  1.9464  1.4210 -0.3116
  142OSM     NF15539   3.028   4.468   6.779  0.2232 -0.2415 -0.1321
  142OSM    HNF15540   3.076   4.405   6.840  0.6036  1.0417  0.9186
  142OSM    C2S15541   2.935   4.411   6.685  0.5470 -0.2249  0.0978
  142OSM    H2S15542   2.845   4.473   6.670  0.5186 -0.7099 -1.8544
  142OSM    C3S15543   2.879   4.277   6.748 -0.3562 -0.1093  1.0344
  142OSM    H3S15544   2.961   4.201   6.750 -0.1328  0.0843 -0.3358
  142OSM     O315545   2.786   4.228   6.653  0.0602  0.3506  0.1791
  142OSM    HO315546   2.798   4.289   6.580  0.8033 -0.5230 -0.4267
  142OSM    C4S15547   2.831   4.289   6.888  0.5033 -0.0108 -0.0124
  142OSM    H4S15548   2.914   4.290   6.960 -0.8577  2.7335  1.6190
  142OSM    C5S15549   2.707   4.305   6.934 -0.7956 -0.7701  0.0262
  142OSM    H5S15550   2.626   4.324   6.863 -1.6066 -0.3321  1.0629
  142OSM    C6S15551   2.680   4.331   7.084 -0.7183 -0.6555  0.0628
  142OSM    H6S15552   2.580   4.289   7.110 -0.5545 -0.0092  1.8090
  142OSM    H6T15553   2.682   4.440   7.103  1.3580 -0.6061 -0.3256
  142OSM    C7S15554   2.785   4.284   7.181  0.0515 -0.1229  0.1392
  142OSM    H7S15555   2.878   4.344   7.167  0.9843 -1.7320 -0.7461
  142OSM    H7T15556   2.798   4.175   7.166  0.0221 -0.2263  0.8178
  142OSM    C8S15557   2.749   4.316   7.332  0.3149  0.1785 -0.0687
  142OSM    H8S15558   2.640   4.305   7.346  0.3921  0.7330  1.0679
  142OSM    H8T15559   2.778   4.421   7.356 -0.5513  0.5217 -0.5281
  142OSM    C9S15560   2.826   4.231   7.431 -0.1844  0.5225  0.8032
  142OSM    H9S15561   2.928   4.202   7.397 -0.4710 -0.0854  0.4549
  142OSM    H9T15562   2.783   4.132   7.458  1.1093 -0.4647 -0.6407
  142OSM   C10S15563   2.843   4.297   7.570  0.5428 -0.7039 -0.2639
  142OSM   H10S15564   2.745   4.336   7.607  0.9212 -1.2895  1.4071
  142OSM   H10T15565   2.910   4.385   7.565  0.5223 -0.8213 -4.9699
  142OSM   C11S15566   2.901   4.195   7.659  0.2042 -0.1388  0.3204
  142OSM   H11S15567   2.987   4.150   7.605  0.6830  1.1208  0.0054
  142OSM   H11T15568   2.821   4.120   7.675 -1.2380  1.7678  2.4697
  142OSM   C12S15569   2.962   4.239   7.795  0.2513  0.6074 -0.7740
  142OSM   H12S15570   3.026   4.326   7.769  0.0622  0.9917  0.0201
  142OSM   H12T15571   3.024   4.164   7.849 -3.1649 -1.7488  0.0955
  142OSM   C13S15572   2.851   4.281   7.898 -0.2883 -0.5488  0.6497
  142OSM   H13S15573   2.763   4.217   7.879 -2.1070  2.2754 -0.9032
  142OSM   H13T15574   2.836   4.389   7.873  1.3584 -0.4371  0.1121
  142OSM   C14S15575   2.890   4.293   8.044  0.2720 -0.5591  0.1498
  142OSM   H14S15576   2.990   4.334   8.072  0.5521 -2.1636  1.5568
  142OSM   H14T15577   2.885   4.187   8.077 -0.6772 -1.3844 -2.5135
  142OSM   C15S15578   2.775   4.362   8.127  0.4462 -0.1287 -0.6234
  142OSM   H15S15579   2.785   4.318   8.228 -1.0565  1.6664  0.3287
  142OSM   H15T15580   2.681   4.328   8.078  0.8052 -2.3943  0.2306
  142OSM   C16S15581   2.791   4.513   8.134  0.2702  0.1131  0.4575
  142OSM   H16S15582   2.718   4.560   8.203 -0.3946  1.5957 -1.2216
  142OSM   H16T15583   2.756   4.555   8.037 -0.7288 -1.2179  0.2419
  142OSM   C17S15584   2.927   4.570   8.174  0.1189  0.0540  0.2682
  142OSM   H17S15585   3.002   4.554   8.093  0.3175 -0.5917  0.5764
  142OSM   H17T15586   2.961   4.530   8.272  1.0030 -0.1370 -0.1150
  142OSM   C18S15587   2.922   4.727   8.185 -0.0728  0.6068 -0.4486
  142OSM   H18S15588   2.856   4.766   8.104  0.0354  2.3228  0.2579
  142OSM   H18T15589   3.022   4.774   8.172 -0.7180  1.7727 -1.3688
  142OSM   H18U15590   2.881   4.759   8.283  1.6341 -1.8578  1.1284
  142OSM    C1F15591   3.057   4.600   6.790  0.3990  0.3586 -0.4387
  142OSM     OF15592   3.010   4.669   6.702  0.2946 -0.8169 -0.2054
  142OSM    C2F15593   3.151   4.640   6.904 -0.3980 -0.4017 -0.0090
  142OSM    H2F15594   3.155   4.559   6.979 -1.7746 -1.8094 -1.4428
  142OSM    H2G15595   3.109   4.725   6.962 -0.7280 -1.6455  1.6154
  142OSM    C3F15596   3.300   4.664   6.861  0.4231  0.4384  0.5962
  142OSM    H3F15597   3.294   4.761   6.807 -0.3414  0.3827  0.5769
  142OSM    H3G15598   3.338   4.583   6.795  0.3503  1.4291 -0.6843
  142OSM    C4F15599   3.397   4.703   6.979  0.1557 -0.1836 -0.3240
  142OSM    H4F15600   3.493   4.739   6.935 -1.1344  1.5285 -1.7893
  142OSM    H4G15601   3.426   4.615   7.040  0.0243 -0.3207 -0.4622
  142OSM    C5F15602   3.345   4.805   7.086  0.1686  0.0412 -0.5001
  142OSM    H5F15603   3.251   4.764   7.129 -1.5474  0.2551 -3.9055
  142OSM    H5G15604   3.320   4.899   7.033 -2.1109  1.0888  2.2749
  142OSM    C6F15605   3.451   4.832   7.198 -0.0521 -0.5282  0.0323
  142OSM    H6F15606   3.541   4.874   7.148 -0.7085  0.9763  0.0766
  142OSM    H6G15607   3.466   4.730   7.238 -0.2330 -1.5037 -2.2921
  142OSM    C7F15608   3.404   4.929   7.305  0.0199  0.7275 -0.0041
  142OSM    H7F15609   3.318   4.890   7.364  0.6441 -0.1075  0.3659
  142OSM    H7G15610   3.379   5.023   7.252 -1.2912  0.6975  0.5372
  142OSM    C8F15611   3.514   4.963   7.414  0.1813 -0.5028  0.1785
  142OSM    H8F15612   3.597   5.007   7.355 -0.6662  0.6141 -0.1988
  142OSM    H8G15613   3.550   4.866   7.456  2.5777  0.4892  0.5237
  142OSM    C9F15614   3.467   5.040   7.531 -0.4611 -0.1432  0.3546
  142OSM    H9F15615   3.378   4.995   7.577 -1.5887  1.1530 -0.5337
  142OSM   C10F15616   3.523   5.148   7.588  0.0721 -0.1926  0.9775
  142OSM   H10F15617   3.483   5.200   7.676  1.8031  0.9972  1.1018
  142OSM   C11F15618   3.646   5.225   7.538 -0.0486  0.1699 -0.4065
  142OSM   H11F15619   3.721   5.158   7.491  0.4626  0.8403 -0.5578
  142OSM   H11G15620   3.700   5.274   7.622  1.2912 -1.3169 -0.3933
  142OSM   C12F15621   3.617   5.329   7.429  0.6647 -0.5986 -0.9763
  142OSM   H12F15622   3.561   5.406   7.486  1.2030 -1.8845  1.3497
  142OSM   H12G15623   3.552   5.279   7.354  2.4883 -0.2695 -2.8433
  142OSM   C13F15624   3.743   5.389   7.355 -0.4903 -1.2862  0.3037
  142OSM   H13F15625   3.822   5.311   7.354  2.0476  1.1845  0.6147
  142OSM   H13G15626   3.786   5.478   7.405 -1.1107 -0.9228  0.2044
  142OSM   C14F15627   3.685   5.444   7.220 -0.1737  0.1100 -0.0685
  142OSM   H14F15628   3.611   5.525   7.238  0.9660  1.3928 -1.0243
  142OSM   H14G15629   3.649   5.359   7.159 -0.3378  0.0011  0.1852
  142OSM   C15F15630   3.783   5.512   7.124 -0.5206 -0.9512  0.3309
  142OSM   H15F15631   3.887   5.505   7.163 -0.2746  1.9480  0.3085
  142OSM   H15G15632   3.767   5.622   7.121  0.7863 -0.7602 -4.3962
  142OSM   C16F15633   3.782   5.446   6.986 -0.1086 -0.1931 -0.1597
  142OSM   H16F15634   3.689   5.473   6.932 -0.1877 -1.2044 -0.5356
  142OSM   H16G15635   3.789   5.337   7.004 -2.9068 -0.4979 -0.7401
  142OSM   C17F15636   3.900   5.483   6.891 -0.7102 -0.3941  0.0226
  142OSM   H17F15637   3.881   5.437   6.792 -0.4212  1.7313 -1.0467
  142OSM   H17G15638   3.999   5.448   6.929 -0.8393 -1.0015 -0.2062
  142OSM   C18F15639   3.900   5.634   6.871  0.6102 -0.4714 -0.9150
  142OSM   H18F15640   3.917   5.692   6.964 -2.0281 -0.7848 -0.1816
  142OSM   H18G15641   3.799   5.671   6.841  1.2421  1.6447 -0.4877
  142OSM   H18H15642   3.975   5.667   6.796 -1.4830  3.0574 -1.5893
  143OSM      N15643   5.307   0.143   6.138 -0.3700  0.6313  0.6033
  143OSM    C1515644   5.388   0.193   6.249 -0.8033 -0.1584  0.1621
  143OSM   H15A15645   5.463   0.122   6.281 -0.0389 -0.4958 -2.2795
  143OSM   H15B15646   5.321   0.211   6.332  0.6426 -0.9079  1.5199
  143OSM   H15C15647   5.426   0.294   6.239 -1.1542 -0.0617 -0.1742
  143OSM    C1415648   5.388   0.161   6.016 -0.5407  0.6177  0.5434
  143OSM   H14A15649   5.321   0.141   5.934  1.0251 -1.7224 -0.2256
  143OSM   H14B15650   5.465   0.085   6.014  0.0038  1.2014 -1.4861
  143OSM   H14C15651   5.435   0.258   6.027  2.5579 -0.5390 -1.7148
  143OSM    C1315652   5.283  -0.006   6.160 -1.2373 -0.3838 -0.5766
  143OSM   H13A15653   5.381  -0.050   6.176  0.2085  3.2880  1.2992
  143OSM   H13B15654   5.243  -0.049   6.070  1.8318 -1.6982 -1.3909
  143OSM   H13C15655   5.228  -0.016   6.252 -0.8856  0.3615 -0.2817
  143OSM    C1215656   5.176   0.227   6.117 -0.2964 -0.0976 -0.2827
  143OSM   H12A15657   5.126   0.203   6.024 -1.5108 -2.4994  0.9390
  143OSM   H12B15658   5.207   0.330   6.115 -1.5116  0.2700 -2.2163
  143OSM    C1115659   5.068   0.213   6.226  0.4410 -0.3931  0.5155
  143OSM   H11A15660   5.060   0.103   6.236  1.2416 -0.5248 -0.2463
  143OSM   H11B15661   4.971   0.261   6.199  1.0480  0.3016 -0.5173
  143OSM      P15662   5.066   0.418   6.394 -0.2196 -0.1814  0.0517
  143OSM    O1315663   5.164   0.476   6.487  0.3057 -0.1368 -0.0389
  143OSM    O1415664   5.032   0.495   6.268 -0.3751  0.2489 -0.1372
  143OSM    O1115665   4.938   0.389   6.479  0.6875 -0.2007 -0.4881
  143OSM    O1215666   5.115   0.270   6.350 -0.4392 -0.2832  0.2514
  143OSM    C1S15667   4.924   0.262   6.537  0.3194 -0.0335  1.0141
  143OSM    H1S15668   5.002   0.236   6.612 -1.0613 -1.5598  1.9591
  143OSM    H1T15669   4.932   0.179   6.464 -0.2442 -0.0533  0.9716
  143OSM     NF15670   4.778   0.113   6.687 -0.3452 -0.2623 -0.0124
  143OSM    HNF15671   4.717   0.055   6.633 -2.8520  0.7989  1.5727
  143OSM    C2S15672   4.796   0.247   6.632  0.0243 -0.5075  0.2263
  143OSM    H2S15673   4.808   0.319   6.715  0.5393  0.9969 -1.1362
  143OSM    C3S15674   4.666   0.300   6.554 -0.4555 -0.2403 -0.3414
  143OSM    H3S15675   4.644   0.243   6.461 -0.2074 -1.3225  0.2539
  143OSM     O315676   4.679   0.435   6.512 -0.0307  0.5159 -0.1678
  143OSM    HO315677   4.773   0.447   6.503  0.5120 -3.9160 -1.5028
  143OSM    C4S15678   4.545   0.302   6.646 -0.1008 -0.0412 -0.0873
  143OSM    H4S15679   4.514   0.199   6.670  2.4403  0.0064  3.9354
  143OSM    C5S15680   4.472   0.399   6.708  0.6888 -0.8769 -0.2532
  143OSM    H5S15681   4.516   0.500   6.702  0.8380 -0.9059  0.3078
  143OSM    C6S15682   4.360   0.375   6.808  0.2939 -0.0850 -0.4322
  143OSM    H6S15683   4.257   0.403   6.778  0.0918 -0.3147  0.0505
  143OSM    H6T15684   4.376   0.440   6.896 -3.1241  0.4649 -0.1505
  143OSM    C7S15685   4.346   0.222   6.859 -0.4922 -0.8915  0.2717
  143OSM    H7S15686   4.449   0.180   6.862 -0.0201  0.2311  0.1627
  143OSM    H7T15687   4.297   0.152   6.788  0.3117 -0.1443 -1.0474
  143OSM    C8S15688   4.291   0.202   7.005  0.8579 -0.4464 -0.1540
  143OSM    H8S15689   4.268   0.094   7.017 -0.7309  0.0057  1.0781
  143OSM    H8T15690   4.206   0.268   7.031 -0.5089 -2.5195  0.7598
  143OSM    C9S15691   4.403   0.218   7.108  0.6691 -0.6303  0.4459
  143OSM    H9S15692   4.409   0.328   7.123 -0.6465 -0.9250  3.4843
  143OSM    H9T15693   4.496   0.167   7.075  0.6817 -0.1813 -0.2126
  143OSM   C10S15694   4.362   0.155   7.243 -1.1541  0.6453 -0.8865
  143OSM   H10S15695   4.260   0.181   7.278 -0.8028 -1.7667  2.1942
  143OSM   H10T15696   4.435   0.185   7.322 -1.2891 -1.1659 -0.0524
  143OSM   C11S15697   4.374  -0.002   7.255  0.1252  0.0377 -0.1594
  143OSM   H11S15698   4.468  -0.035   7.205 -1.8605 -3.0425 -2.0744
  143OSM   H11T15699   4.288  -0.037   7.194 -1.0752  1.1655  0.8676
  143OSM   C12S15700   4.374  -0.062   7.400  0.3541 -0.0867  0.1692
  143OSM   H12S15701   4.344  -0.168   7.388 -0.7145  0.3110 -0.8751
  143OSM   H12T15702   4.285  -0.015   7.448 -0.4883 -1.9013  0.4194
  143OSM   C13S15703   4.487  -0.023   7.493 -0.2067  0.5451  0.5603
  143OSM   H13S15704   4.467   0.080   7.527 -1.8677  0.5316 -0.3607
  143OSM   H13T15705   4.587  -0.025   7.445 -1.7527  1.8044 -2.7943
  143OSM   C14S15706   4.518  -0.116   7.607 -0.1407  0.7672 -0.8157
  143OSM   H14S15707   4.602  -0.070   7.664 -0.3561  2.0138 -1.4871
  143OSM   H14T15708   4.561  -0.212   7.572 -1.3722  0.1272 -0.6082
  143OSM   C15S15709   4.404  -0.148   7.709 -0.4703 -0.5403 -0.0678
  143OSM   H15S15710   4.336  -0.204   7.641 -0.7072  2.2536 -2.2697
  143OSM   H15T15711   4.357  -0.054   7.746 -0.6989 -0.9019  0.5690
  143OSM   C16S15712   4.437  -0.237   7.827 -0.2876  0.1876  0.0992
  143OSM   H16S15713   4.520  -0.308   7.806 -1.1300 -0.4568 -1.0402
  143OSM   H16T15714   4.352  -0.294   7.871  0.1054 -1.1855 -0.8784
  143OSM   C17S15715   4.492  -0.150   7.944 -0.1239 -0.4368 -0.0731
  143OSM   H17S15716   4.408  -0.083   7.973  0.6855 -0.3854  2.2551
  143OSM   H17T15717   4.573  -0.084   7.906 -0.2501 -0.7990 -0.9766
  143OSM   C18S15718   4.545  -0.229   8.059  0.6442  0.1181  0.0523
  143OSM   H18S15719   4.550  -0.162   8.147  1.1994 -0.8362  0.7513
  143OSM   H18T15720   4.649  -0.247   8.024  0.7463  0.2301  0.2979
  143OSM   H18U15721   4.494  -0.327   8.066 -2.3574  1.6718  0.6192
  143OSM    C1F15722   4.857   0.063   6.779  0.7065  0.1253 -0.5552
  143OSM     OF15723   4.949   0.129   6.819 -0.5190 -0.3057  0.2242
  143OSM    C2F15724   4.835  -0.077   6.820 -0.0216  0.2129 -0.0444
  143OSM    H2F15725   4.915  -0.137   6.771  0.1470  0.9233 -0.6385
  143OSM    H2G15726   4.732  -0.099   6.785  0.3992  1.0277 -1.8392
  143OSM    C3F15727   4.840  -0.105   6.971 -0.0485 -0.6269  0.4243
  143OSM    H3F15728   4.764  -0.043   7.024 -0.2037 -0.0894 -0.4172
  143OSM    H3G15729   4.944  -0.074   6.996 -0.1954 -0.8165  1.2973
  143OSM    C4F15730   4.826  -0.250   7.011  0.9888  0.6208 -0.6458
  143OSM    H4F15731   4.887  -0.314   6.943  1.7385  0.2546  0.3533
  143OSM    H4G15732   4.722  -0.285   6.993  1.1977 -1.6407  2.1868
  143OSM    C5F15733   4.861  -0.279   7.151 -0.1101 -0.4319  0.3646
  143OSM    H5F15734   4.969  -0.258   7.167 -0.6615  0.8415  2.7235
  143OSM    H5G15735   4.847  -0.383   7.187  0.8541 -0.4831  0.6236
  143OSM    C6F15736   4.773  -0.203   7.258 -0.8413  0.5388 -0.5193
  143OSM    H6F15737   4.669  -0.239   7.246 -0.6254  0.0963 -1.0865
  143OSM    H6G15738   4.789  -0.094   7.239  2.7660  0.1302 -0.2040
  143OSM    C7F15739   4.822  -0.224   7.403 -0.1219 -0.0989 -0.1068
  143OSM    H7F15740   4.838  -0.328   7.437 -0.6603  0.0454  0.6090
  143OSM    H7G15741   4.762  -0.179   7.485  0.7869 -1.1194  1.1337
  143OSM    C8F15742   4.967  -0.160   7.417 -0.3205  0.2328 -0.7524
  143OSM    H8F15743   4.956  -0.055   7.384  0.8739  1.0817  1.4967
  143OSM    H8G15744   5.044  -0.194   7.343  1.5192  0.9702  0.7780
  143OSM    C9F15745   5.027  -0.175   7.557  0.5174 -0.4535  0.8544
  143OSM    H9F15746   5.057  -0.276   7.589  0.6209 -1.1847 -1.4245
  143OSM   C10F15747   5.034  -0.070   7.640 -0.0213 -0.2957 -0.1749
  143OSM   H10F15748   5.095  -0.093   7.728  0.1525 -0.0441 -0.2300
  143OSM   C11F15749   4.987   0.068   7.612  0.1625 -0.3466 -0.2029
  143OSM   H11F15750   4.884   0.064   7.569 -0.5377 -1.1831  1.5184
  143OSM   H11G15751   5.052   0.133   7.549 -1.3833  0.8168 -0.6297
  143OSM   C12F15752   4.972   0.148   7.744  0.0822 -0.0481 -0.5199
  143OSM   H12F15753   4.924   0.242   7.709  2.3821  1.1007 -0.6533
  143OSM   H12G15754   5.071   0.182   7.781  0.1219  2.0095 -2.4185
  143OSM   C13F15755   4.894   0.077   7.856 -0.1844 -0.1073 -0.4522
  143OSM   H13F15756   4.948  -0.012   7.894 -0.4896 -0.1317 -0.0805
  143OSM   H13G15757   4.795   0.055   7.811 -0.4831 -1.3851  0.8169
  143OSM   C14F15758   4.870   0.181   7.967  0.4886 -0.5992  0.0657
  143OSM   H14F15759   4.813   0.269   7.929  0.3790 -0.8973 -0.4680
  143OSM   H14G15760   4.970   0.209   8.007  1.2617  0.9645 -2.7995
  143OSM   C15F15761   4.780   0.118   8.081 -0.4935  0.4880 -0.2929
  143OSM   H15F15762   4.821   0.020   8.114 -1.6113 -0.7914 -2.5935
  143OSM   H15G15763   4.683   0.087   8.037 -0.5014 -0.1340  0.1559
  143OSM   C16F15764   4.749   0.211   8.207 -0.8592  0.3585 -0.3443
  143OSM   H16F15765   4.723   0.312   8.168  0.3531  0.6581 -0.3865
  143OSM   H16G15766   4.849   0.208   8.254 -1.2860 -1.5122  0.5148
  143OSM   C17F15767   4.638   0.162   8.293  0.7309  0.1560 -0.0935
  143OSM   H17F15768   4.657   0.059   8.331 -0.6199  0.0932  0.4674
  143OSM   H17G15769   4.549   0.147   8.228  1.0182  0.6224 -0.5917
  143OSM   C18F15770   4.604   0.245   8.413 -0.3991  0.1194 -0.3010
  143OSM   H18F15771   4.633   0.350   8.388 -0.8430  0.4315  0.4640
  143OSM   H18G15772   4.672   0.220   8.498 -1.4677 -0.8918  0.2708
  143OSM   H18H15773   4.497   0.238   8.442  0.3672  0.8305  2.9466
  144OSM      N15774   3.293   0.254   6.227 -0.4113 -0.3754  0.2787
  144OSM    C1515775   3.419   0.320   6.278 -0.8117  0.3714  0.3238
  144OSM   H15A15776   3.506   0.314   6.215  0.5248 -0.0510  2.1488
  144OSM   H15B15777   3.446   0.256   6.361  0.2542  1.9579  1.2389
  144OSM   H15C15778   3.379   0.413   6.318 -1.7276 -0.0483  0.4053
  144OSM    C1415779   3.177   0.273   6.327 -0.2391 -0.3696  0.5507
  144OSM   H14A15780   3.209   0.257   6.429  0.2590  1.4327  0.6956
  144OSM   H14B15781   3.087   0.221   6.299 -1.2364  0.2898  2.4921
  144OSM   H14C15782   3.154   0.378   6.337 -2.4080 -0.7660 -0.0703
  144OSM    C1315783   3.254   0.334   6.106 -0.1161  0.0500  0.5055
  144OSM   H13A15784   3.211   0.428   6.136 -0.4217  0.6629 -1.7369
  144OSM   H13B15785   3.187   0.273   6.047  0.1417  2.1295 -2.0397
  144OSM   H13C15786   3.333   0.351   6.034 -0.8012 -2.7128 -1.0036
  144OSM    C1215787   3.320   0.109   6.193 -0.2917 -0.9353 -0.2949
  144OSM   H12A15788   3.387   0.101   6.109  1.1438  0.5382  0.6888
  144OSM   H12B15789   3.228   0.064   6.158 -0.3009 -0.3079 -1.1024
  144OSM    C1115790   3.374   0.021   6.311  0.0140  0.7682 -0.1714
  144OSM   H11A15791   3.335  -0.083   6.309  0.4336  0.6451 -1.8265
  144OSM   H11B15792   3.338   0.063   6.408 -0.0173  3.7660 -1.4321
  144OSM      P15793   3.597  -0.094   6.239 -0.5523 -0.1338 -0.2778
  144OSM    O1315794   3.527  -0.226   6.247  0.0088 -0.2449 -0.5001
  144OSM    O1415795   3.627  -0.055   6.103 -0.2036 -0.2604 -0.4689
  144OSM    O1115796   3.726  -0.095   6.326 -0.2210 -0.4111 -0.2727
  144OSM    O1215797   3.517   0.026   6.311 -0.2586  0.1153  0.5598
  144OSM    C1S15798   3.710  -0.087   6.469 -0.0062 -0.3632  0.1109
  144OSM    H1S15799   3.626  -0.019   6.493 -0.0780 -0.2898 -0.3307
  144OSM    H1T15800   3.798  -0.038   6.514  0.1207 -2.0347  1.7562
  144OSM     NF15801   3.706  -0.213   6.676  0.2186  0.0509  0.0169
  144OSM    HNF15802   3.791  -0.228   6.726  1.5165 -1.0482 -2.4536
  144OSM    C2S15803   3.700  -0.226   6.536  0.0903 -0.3107 -0.0364
  144OSM    H2S15804   3.602  -0.271   6.511  0.4861 -0.2769 -1.7183
  144OSM    C3S15805   3.810  -0.322   6.479 -0.3828  0.0232 -0.3094
  144OSM    H3S15806   3.913  -0.295   6.513 -1.6430  2.6971  1.6086
  144OSM     O315807   3.818  -0.340   6.334 -0.4576 -0.8032  0.4148
  144OSM    HO315808   3.740  -0.289   6.312 -0.1990 -0.5690  0.0356
  144OSM    C4S15809   3.782  -0.465   6.536  0.4451  0.2812  0.2260
  144OSM    H4S15810   3.690  -0.513   6.501  1.6104 -0.2054 -2.2666
  144OSM    C5S15811   3.855  -0.524   6.636  0.8418  0.7427  0.0871
  144OSM    H5S15812   3.928  -0.466   6.695  1.6617 -0.0285 -0.1439
  144OSM    C6S15813   3.825  -0.660   6.691  0.0322  0.6836 -0.4625
  144OSM    H6S15814   3.912  -0.728   6.691 -1.4374 -1.2353  0.1467
  144OSM    H6T15815   3.745  -0.708   6.630  0.1604 -1.4681  1.0279
  144OSM    C7S15816   3.774  -0.651   6.841 -0.5723  0.0381 -0.3445
  144OSM    H7S15817   3.663  -0.649   6.830 -0.6376 -0.6990  0.0872
  144OSM    H7T15818   3.795  -0.551   6.883  0.4703  0.2049 -1.2557
  144OSM    C8S15819   3.810  -0.769   6.942 -0.0982  0.3186  0.3334
  144OSM    H8S15820   3.912  -0.797   6.908 -0.1383  0.4696  0.0891
  144OSM    H8T15821   3.745  -0.852   6.906  1.4738 -0.6102 -0.4300
  144OSM    C9S15822   3.786  -0.727   7.087 -0.1793  0.7648 -0.2024
  144OSM    H9S15823   3.676  -0.719   7.099  0.0746  2.6007  1.2158
  144OSM    H9T15824   3.842  -0.634   7.113  0.1287  0.7562 -0.8324
  144OSM   C10S15825   3.839  -0.837   7.181  0.3668 -0.0776  0.0366
  144OSM   H10S15826   3.947  -0.859   7.164  0.4849 -0.0058  0.6756
  144OSM   H10T15827   3.780  -0.924   7.147 -0.4126 -0.1358  1.5120
  144OSM   C11S15828   3.816  -0.818   7.329 -0.2141  0.5257 -0.1528
  144OSM   H11S15829   3.720  -0.778   7.368 -0.7514 -0.6098 -0.2770
  144OSM   H11T15830   3.894  -0.745   7.358 -1.7097  1.3106  1.9558
  144OSM   C12S15831   3.817  -0.956   7.398 -0.2193 -0.4014 -0.7613
  144OSM   H12S15832   3.890  -1.023   7.347  0.2447 -0.9411  0.5908
  144OSM   H12T15833   3.717  -1.001   7.381 -0.3851  0.3186 -1.7395
  144OSM   C13S15834   3.858  -0.957   7.543 -0.8233 -0.0373  0.1686
  144OSM   H13S15835   3.774  -0.913   7.600 -1.1187  0.3872 -0.5904
  144OSM   H13T15836   3.956  -0.908   7.561 -0.0807 -1.4333  0.0110
  144OSM   C14S15837   3.850  -1.100   7.609  0.1837  0.3202 -0.0239
  144OSM   H14S15838   3.943  -1.150   7.574  1.9084  1.6148  2.5761
  144OSM   H14T15839   3.759  -1.157   7.581  0.6922  0.6806 -2.5420
  144OSM   C15S15840   3.853  -1.096   7.765  0.3784 -0.1727  0.3842
  144OSM   H15S15841   3.752  -1.057   7.793 -1.2955 -0.6657 -4.4522
  144OSM   H15T15842   3.919  -1.018   7.808 -0.8637  1.2436 -0.2307
  144OSM   C16S15843   3.874  -1.233   7.836  0.0445  0.2908 -0.5762
  144OSM   H16S15844   3.981  -1.250   7.859 -0.4320  1.5616  2.8689
  144OSM   H16T15845   3.835  -1.315   7.772 -1.7932 -0.8152  1.8480
  144OSM   C17S15846   3.802  -1.240   7.973 -0.0768 -0.6740 -0.0819
  144OSM   H17S15847   3.787  -1.343   8.011 -1.3480 -1.0728 -1.5912
  144OSM   H17T15848   3.699  -1.197   7.966  0.3281  0.0037 -2.1888
  144OSM   C18S15849   3.876  -1.174   8.086  0.2873 -0.5015  0.2209
  144OSM   H18S15850   3.910  -1.074   8.051  0.7221  0.1000  2.2925
  144OSM   H18T15851   3.966  -1.235   8.105  1.6667  1.6092  0.6360
  144OSM   H18U15852   3.816  -1.147   8.175  0.2535  0.6965 -0.1572
  144OSM    C1F15853   3.607  -0.160   6.749 -0.3394  0.3878  0.1497
  144OSM     OF15854   3.503  -0.130   6.688 -0.1031  0.3035  0.0350
  144OSM    C2F15855   3.638  -0.128   6.895 -0.0229 -0.0803  0.9499
  144OSM    H2F15856   3.736  -0.077   6.904  1.1869 -2.4875  1.8624
  144OSM    H2G15857   3.642  -0.224   6.952  1.2271 -0.9896 -0.6398
  144OSM    C3F15858   3.525  -0.046   6.972 -0.8388 -0.4540 -0.0838
  144OSM    H3F15859   3.428  -0.087   6.938 -1.2737  0.2540  0.2994
  144OSM    H3G15860   3.534   0.059   6.938  2.2176  0.4561  3.2201
  144OSM    C4F15861   3.537  -0.067   7.124  0.1579 -0.1983  0.7589
  144OSM    H4F15862   3.642  -0.044   7.154  0.5996 -0.2697 -0.7160
  144OSM    H4G15863   3.521  -0.176   7.143 -0.5537 -0.4960 -1.4922
  144OSM    C5F15864   3.447   0.027   7.211  0.2269  0.2126  0.1318
  144OSM    H5F15865   3.344   0.012   7.173 -1.7943  1.6898  4.6894
  144OSM    H5G15866   3.471   0.135   7.200 -0.8610  0.3139 -1.5639
  144OSM    C6F15867   3.449  -0.010   7.360  0.4813 -0.1210 -0.4252
  144OSM    H6F15868   3.393  -0.105   7.372 -0.5222  0.5657  0.4204
  144OSM    H6G15869   3.405   0.074   7.419 -0.3680 -1.2219  0.5195
  144OSM    C7F15870   3.590  -0.031   7.410 -0.0756  0.0187 -0.1764
  144OSM    H7F15871   3.647   0.062   7.388 -1.6410  1.4142  1.5197
  144OSM    H7G15872   3.656  -0.112   7.372  2.8343  2.2017  0.0408
  144OSM    C8F15873   3.580  -0.060   7.562  0.5860 -0.5708 -0.0913
  144OSM    H8F15874   3.663  -0.116   7.611  0.2298 -0.9894  0.0368
  144OSM    H8G15875   3.490  -0.125   7.575  0.6616 -0.2122  2.6315
  144OSM    C9F15876   3.564   0.065   7.640  0.0029  0.1835 -0.1832
  144OSM    H9F15877   3.658   0.121   7.643  0.9245 -1.3232 -0.8207
  144OSM   C10F15878   3.464   0.105   7.727 -1.2182  0.5745 -0.7137
  144OSM   H10F15879   3.464   0.210   7.761 -0.4370  0.3904 -0.1289
  144OSM   C11F15880   3.354   0.015   7.772 -0.2958  0.4004  0.1617
  144OSM   H11F15881   3.383  -0.092   7.784 -1.4233 -0.2890 -2.7600
  144OSM   H11G15882   3.280   0.001   7.690  0.6961  0.5382 -0.7648
  144OSM   C12F15883   3.293   0.069   7.895  0.1684  0.4548  0.1520
  144OSM   H12F15884   3.187   0.037   7.902  0.7572 -1.8208 -0.7709
  144OSM   H12G15885   3.270   0.177   7.903 -1.7986  0.2470 -2.3327
  144OSM   C13F15886   3.367   0.018   8.022  0.0887  0.1817 -0.5517
  144OSM   H13F15887   3.473  -0.007   8.002  0.4023 -0.2011  1.4810
  144OSM   H13G15888   3.314  -0.076   8.048 -0.5545 -0.1867 -3.0391
  144OSM   C14F15889   3.358   0.115   8.135  0.3960 -0.5939  0.2344
  144OSM   H14F15890   3.395   0.068   8.229 -1.5418  1.8836  2.3424
  144OSM   H14G15891   3.252   0.146   8.148  0.3000 -1.5327  1.9101
  144OSM   C15F15892   3.456   0.235   8.112  0.0049 -0.2339  0.9089
  144OSM   H15F15893   3.412   0.316   8.176  1.4618 -1.8187  4.0481
  144OSM   H15G15894   3.449   0.277   8.010  3.1075 -0.9013  0.3955
  144OSM   C16F15895   3.599   0.206   8.156  0.1727 -0.0163 -0.8849
  144OSM   H16F15896   3.633   0.131   8.082  3.1416 -1.4049  1.8183
  144OSM   H16G15897   3.586   0.166   8.259  0.7813 -1.0147 -1.1920
  144OSM   C17F15898   3.680   0.333   8.161 -0.3743 -0.3740 -0.0373
  144OSM   H17F15899   3.628   0.415   8.214  0.4035 -0.5447  1.0164
  144OSM   H17G15900   3.698   0.347   8.052  1.5093  0.5470  0.3721
  144OSM   C18F15901   3.815   0.313   8.231  0.6697 -0.3490 -0.3587
  144OSM   H18F15902   3.868   0.411   8.226  2.7551 -1.4314 -0.0164
  144OSM   H18G15903   3.876   0.239   8.175 -0.5094 -2.3900  0.9877
  144OSM   H18H15904   3.800   0.285   8.337  1.4498  0.1567 -0.1076
  145SAPE     N15905   1.420   1.298  11.160  0.1622  0.3389 -0.3073
  145SAPE   HN115906   1.390   1.366  11.087  3.7582  3.2678  0.7628
  145SAPE   HN215907   1.339   1.268  11.217  0.7567 -0.4486  0.1436
  145SAPE   HN315908   1.498   1.334  11.220  0.1827 -0.8030  0.3519
  145SAPE   C1215909   1.470   1.181  11.072 -0.5330 -0.2562 -0.6520
  145SAPE  H12A15910   1.471   1.094  11.141  0.9863 -0.4486 -0.9046
  145SAPE  H12B15911   1.570   1.220  11.045 -0.2579  2.5792  3.8220
  145SAPE   C1115912   1.378   1.163  10.956  0.0789 -0.5365 -0.6313
  145SAPE  H11A15913   1.275   1.147  10.995  0.1854 -0.9212 -0.5096
  145SAPE  H11B15914   1.406   1.064  10.916 -2.2009 -1.4514 -0.0558
  145SAPE     P15915   1.389   1.247  10.708 -0.0781  0.2051  0.1212
  145SAPE   O1315916   1.347   1.373  10.647 -0.4545 -0.4226  0.4194
  145SAPE   O1415917   1.519   1.203  10.652  0.6824  0.7123 -0.4920
  145SAPE   O1215918   1.395   1.269  10.861  0.3893 -0.1818 -0.0825
  145SAPE   O1115919   1.280   1.143  10.693 -0.3986 -0.4681  0.3992
  145SAPE    C115920   1.145   1.179  10.685 -0.6565  0.1087 -0.3140
  145SAPE    HA15921   1.081   1.115  10.750 -0.5238  1.5735  1.2819
  145SAPE    HB15922   1.119   1.280  10.720 -0.5404 -0.6574  2.0686
  145SAPE    C215923   1.082   1.167  10.537 -0.1278 -0.1866  0.2994
  145SAPE    HS15924   1.074   1.062  10.503 -1.6657 -0.4524  1.4911
  145SAPE   O2115925   1.158   1.249  10.447 -0.1355 -0.1595  0.6690
  145SAPE   C2115926   1.258   1.189  10.386 -0.1570 -0.4295 -0.3861
  145SAPE   O2215927   1.286   1.070  10.391 -0.4300 -0.6610  0.2986
  145SAPE   C2215928   1.339   1.295  10.303 -0.2283 -0.4238  0.5778
  145SAPE   H2R15929   1.261   1.359  10.256 -1.2293 -2.4728 -0.6298
  145SAPE   H2S15930   1.402   1.353  10.373  3.7115  0.4875 -3.4785
  145SAPE    C315931   0.937   1.221  10.539  0.2351 -0.0114 -0.4391
  145SAPE    HX15932   0.946   1.332  10.548  1.9011 -0.1590 -0.0460
  145SAPE    HY15933   0.876   1.178  10.622  2.0009 -0.4553  0.6627
  145SAPE   O3115934   0.877   1.190  10.409  0.3010  1.0371 -0.0304
  145SAPE   C3115935   0.759   1.238  10.384 -0.6462  0.7262 -0.3147
  145SAPE   O3215936   0.708   1.326  10.449 -0.8484  0.1701 -0.3473
  145SAPE   C3215937   0.694   1.173  10.257  0.1083  0.2734 -0.4243
  145SAPE   H2X15938   0.594   1.144  10.296  0.4612  0.2875  0.4951
  145SAPE   H2Y15939   0.748   1.080  10.230 -1.0826 -0.3907 -0.5823
  145SAPE   C2315940   1.430   1.221  10.204 -0.5416 -0.6402 -0.1536
  145SAPE   H3R15941   1.376   1.166  10.123 -1.0169  2.4969 -2.0455
  145SAPE   H3S15942   1.485   1.138  10.253 -1.4175 -1.3732 -0.3890
  145SAPE   C2415943   1.541   1.312  10.134  0.2790  0.3257  0.0751
  145SAPE   H4R15944   1.611   1.349  10.212  1.2909  1.1129 -1.1767
  145SAPE   H4S15945   1.484   1.405  10.111  0.1378  0.1128 -0.4490
  145SAPE   C2515946   1.602   1.247  10.014  0.4379 -0.4157  0.1892
  145SAPE   H5R15947   1.674   1.164  10.031  0.5083 -0.2523  0.7056
  145SAPE   C2615948   1.579   1.284   9.884 -0.0411  0.1466  0.4692
  145SAPE   H6R15949   1.629   1.229   9.802  2.1140 -1.3836  2.7133
  145SAPE   C2715950   1.494   1.410   9.840  0.4387  0.1729 -0.4565
  145SAPE   H7R15951   1.539   1.440   9.743  1.0175 -1.9190 -0.8502
  145SAPE   H7S15952   1.523   1.495   9.905  2.3313 -1.3648  0.7510
  145SAPE   C2815953   1.346   1.400   9.825  0.6734 -0.1441  0.1500
  145SAPE   H8R15954   1.289   1.466   9.893 -1.6361 -0.1650 -1.7296
  145SAPE   C2915955   1.286   1.346   9.718  0.1179 -0.2126 -0.8586
  145SAPE   H9R15956   1.176   1.340   9.725  0.1820 -2.1914 -1.2475
  145SAPE  C21015957   1.342   1.271   9.594 -0.1134  0.0383  0.5974
  145SAPE  H10R15958   1.405   1.188   9.632  1.1535  0.7577  0.1001
  145SAPE  H10S15959   1.415   1.338   9.543 -0.6675 -1.2660 -1.9967
  145SAPE  C21115960   1.242   1.220   9.496  0.5008  1.0397 -0.0134
  145SAPE  H11R15961   1.148   1.192   9.546  0.0604  2.7655  0.1556
  145SAPE  C21215962   1.250   1.232   9.362 -0.5316  0.0092  0.7257
  145SAPE  H12R15963   1.180   1.175   9.299  1.0477 -0.3667 -0.7391
  145SAPE  C21315964   1.372   1.294   9.285  0.6268 -0.2339  0.2907
  145SAPE  H13R15965   1.464   1.231   9.284  2.2018  1.9914  0.4372
  145SAPE  H13S15966   1.402   1.386   9.340  1.8760 -0.5021  0.0707
  145SAPE  C21415967   1.343   1.328   9.133 -0.4796 -0.0823 -0.4726
  145SAPE  H14R15968   1.370   1.243   9.068  1.4914 -2.4855  3.3025
  145SAPE  C21515969   1.291   1.439   9.077  0.4826  0.6153  0.5767
  145SAPE  H15R15970   1.282   1.440   8.967 -1.4678 -0.1927  0.6993
  145SAPE  C21615971   1.238   1.554   9.158 -0.3050 -0.9475 -0.5138
  145SAPE  H16R15972   1.316   1.633   9.152 -1.8983  0.5618 -1.7297
  145SAPE  H16S15973   1.228   1.531   9.266  2.3346  1.8448  0.4122
  145SAPE  C21715974   1.112   1.612   9.108 -0.4158  0.8009  0.6551
  145SAPE  H17R15975   1.088   1.702   9.169  0.8020  1.0864  0.7272
  145SAPE  H17S15976   1.031   1.536   9.115  0.9654 -0.8620 -1.1526
  145SAPE  C21815977   1.106   1.657   8.961 -0.2964 -0.3072 -0.9401
  145SAPE  H18R15978   1.151   1.582   8.893 -1.6598 -1.1676 -0.9168
  145SAPE  H18S15979   1.169   1.748   8.952  0.6191 -0.8013  0.2828
  145SAPE  C21915980   0.952   1.685   8.922  0.2624  0.0157 -0.4182
  145SAPE  H19R15981   0.894   1.590   8.917  2.3911 -1.3546  0.0055
  145SAPE  H19S15982   0.963   1.724   8.818 -0.1330  2.7383  0.5260
  145SAPE  C22015983   0.878   1.792   9.007  0.1507  0.2868  0.7227
  145SAPE  H20R15984   0.931   1.888   8.992  2.5119 -0.7277  2.2376
  145SAPE  H20S15985   0.863   1.762   9.112  0.8304 -1.5684  0.3150
  145SAPE  H20T15986   0.776   1.802   8.964  0.4290 -2.1155 -0.6322
  145SAPE   C3315987   0.668   1.264  10.145 -0.0181 -0.1957  0.5296
  145SAPE   H3X15988   0.648   1.366  10.184 -3.0974  0.3290 -2.2390
  145SAPE   H3Y15989   0.581   1.242  10.079  0.5134 -0.1565 -0.1804
  145SAPE   C3415990   0.771   1.261  10.031  0.0793 -0.2671 -0.1974
  145SAPE   H4X15991   0.792   1.152  10.026 -0.4760 -0.3928  0.1667
  145SAPE   H4Y15992   0.867   1.317  10.038 -0.0986 -0.1296  1.4036
  145SAPE   C3515993   0.702   1.316   9.902  0.1279 -0.2012 -0.0731
  145SAPE   H5X15994   0.689   1.426   9.912  2.1324  0.0646 -0.2812
  145SAPE   H5Y15995   0.599   1.279   9.881 -0.2428  1.5887 -1.5660
  145SAPE   C3615996   0.804   1.279   9.790 -0.1200  0.3460  0.2510
  145SAPE   H6X15997   0.823   1.170   9.802  0.3985  0.1168 -2.3380
  145SAPE   H6Y15998   0.900   1.329   9.813 -0.5429 -0.1971  3.4668
  145SAPE   C3715999   0.751   1.320   9.654  0.1136 -0.0381 -0.3429
  145SAPE   H7X16000   0.762   1.430   9.643  2.4534  0.0904  2.5744
  145SAPE   H7Y16001   0.642   1.301   9.652  0.0060  0.6290 -0.6988
  145SAPE   C3816002   0.819   1.251   9.532 -0.6718 -0.3487 -0.4237
  145SAPE   H8X16003   0.800   1.142   9.534  0.0946 -0.4698  0.0583
  145SAPE   H8Y16004   0.925   1.283   9.536 -0.8649  0.2712 -0.2223
  145SAPE   C3916005   0.756   1.303   9.401 -0.1739 -0.3124  0.1033
  145SAPE   H9X16006   0.783   1.411   9.400 -0.5529 -0.1908  2.0794
  145SAPE   H9Y16007   0.645   1.303   9.403 -0.2345 -0.6278 -1.9033
  145SAPE  C31016008   0.797   1.226   9.279  0.1801  0.1188 -0.2003
  145SAPE  H10X16009   0.744   1.131   9.258 -0.9332  0.6140  0.3388
  145SAPE  H10Y16010   0.905   1.202   9.292 -0.0442 -0.5968  0.3860
  145SAPE  C31116011   0.798   1.304   9.141  0.1580  0.2153 -0.1827
  145SAPE  H11X16012   0.841   1.246   9.057 -2.2893  0.0832 -1.4100
  145SAPE  H11Y16013   0.865   1.390   9.160  0.6087 -0.3283  0.6833
  145SAPE  C31216014   0.661   1.360   9.103  0.1284 -0.9028 -0.5206
  145SAPE  H12X16015   0.640   1.460   9.146  0.5496 -1.2695  0.5609
  145SAPE  H12Y16016   0.586   1.299   9.157 -0.3856  2.9219  3.3708
  145SAPE  C31316017   0.627   1.355   8.957 -0.8658 -0.5856  0.0947
  145SAPE  H13X16018   0.653   1.260   8.906 -3.4466 -0.9660 -0.5781
  145SAPE  H13Y16019   0.684   1.437   8.910 -0.5290 -1.0764 -0.3580
  145SAPE  C31416020   0.488   1.391   8.935  0.1980  0.1154  0.1946
  145SAPE  H14X16021   0.476   1.445   8.839  0.4314 -1.0794 -0.5242
  145SAPE  H14Y16022   0.455   1.453   9.021 -3.1546 -0.3691 -0.6383
  145SAPE  C31516023   0.404   1.267   8.918 -0.5438  0.5747  0.1022
  145SAPE  H15X16024   0.296   1.292   8.925 -1.0572 -1.4911 -0.1347
  145SAPE  H15Y16025   0.442   1.189   8.988  1.3896  3.6222  2.5515
  145SAPE  C31616026   0.430   1.200   8.780 -0.1478  0.0872 -0.5616
  145SAPE  H16X16027   0.540   1.199   8.764 -0.1040 -0.8544 -0.2084
  145SAPE  H16Y16028   0.368   1.251   8.703 -1.5303 -1.7865 -0.7253
  145SAPE  C31716029   0.385   1.057   8.763  0.0726 -0.1265  0.0153
  145SAPE  H17X16030   0.277   1.054   8.739 -0.3125 -1.3003  1.8515
  145SAPE  H17Y16031   0.398   1.003   8.859 -0.4864  0.9780  0.7180
  145SAPE  C31816032   0.476   0.986   8.658 -0.6905 -0.2644 -0.1837
  145SAPE  H18X16033   0.490   1.058   8.574  1.5264  1.5303  1.6528
  145SAPE  H18Y16034   0.451   0.882   8.627 -1.0267 -0.5687  1.0677
  145SAPE  H18Z16035   0.579   0.974   8.697 -0.6045 -1.2048 -0.6790
  146SAPE     N16036   0.865   2.204  10.662 -0.5214 -0.5315  0.0599
  146SAPE   HN116037   0.957   2.242  10.690 -0.2790  0.5490 -2.0732
  146SAPE   HN216038   0.862   2.102  10.683  0.5430 -0.6414 -0.2972
  146SAPE   HN316039   0.856   2.220  10.559  1.3948  1.2603  0.1339
  146SAPE   C1216040   0.755   2.280  10.728 -0.3663 -0.4594 -0.0726
  146SAPE  H12A16041   0.657   2.256  10.681  0.0723 -1.2254 -0.6234
  146SAPE  H12B16042   0.777   2.384  10.697 -0.4137  0.2447  2.1998
  146SAPE   C1116043   0.752   2.262  10.880 -0.1218  0.3811  0.0194
  146SAPE  H11A16044   0.663   2.323  10.906 -2.8029 -3.3115 -0.1404
  146SAPE  H11B16045   0.849   2.298  10.920 -0.0989 -0.2170  0.5121
  146SAPE     P16046   0.591   2.049  10.909  0.1238 -0.3593 -0.1136
  146SAPE   O1316047   0.611   1.906  10.946  0.0231  0.1986  0.3941
  146SAPE   O1416048   0.491   2.123  10.989 -0.3192  0.3137  0.0324
  146SAPE   O1216049   0.735   2.125  10.914  0.0240  0.1590  0.1065
  146SAPE   O1116050   0.559   2.062  10.751  0.5391 -0.2110 -0.6080
  146SAPE    C116051   0.464   1.969  10.701  0.5649 -0.3941 -0.6385
  146SAPE    HA16052   0.514   1.870  10.711 -0.3935 -0.7138  1.3787
  146SAPE    HB16053   0.367   1.971  10.755  0.7927  0.0190 -0.2428
  146SAPE    C216054   0.451   1.978  10.545  0.4419  0.1583  0.6637
  146SAPE    HS16055   0.373   1.907  10.514  1.7037 -0.5779 -0.8777
  146SAPE   O2116056   0.579   1.940  10.487 -0.9285 -0.4158 -0.5250
  146SAPE   C2116057   0.614   1.814  10.480 -0.3043  0.0634 -0.1440
  146SAPE   O2216058   0.554   1.719  10.531  0.3651 -0.2202 -0.0956
  146SAPE   C2216059   0.727   1.791  10.386 -0.2667 -0.5002  0.7307
  146SAPE   H2R16060   0.711   1.833  10.284  2.0360  0.7382  0.8316
  146SAPE   H2S16061   0.813   1.846  10.430  2.2132 -1.1868 -2.9713
  146SAPE    C316062   0.423   2.124  10.501 -0.5878 -0.0527  0.8952
  146SAPE    HX16063   0.511   2.178  10.544  0.2042  1.3684 -2.3291
  146SAPE    HY16064   0.330   2.165  10.545 -0.8587  2.3080 -1.7074
  146SAPE   O3116065   0.405   2.139  10.358  0.1147  0.1179  0.0526
  146SAPE   C3116066   0.511   2.154  10.279  0.2680 -0.1017  0.3864
  146SAPE   O3216067   0.623   2.186  10.318 -0.0254  0.1654  0.4454
  146SAPE   C3216068   0.466   2.134  10.132 -0.3044  0.8451 -0.3509
  146SAPE   H2X16069   0.424   2.231  10.097 -0.0813  1.0459 -0.0728
  146SAPE   H2Y16070   0.390   2.053  10.137  0.1439  0.3837 -1.1084
  146SAPE   C2316071   0.763   1.645  10.353 -0.1541 -0.0309  0.1692
  146SAPE   H3R16072   0.667   1.589  10.351  0.6998 -1.5043 -0.5198
  146SAPE   H3S16073   0.815   1.615  10.447  0.2041  0.7352  0.2217
  146SAPE   C2416074   0.860   1.614  10.235 -1.2029 -0.1144 -0.5670
  146SAPE   H4R16075   0.910   1.516  10.250 -0.7219  0.3665  1.0527
  146SAPE   H4S16076   0.944   1.687  10.231 -0.8523 -0.5506 -1.3055
  146SAPE   C2516077   0.776   1.618  10.112  0.6922 -0.2383  0.9234
  146SAPE   H5R16078   0.683   1.562  10.132 -0.9375  1.4093 -1.7736
  146SAPE   C2616079   0.793   1.674   9.988  0.7043 -0.7669 -0.6994
  146SAPE   H6R16080   0.716   1.656   9.912 -2.9424 -0.0326  2.6295
  146SAPE   C2716081   0.914   1.748   9.938  0.1690  0.6001 -0.8544
  146SAPE   H7R16082   0.969   1.810  10.013  0.0219  0.5825 -0.7310
  146SAPE   H7S16083   0.880   1.824   9.865  0.9911  0.4939 -1.3500
  146SAPE   C2816084   1.016   1.655   9.873  0.8026  0.2368  0.3431
  146SAPE   H8R16085   1.074   1.594   9.944  0.7152 -0.9967 -0.6322
  146SAPE   C2916086   1.029   1.636   9.737  0.5184 -0.0202  0.4446
  146SAPE   H9R16087   1.100   1.560   9.700 -0.6746 -0.4195 -1.0854
  146SAPE  C21016088   0.939   1.694   9.631  0.2697 -0.0182 -0.1527
  146SAPE  H10R16089   0.965   1.802   9.639  1.5107 -0.3682  0.7788
  146SAPE  H10S16090   0.834   1.690   9.668 -0.0895 -0.4672 -1.2197
  146SAPE  C21116091   0.957   1.642   9.496 -0.4447 -0.3383 -0.2799
  146SAPE  H11R16092   1.037   1.567   9.480  0.7233 -0.3561  4.7347
  146SAPE  C21216093   0.873   1.669   9.391 -0.1381  0.5301 -0.2659
  146SAPE  H12R16094   0.895   1.611   9.300 -1.9035  0.6527 -0.7728
  146SAPE  C21316095   0.756   1.764   9.388  0.0221 -0.1324  0.7074
  146SAPE  H13R16096   0.784   1.840   9.312 -2.7972 -1.0060 -1.2757
  146SAPE  H13S16097   0.743   1.829   9.478  0.2082  1.3805 -0.3410
  146SAPE  C21416098   0.624   1.693   9.351  0.0532  0.0798 -0.1291
  146SAPE  H14R16099   0.618   1.589   9.386 -2.6128 -0.4035 -1.8678
  146SAPE  C21516100   0.530   1.742   9.270 -0.3218  0.9302  0.0192
  146SAPE  H15R16101   0.436   1.688   9.255  0.4158 -0.2610 -0.3821
  146SAPE  C21616102   0.530   1.874   9.196  0.5051  0.2312  0.2034
  146SAPE  H16R16103   0.622   1.880   9.134  0.0905 -0.2696 -0.4643
  146SAPE  H16S16104   0.546   1.955   9.270  1.4620  1.4679 -1.3503
  146SAPE  C21716105   0.411   1.923   9.120 -0.4924 -0.0216  0.0587
  146SAPE  H17R16106   0.442   2.024   9.085 -2.4152  1.3305  2.1066
  146SAPE  H17S16107   0.324   1.944   9.185 -0.4567  0.8441 -0.1705
  146SAPE  C21816108   0.389   1.834   8.992  0.1229  0.1634 -0.4730
  146SAPE  H18R16109   0.377   1.728   9.024  0.1651  0.7198  1.4227
  146SAPE  H18S16110   0.480   1.838   8.929  1.0510  1.7336  0.9177
  146SAPE  C21916111   0.266   1.863   8.902  0.3171 -0.5120 -0.5825
  146SAPE  H19R16112   0.242   1.971   8.899  0.4189 -0.5274 -2.0740
  146SAPE  H19S16113   0.176   1.823   8.954  1.4190 -0.5988  1.2992
  146SAPE  C22016114   0.276   1.818   8.755  0.5260 -0.1739  0.2491
  146SAPE  H20R16115   0.192   1.858   8.695 -0.4806 -2.7424 -0.1222
  146SAPE  H20S16116   0.283   1.707   8.748 -0.2351 -0.1744 -0.6820
  146SAPE  H20T16117   0.371   1.844   8.705 -0.2717 -0.0225 -1.2098
  146SAPE   C3316118   0.591   2.101  10.046  0.2494  0.5370 -0.2055
  146SAPE   H3X16119   0.636   2.007  10.084 -1.1850  0.8726  2.4646
  146SAPE   H3Y16120   0.670   2.179  10.042  1.3099 -0.0922  5.0912
  146SAPE   C3416121   0.539   2.082   9.900  0.4722 -0.6711 -0.6060
  146SAPE   H4X16122   0.625   2.099   9.831 -0.7281  0.2099 -1.9072
  146SAPE   H4Y16123   0.462   2.157   9.872 -1.3862 -0.4466  4.4680
  146SAPE   C3516124   0.477   1.942   9.864  0.3498  0.3914 -0.1772
  146SAPE   H5X16125   0.385   1.931   9.926  0.6672 -4.7119 -0.4312
  146SAPE   H5Y16126   0.551   1.864   9.891 -1.3019 -1.7181 -1.5940
  146SAPE   C3616127   0.465   1.938   9.711 -0.4734  0.5549  0.4778
  146SAPE   H6X16128   0.565   1.962   9.669 -0.8576 -1.2971 -1.5743
  146SAPE   H6Y16129   0.402   2.020   9.671  3.0163  4.0367  1.7376
  146SAPE   C3716130   0.431   1.795   9.660 -0.1836 -0.6753  0.3145
  146SAPE   H7X16131   0.500   1.719   9.701  0.4395  1.4947  3.5040
  146SAPE   H7Y16132   0.436   1.798   9.549 -2.4221  1.7059  0.2290
  146SAPE   C3816133   0.284   1.754   9.690  0.1779  0.7375 -0.7796
  146SAPE   H8X16134   0.214   1.833   9.654  1.1893  1.4374 -1.2383
  146SAPE   H8Y16135   0.264   1.755   9.799  1.6294  2.3140 -0.4970
  146SAPE   C3916136   0.250   1.614   9.629 -0.1590  0.0290 -0.2977
  146SAPE   H9X16137   0.167   1.562   9.682  0.8530 -0.5733  0.7403
  146SAPE   H9Y16138   0.325   1.536   9.654 -1.7437 -1.1881  0.7873
  146SAPE  C31016139   0.232   1.618   9.476 -0.0600 -0.4441 -0.4190
  146SAPE  H10X16140   0.330   1.607   9.425  1.4498  0.5581  2.1943
  146SAPE  H10Y16141   0.188   1.719   9.457 -0.3807 -0.6967 -1.0495
  146SAPE  C31116142   0.118   1.517   9.427  1.0809  0.0411  0.1526
  146SAPE  H11X16143   0.034   1.521   9.499  0.6873  0.1103 -0.3061
  146SAPE  H11Y16144   0.158   1.414   9.440 -0.5218 -0.5210  0.6702
  146SAPE  C31216145   0.066   1.568   9.292  0.1187 -0.6868 -0.3778
  146SAPE  H12X16146   0.154   1.582   9.226  0.1059  1.5652  0.0587
  146SAPE  H12Y16147   0.019   1.668   9.305 -1.1945 -1.1603 -1.3675
  146SAPE  C31316148  -0.037   1.474   9.226  0.3312 -0.0817 -0.1295
  146SAPE  H13X16149  -0.068   1.533   9.137  1.0434  0.2132 -0.1856
  146SAPE  H13Y16150  -0.128   1.476   9.290  0.4975 -0.0290  0.1095
  146SAPE  C31416151   0.001   1.329   9.204  0.0818  0.4140 -0.7334
  146SAPE  H14X16152   0.036   1.290   9.302 -0.0068  0.4042 -0.7058
  146SAPE  H14Y16153   0.089   1.329   9.137  1.0345  1.0994  0.4906
  146SAPE  C31516154  -0.102   1.233   9.140  0.2410 -0.4317  0.2766
  146SAPE  H15X16155  -0.139   1.280   9.046  2.3634  0.8581  0.0565
  146SAPE  H15Y16156  -0.186   1.229   9.213 -1.6859  4.9369 -1.3824
  146SAPE  C31616157  -0.035   1.096   9.120 -0.3711  0.0108  0.2150
  146SAPE  H16X16158  -0.125   1.031   9.108 -0.2557 -0.8020  3.3710
  146SAPE  H16Y16159   0.013   1.064   9.215 -0.9441 -0.1055  0.4696
  146SAPE  C31716160   0.073   1.083   9.008  0.4639  0.1747 -0.2870
  146SAPE  H17X16161   0.100   0.975   9.019 -2.0137 -0.3596  0.8192
  146SAPE  H17Y16162   0.163   1.146   9.027  2.0840 -2.3655  0.8884
  146SAPE  C31816163   0.024   1.110   8.867 -0.0447  0.1138 -0.0238
  146SAPE  H18X16164  -0.037   1.026   8.829  0.0744  0.8211 -1.8604
  146SAPE  H18Y16165   0.112   1.116   8.799  1.8110  0.2710  2.3293
  146SAPE  H18Z16166  -0.038   1.200   8.852  0.7927  0.5434 -1.0043
  147SAPE     N16167   1.817   5.354  11.049  0.2089  0.2393 -0.0403
  147SAPE   HN116168   1.828   5.416  11.132 -2.5667 -0.0644  0.6122
  147SAPE   HN216169   1.759   5.271  11.073 -3.9473  2.2854 -2.3579
  147SAPE   HN316170   1.906   5.322  11.006  0.6234  0.8298  0.3737
  147SAPE   C1216171   1.716   5.420  10.966  1.0603  0.0703  0.2572
  147SAPE  H12A16172   1.749   5.521  10.932 -0.2971  0.6247  0.5718
  147SAPE  H12B16173   1.629   5.442  11.030  0.1285 -1.2668 -0.5246
  147SAPE   C1116174   1.666   5.336  10.847 -0.7468  0.3904  0.4182
  147SAPE  H11A16175   1.745   5.316  10.771  0.0379 -2.4500  1.8821
  147SAPE  H11B16176   1.582   5.379  10.788  1.8851  2.9125 -1.6396
  147SAPE     P16177   1.473   5.157  10.893  0.2924  0.2753 -0.3666
  147SAPE   O1316178   1.461   5.057  11.004 -0.5360  0.6158  0.3179
  147SAPE   O1416179   1.381   5.276  10.890 -0.1987 -0.4063 -0.1446
  147SAPE   O1216180   1.622   5.209  10.896  0.0456  0.0684 -0.7265
  147SAPE   O1116181   1.470   5.084  10.754  0.3662  0.5624  0.7277
  147SAPE    C116182   1.573   4.990  10.719  0.1660 -0.4408 -0.7811
  147SAPE    HA16183   1.666   5.039  10.682  0.0397  0.0767 -0.4100
  147SAPE    HB16184   1.593   4.930  10.810 -0.0936 -2.4634 -2.0236
  147SAPE    C216185   1.537   4.884  10.617 -0.6812  0.4619 -0.1767
  147SAPE    HS16186   1.613   4.807  10.640 -1.1047  0.0049 -0.2867
  147SAPE   O2116187   1.551   4.929  10.478  0.5068 -0.2249  0.4603
  147SAPE   C2116188   1.618   4.846  10.398 -0.2831 -0.3361 -0.6088
  147SAPE   O2216189   1.673   4.744  10.426 -0.6094  0.8093  0.0481
  147SAPE   C2216190   1.583   4.894  10.255 -0.9619 -0.1485 -0.6392
  147SAPE   H2R16191   1.506   4.974  10.264  1.2990  2.1548 -0.9557
  147SAPE   H2S16192   1.672   4.935  10.201 -0.6284 -2.4108 -1.8634
  147SAPE    C316193   1.395   4.818  10.634  0.5716  0.1183  0.2137
  147SAPE    HX16194   1.321   4.897  10.609 -0.4462 -0.6461  0.7460
  147SAPE    HY16195   1.393   4.798  10.744  2.6843 -0.1308  0.2370
  147SAPE   O3116196   1.387   4.700  10.554  0.5401  0.1078  0.4968
  147SAPE   C3116197   1.421   4.587  10.612 -0.1050  0.4547  0.6738
  147SAPE   O3216198   1.495   4.575  10.707  0.1770 -0.2681  0.1900
  147SAPE   C3216199   1.358   4.464  10.537 -0.7923 -0.1891  0.0963
  147SAPE   H2X16200   1.251   4.485  10.516 -0.3452  0.2988 -1.7393
  147SAPE   H2Y16201   1.370   4.374  10.602 -1.1302 -0.6742 -0.5119
  147SAPE   C2316202   1.531   4.782  10.153  0.6029  0.4632  0.0033
  147SAPE   H3R16203   1.466   4.707  10.202  1.5952  0.8254  1.9067
  147SAPE   H3S16204   1.606   4.713  10.109 -2.1643 -1.8973 -1.1260
  147SAPE   C2416205   1.440   4.836  10.037 -0.0931  0.0737 -0.0931
  147SAPE   H4R16206   1.344   4.879  10.071  1.0759  0.5908  2.7025
  147SAPE   H4S16207   1.411   4.744   9.982 -0.4876  0.3163 -0.2869
  147SAPE   C2516208   1.506   4.943   9.956 -0.1139  0.4168 -0.1063
  147SAPE   H5R16209   1.553   5.017  10.022  1.0323 -0.5209  0.1405
  147SAPE   C2616210   1.499   4.963   9.827 -0.0355 -0.7672 -0.0167
  147SAPE   H6R16211   1.539   5.049   9.771  1.2881 -1.0164  0.5348
  147SAPE   C2716212   1.433   4.869   9.742 -0.2867  0.7208 -0.1066
  147SAPE   H7R16213   1.390   4.932   9.661  3.1831  0.8382 -1.9661
  147SAPE   H7S16214   1.345   4.816   9.786 -1.6240  2.9366 -0.0465
  147SAPE   C2816215   1.535   4.774   9.681  0.6646  0.7848  0.0606
  147SAPE   H8R16216   1.630   4.757   9.734  0.5364 -2.8024 -0.7281
  147SAPE   C2916217   1.521   4.736   9.550  0.3799  0.1039 -0.0979
  147SAPE   H9R16218   1.602   4.671   9.513  1.0635  1.2252 -0.6184
  147SAPE  C21016219   1.404   4.771   9.462 -0.1150 -0.2618  0.1352
  147SAPE  H10R16220   1.403   4.881   9.447 -1.5139  0.2936  3.7221
  147SAPE  H10S16221   1.305   4.752   9.509 -1.3839 -1.7149 -2.9546
  147SAPE  C21116222   1.405   4.692   9.336  0.1172 -1.1667 -0.5868
  147SAPE  H11R16223   1.425   4.585   9.352  2.7514 -0.7807 -0.9974
  147SAPE  C21216224   1.379   4.744   9.211 -0.3448  0.3391  0.8342
  147SAPE  H12R16225   1.380   4.670   9.130  2.2637  0.1714  0.9836
  147SAPE  C21316226   1.350   4.889   9.176 -0.3437 -0.3216 -0.5540
  147SAPE  H13R16227   1.441   4.932   9.127  0.4358 -0.3614  0.8404
  147SAPE  H13S16228   1.333   4.957   9.262 -2.3550 -0.7838 -0.5598
  147SAPE  C21416229   1.238   4.888   9.081  0.3048  0.4958 -0.5267
  147SAPE  H14R16230   1.142   4.879   9.134  0.9923  1.3924  0.8856
  147SAPE  C21516231   1.245   4.898   8.942  0.7576  0.1437  0.5214
  147SAPE  H15R16232   1.153   4.890   8.882  0.9493  0.2055  0.2169
  147SAPE  C21616233   1.367   4.916   8.861  0.0539  1.1552  0.0608
  147SAPE  H16R16234   1.462   4.900   8.916 -0.1418 -1.0951 -0.1787
  147SAPE  H16S16235   1.370   5.021   8.827 -1.4877  0.9284 -0.8475
  147SAPE  C21716236   1.374   4.832   8.733 -0.2316  0.0345  0.3722
  147SAPE  H17R16237   1.284   4.870   8.680  0.3670 -0.0248 -0.7055
  147SAPE  H17S16238   1.355   4.725   8.756 -1.8972  0.4849  1.1422
  147SAPE  C21816239   1.486   4.865   8.640 -0.0276  0.3091  0.5493
  147SAPE  H18R16240   1.504   4.974   8.639  0.8548  0.1567 -1.0116
  147SAPE  H18S16241   1.462   4.838   8.535 -0.0103 -2.0868  1.1223
  147SAPE  C21916242   1.614   4.788   8.684 -0.3338  0.3550 -0.3378
  147SAPE  H19R16243   1.598   4.679   8.673 -3.3742  0.5179  1.8029
  147SAPE  H19S16244   1.640   4.806   8.791 -2.3836 -0.3360  0.2970
  147SAPE  C22016245   1.739   4.814   8.599  0.0638 -0.2118 -0.1176
  147SAPE  H20R16246   1.827   4.749   8.622  1.6565  2.6760  2.3248
  147SAPE  H20S16247   1.770   4.918   8.619 -3.6896  0.3740  3.2777
  147SAPE  H20T16248   1.713   4.792   8.494 -0.3754  0.4309 -0.1432
  147SAPE   C3316249   1.424   4.429  10.399  0.4541 -0.6074 -0.4341
  147SAPE   H3X16250   1.531   4.411  10.422  0.4577  0.3310  0.3372
  147SAPE   H3Y16251   1.425   4.514  10.327  2.6015 -0.8499 -0.7316
  147SAPE   C3416252   1.353   4.301  10.341 -0.9154  0.3124  0.1110
  147SAPE   H4X16253   1.256   4.330  10.296 -0.7361 -0.5349 -0.8432
  147SAPE   H4Y16254   1.345   4.228  10.424  1.1787  0.0508  0.1023
  147SAPE   C3516255   1.438   4.236  10.222 -0.3682 -0.9489  0.5093
  147SAPE   H5X16256   1.377   4.155  10.178  1.2391 -1.8978 -0.0203
  147SAPE   H5Y16257   1.541   4.206  10.252  0.7068 -0.3413 -2.4133
  147SAPE   C3616258   1.461   4.337  10.100  0.1371 -0.3776  0.4219
  147SAPE   H6X16259   1.536   4.415  10.125  0.9475 -0.9990 -0.0476
  147SAPE   H6Y16260   1.362   4.387  10.096 -0.3252 -1.3841 -1.7279
  147SAPE   C3716261   1.485   4.265   9.970 -0.3940 -0.0415 -0.1119
  147SAPE   H7X16262   1.400   4.195   9.960  1.1405 -2.0387  0.5307
  147SAPE   H7Y16263   1.576   4.201   9.975 -0.6917 -0.4684 -0.1365
  147SAPE   C3816264   1.504   4.354   9.846  0.3742 -0.1659  0.1336
  147SAPE   H8X16265   1.568   4.441   9.870 -1.1702  1.0727 -0.1667
  147SAPE   H8Y16266   1.408   4.408   9.832  2.0500  2.6008 -0.8987
  147SAPE   C3916267   1.544   4.271   9.731 -0.3353 -0.1481  0.1939
  147SAPE   H9X16268   1.466   4.192   9.722 -0.2106 -0.1295 -1.2497
  147SAPE   H9Y16269   1.638   4.215   9.750  1.0910  2.1855  0.1684
  147SAPE  C31016270   1.562   4.338   9.593 -0.7514 -0.6133  0.2199
  147SAPE  H10X16271   1.666   4.378   9.592 -0.6128 -0.9943 -1.3348
  147SAPE  H10Y16272   1.503   4.432   9.596 -1.5057 -1.1332  2.0468
  147SAPE  C31116273   1.512   4.258   9.477 -0.5192 -0.2001  0.1049
  147SAPE  H11X16274   1.401   4.254   9.471 -0.6818  0.0409  2.3931
  147SAPE  H11Y16275   1.550   4.154   9.488 -0.0803 -0.3466 -2.5257
  147SAPE  C31216276   1.570   4.299   9.337 -0.7365 -0.3619  0.4529
  147SAPE  H12X16277   1.646   4.232   9.292 -0.0078  2.3236 -2.4360
  147SAPE  H12Y16278   1.619   4.398   9.349 -0.5786 -0.4684  0.6947
  147SAPE  C31316279   1.452   4.327   9.229  0.0293 -0.1678  0.6629
  147SAPE  H13X16280   1.387   4.412   9.258 -1.8794 -1.2078 -0.4408
  147SAPE  H13Y16281   1.382   4.241   9.228 -2.1672  1.5748  0.0987
  147SAPE  C31416282   1.511   4.349   9.089 -0.6239  0.3066  0.4435
  147SAPE  H14X16283   1.572   4.260   9.063 -1.9994 -1.3071  2.5346
  147SAPE  H14Y16284   1.585   4.432   9.091  0.6621 -0.8457  1.3372
  147SAPE  C31516285   1.411   4.390   8.982 -0.2699  0.0205 -0.0768
  147SAPE  H15X16286   1.356   4.484   9.003  3.3742  1.7834  2.0913
  147SAPE  H15Y16287   1.330   4.314   8.983  0.5829 -0.9081  0.1982
  147SAPE  C31616288   1.478   4.403   8.845  0.1206 -0.1340 -0.6865
  147SAPE  H16X16289   1.530   4.307   8.826  1.3027  0.4933 -0.6509
  147SAPE  H16Y16290   1.559   4.479   8.842 -0.2794  0.2519 -1.8754
  147SAPE  C31716291   1.377   4.430   8.736  0.4662  0.7766 -0.5406
  147SAPE  H17X16292   1.353   4.537   8.748  0.3148  0.9921 -2.6178
  147SAPE  H17Y16293   1.283   4.375   8.760  2.0918 -1.5319  0.8126
  147SAPE  C31816294   1.432   4.400   8.601 -1.0225  0.5880  0.4012
  147SAPE  H18X16295   1.455   4.291   8.595 -0.4164  0.8143 -1.7313
  147SAPE  H18Y16296   1.529   4.449   8.579  0.5518 -2.5727  0.0737
  147SAPE  H18Z16297   1.366   4.413   8.513 -0.9191  0.1318  0.2563
  148SAPE     N16298   3.346   6.126  10.584 -0.0307 -0.0513 -0.2385
  148SAPE   HN116299   3.411   6.154  10.659  1.0419  0.0484 -1.1955
  148SAPE   HN216300   3.316   6.027  10.600 -0.3491 -0.3902 -2.7041
  148SAPE   HN316301   3.380   6.123  10.486 -0.8119  1.7885 -0.5917
  148SAPE   C1216302   3.222   6.211  10.598 -0.1013  0.2292 -0.7472
  148SAPE  H12A16303   3.245   6.315  10.566 -0.2427  0.2684 -0.7260
  148SAPE  H12B16304   3.197   6.213  10.707 -1.8125  1.2008 -1.1233
  148SAPE   C1116305   3.104   6.154  10.522 -0.6746  0.2701 -0.4773
  148SAPE  H11A16306   3.124   6.147  10.413 -3.0728  1.2607 -1.0187
  148SAPE  H11B16307   3.021   6.227  10.534 -0.2083  0.8624 -0.8158
  148SAPE     P16308   2.923   5.978  10.535  0.1914 -0.1376  0.2302
  148SAPE   O1316309   2.932   5.847  10.466 -0.1219 -0.0151 -0.4494
  148SAPE   O1416310   2.850   5.972  10.664 -0.7945 -0.0825 -0.1582
  148SAPE   O1216311   3.065   6.032  10.577 -0.4968  0.3301 -0.5605
  148SAPE   O1116312   2.851   6.083  10.441 -0.0085  0.3883 -0.4833
  148SAPE    C116313   2.746   6.174  10.480  0.5754 -0.1905 -0.1364
  148SAPE    HA16314   2.657   6.112  10.504  1.5265 -1.1194  1.1603
  148SAPE    HB16315   2.775   6.242  10.563  1.4452 -0.6051 -0.0848
  148SAPE    C216316   2.711   6.266  10.361  0.1710  0.0343 -0.8569
  148SAPE    HS16317   2.657   6.202  10.288 -2.5992 -0.4464  1.5290
  148SAPE   O2116318   2.829   6.333  10.304 -0.0702 -0.0827 -0.5650
  148SAPE   C2116319   2.873   6.284  10.189 -0.1119  0.1190  0.0383
  148SAPE   O2216320   2.812   6.194  10.128 -0.3479  0.0930 -0.1440
  148SAPE   C2216321   2.994   6.366  10.144  0.1522  0.4504  0.0900
  148SAPE   H2R16322   3.063   6.389  10.228  1.8213 -0.6090 -0.9737
  148SAPE   H2S16323   3.065   6.298  10.092 -1.0634 -2.5148  2.2459
  148SAPE    C316324   2.617   6.379  10.403 -1.3331 -0.1884 -0.0249
  148SAPE    HX16325   2.683   6.452  10.454 -0.0144 -0.5305 -1.2163
  148SAPE    HY16326   2.550   6.343  10.484  0.5096 -1.1136  1.1386
  148SAPE   O3116327   2.542   6.434  10.294  0.2414 -0.1457  0.4768
  148SAPE   C3116328   2.594   6.533  10.230  0.0704 -0.1759 -0.6972
  148SAPE   O3216329   2.695   6.596  10.259  0.6605  0.2557 -0.7906
  148SAPE   C3216330   2.497   6.569  10.117 -0.1817  0.0923 -0.0250
  148SAPE   H2X16331   2.402   6.616  10.149  0.3340 -0.0674  1.7851
  148SAPE   H2Y16332   2.474   6.467  10.078  0.2816  0.7512 -2.0827
  148SAPE   C2316333   2.959   6.483  10.048 -0.0637  0.3695 -0.7271
  148SAPE   H3R16334   3.043   6.554  10.055  1.7209 -1.6406 -1.3274
  148SAPE   H3S16335   2.865   6.527  10.089 -0.4433 -1.2922  0.2578
  148SAPE   C2416336   2.917   6.458   9.895 -0.6222 -0.2559 -0.7388
  148SAPE   H4R16337   2.881   6.555   9.854 -0.2090  0.0534 -0.3734
  148SAPE   H4S16338   2.823   6.399   9.888 -0.7705 -0.2646  1.0805
  148SAPE   C2516339   3.034   6.398   9.827  0.0749  0.3642 -0.0418
  148SAPE   H5R16340   3.063   6.298   9.862  0.9143 -0.3034 -2.5489
  148SAPE   C2616341   3.122   6.451   9.740  0.0333  0.0085  0.6525
  148SAPE   H6R16342   3.208   6.392   9.706 -0.2877 -0.1458  0.0917
  148SAPE   C2716343   3.129   6.593   9.689  0.4297 -0.9273  0.5044
  148SAPE   H7R16344   3.188   6.647   9.766  1.3595  2.8213 -2.7129
  148SAPE   H7S16345   3.029   6.641   9.699  0.9200 -0.0033  1.0654
  148SAPE   C2816346   3.194   6.618   9.557  0.1224  0.6367  0.3771
  148SAPE   H8R16347   3.303   6.633   9.562  0.0145  1.3214  0.7490
  148SAPE   C2916348   3.132   6.629   9.436 -0.5614  0.2290  0.8086
  148SAPE   H9R16349   3.183   6.655   9.342 -1.3514 -1.6419 -0.1655
  148SAPE  C21016350   2.983   6.609   9.412 -0.0701  0.2700  0.1054
  148SAPE  H10R16351   2.938   6.690   9.351 -2.1641 -1.3452 -0.5677
  148SAPE  H10S16352   2.920   6.617   9.503 -3.1692 -0.6862 -1.8686
  148SAPE  C21116353   2.955   6.474   9.356 -0.2137  0.1180 -0.1255
  148SAPE  H11R16354   2.905   6.409   9.430  1.8158  0.6357  1.7296
  148SAPE  C21216355   2.965   6.434   9.230  0.9299  0.3723  0.1173
  148SAPE  H12R16356   2.925   6.334   9.209  1.0403  0.5591 -1.0014
  148SAPE  C21316357   3.014   6.517   9.110 -0.0604  0.6943 -0.1436
  148SAPE  H13R16358   3.122   6.495   9.104 -0.4365 -0.7848 -2.2100
  148SAPE  H13S16359   3.012   6.624   9.141  4.6789  0.5533  0.9464
  148SAPE  C21416360   2.945   6.481   8.978  0.0390  1.0053  0.2245
  148SAPE  H14R16361   2.836   6.474   8.966  0.2528  1.6873 -2.4741
  148SAPE  C21516362   3.007   6.463   8.863  0.1596 -0.2287  0.6697
  148SAPE  H15R16363   2.949   6.433   8.775 -0.5284  0.8729  0.7382
  148SAPE  C21616364   3.158   6.478   8.837 -0.3368  0.5367 -0.0381
  148SAPE  H16R16365   3.217   6.440   8.923  0.4062 -3.8817 -2.3245
  148SAPE  H16S16366   3.183   6.582   8.808  1.7349  0.6126  1.9264
  148SAPE  C21716367   3.211   6.382   8.726 -0.4332 -0.8568  0.2764
  148SAPE  H17R16368   3.145   6.402   8.639  0.4325 -0.1117 -0.2154
  148SAPE  H17S16369   3.212   6.276   8.758  1.1158 -0.7980  0.4478
  148SAPE  C21816370   3.353   6.418   8.681 -0.0999  0.7914  0.0172
  148SAPE  H18R16371   3.420   6.431   8.768  1.4400  0.0993 -1.0389
  148SAPE  H18S16372   3.342   6.513   8.625 -2.0770  0.1086 -0.8173
  148SAPE  C21916373   3.407   6.311   8.582 -0.2747  0.2404 -0.2828
  148SAPE  H19R16374   3.365   6.309   8.479  1.9469  1.7746 -1.2681
  148SAPE  H19S16375   3.389   6.207   8.618 -2.5149 -0.0599 -2.0887
  148SAPE  C22016376   3.555   6.319   8.563  0.4677  0.5221 -0.4340
  148SAPE  H20R16377   3.585   6.403   8.497 -0.8475  1.9761  0.7900
  148SAPE  H20S16378   3.579   6.218   8.525 -1.3177  0.0737 -0.3747
  148SAPE  H20T16379   3.594   6.335   8.666 -0.7802 -1.9381  0.4601
  148SAPE   C3316380   2.561   6.651  10.005 -0.6365  0.0800  0.1308
  148SAPE   H3X16381   2.669   6.626   9.992 -0.0927  1.2554  2.2621
  148SAPE   H3Y16382   2.567   6.757  10.036  1.6066 -0.3109  1.1349
  148SAPE   C3416383   2.485   6.649   9.871 -0.2097 -0.0377  0.2447
  148SAPE   H4X16384   2.387   6.702   9.871 -0.8674 -1.2315  0.5188
  148SAPE   H4Y16385   2.467   6.543   9.843  0.6105  0.1954 -1.1759
  148SAPE   C3516386   2.578   6.713   9.766  0.6794  0.5523 -0.0953
  148SAPE   H5X16387   2.673   6.657   9.768  1.3084  1.6277  0.8544
  148SAPE   H5Y16388   2.609   6.816   9.795  2.6546 -0.3106  0.9055
  148SAPE   C3616389   2.513   6.715   9.632  0.0828 -0.5666 -0.2067
  148SAPE   H6X16390   2.433   6.790   9.643 -1.2295 -2.1471  1.2685
  148SAPE   H6Y16391   2.466   6.616   9.614  2.0595 -1.5893  0.0099
  148SAPE   C3716392   2.622   6.740   9.521 -0.4553  0.4047  0.0149
  148SAPE   H7X16393   2.714   6.678   9.525 -0.2602  0.6972  0.1070
  148SAPE   H7Y16394   2.653   6.843   9.549 -0.1761  0.4487 -0.4594
  148SAPE   C3816395   2.549   6.737   9.380  0.2972  0.5366 -0.5088
  148SAPE   H8X16396   2.456   6.797   9.380 -0.6455 -0.8506  2.1783
  148SAPE   H8Y16397   2.515   6.639   9.342  0.0426  0.1843  0.6267
  148SAPE   C3916398   2.637   6.794   9.272  0.0012  0.1612 -0.3523
  148SAPE   H9X16399   2.733   6.738   9.274 -0.4348 -0.6226 -1.2315
  148SAPE   H9Y16400   2.667   6.901   9.270  0.8339 -0.0488  0.5187
  148SAPE  C31016401   2.590   6.762   9.121  0.6755 -0.1701 -0.0036
  148SAPE  H10X16402   2.491   6.807   9.097  0.3974  0.4935  2.3061
  148SAPE  H10Y16403   2.588   6.651   9.120 -0.0811 -0.1768  0.9131
  148SAPE  C31116404   2.703   6.810   9.028 -0.2130 -0.1703 -0.7766
  148SAPE  H11X16405   2.800   6.759   9.049  0.4035  1.2763 -0.0132
  148SAPE  H11Y16406   2.731   6.915   9.052  1.3207 -0.8988  0.7141
  148SAPE  C31216407   2.678   6.786   8.882 -0.2214  0.4514 -0.0090
  148SAPE  H12X16408   2.588   6.846   8.857 -0.8585 -0.1794  0.7234
  148SAPE  H12Y16409   2.649   6.679   8.872 -0.2516  0.1269  3.2088
  148SAPE  C31316410   2.796   6.830   8.791 -0.4470  0.1227  0.0719
  148SAPE  H13X16411   2.891   6.772   8.794 -1.0953 -0.9640 -0.1977
  148SAPE  H13Y16412   2.813   6.939   8.806  3.4763  0.0698 -3.1197
  148SAPE  C31416413   2.752   6.825   8.642  0.4361 -0.6251  0.3497
  148SAPE  H14X16414   2.651   6.872   8.638  0.7776  0.1760  1.0198
  148SAPE  H14Y16415   2.739   6.721   8.605 -2.5816 -0.5188  0.9678
  148SAPE  C31516416   2.850   6.900   8.543  0.7314  0.5692  0.4846
  148SAPE  H15X16417   2.949   6.851   8.551  0.6861  0.2866 -0.5238
  148SAPE  H15Y16418   2.862   7.002   8.586  0.6558  1.0654 -0.6506
  148SAPE  C31616419   2.781   6.898   8.408  0.1244  0.4799 -0.4789
  148SAPE  H16X16420   2.691   6.963   8.398 -1.1540 -1.0782  0.7901
  148SAPE  H16Y16421   2.742   6.797   8.383 -1.8086  1.3258 -1.0357
  148SAPE  C31716422   2.866   6.943   8.285  0.1088  0.1477 -0.8854
  148SAPE  H17X16423   2.954   6.874   8.291 -2.1197 -2.7971 -1.1729
  148SAPE  H17Y16424   2.910   7.044   8.303 -1.9367  1.1911 -1.6231
  148SAPE  C31816425   2.799   6.924   8.157  0.1972  0.4223 -1.0329
  148SAPE  H18X16426   2.868   6.953   8.075  2.6579  1.2127  1.2252
  148SAPE  H18Y16427   2.709   6.988   8.150 -1.3313 -1.6627 -0.7871
  148SAPE  H18Z16428   2.774   6.818   8.135 -1.1998 -0.0253  2.4377
  149SAPE     N16429   5.238   2.403  11.107  0.2036  0.0039  0.0922
  149SAPE   HN116430   5.320   2.388  11.170 -0.6571 -3.8788  0.4172
  149SAPE   HN216431   5.231   2.506  11.091 -0.4202  0.2079  1.5405
  149SAPE   HN316432   5.153   2.364  11.153  0.3859 -1.8773 -1.1045
  149SAPE   C1216433   5.262   2.336  10.975  0.2965 -0.0280  0.1362
  149SAPE  H12A16434   5.348   2.381  10.921  0.2391  1.3873  1.2003
  149SAPE  H12B16435   5.168   2.348  10.917  0.9641 -0.4322 -1.0529
  149SAPE   C1116436   5.289   2.187  10.993  1.0087 -0.3022 -0.4953
  149SAPE  H11A16437   5.282   2.138  10.893  0.5130  2.2052 -1.7315
  149SAPE  H11B16438   5.208   2.141  11.053  1.2358 -0.3231 -0.2057
  149SAPE     P16439   5.546   2.141  11.004  0.0096  0.3693  0.0163
  149SAPE   O1316440   5.580   2.262  10.927  0.6739 -0.4729 -0.0638
  149SAPE   O1416441   5.630   2.112  11.122  0.7767 -0.0339 -0.4212
  149SAPE   O1216442   5.413   2.169  11.068  0.4194 -1.0099  0.0218
  149SAPE   O1116443   5.525   2.011  10.911 -0.4474  0.3833 -0.0577
  149SAPE    C116444   5.598   1.997  10.782 -0.2346  0.1341  0.1075
  149SAPE    HA16445   5.709   2.003  10.793 -0.0020 -1.6651 -1.0405
  149SAPE    HB16446   5.579   1.891  10.753 -1.3800 -0.0627  1.4827
  149SAPE    C216447   5.545   2.081  10.667 -0.0035 -0.1910  0.1459
  149SAPE    HS16448   5.591   2.181  10.685 -1.3721  0.1047  2.0930
  149SAPE   O2116449   5.402   2.082  10.675  0.1596 -0.2501  0.0609
  149SAPE   C2116450   5.346   2.183  10.609  0.1342 -0.0982 -0.6129
  149SAPE   O2216451   5.400   2.275  10.551  0.0955 -0.2771  0.3330
  149SAPE   C2216452   5.193   2.164  10.609 -0.1846  0.2056 -0.1201
  149SAPE   H2R16453   5.155   2.166  10.714 -1.1750  2.8412 -0.5105
  149SAPE   H2S16454   5.150   2.246  10.549 -0.9193 -0.8381 -1.0489
  149SAPE    C316455   5.594   2.023  10.533 -0.3496 -0.0480  0.0519
  149SAPE    HX16456   5.700   1.995  10.551 -0.6295 -0.5859  0.8810
  149SAPE    HY16457   5.600   2.115  10.471 -1.4644  1.4958  2.1668
  149SAPE   O3116458   5.521   1.914  10.482  0.0496 -0.3930 -0.9244
  149SAPE   C3116459   5.575   1.792  10.479 -0.2846 -0.2357 -0.2725
  149SAPE   O3216460   5.684   1.767  10.527 -0.4858 -0.4389  0.4955
  149SAPE   C3216461   5.477   1.683  10.420 -1.1339  0.0060  0.2221
  149SAPE   H2X16462   5.395   1.660  10.491 -2.9228 -1.6594 -2.3265
  149SAPE   H2Y16463   5.541   1.592  10.413 -1.4893 -0.2917  0.8153
  149SAPE   C2316464   5.147   2.037  10.544 -0.4440  0.1217 -0.2346
  149SAPE   H3R16465   5.037   2.034  10.562 -0.1929 -1.0871  1.2956
  149SAPE   H3S16466   5.195   1.947  10.589  1.3997  0.2990 -1.8256
  149SAPE   C2416467   5.188   2.017  10.394  0.2542 -0.0617  0.1238
  149SAPE   H4R16468   5.169   1.913  10.359  3.5559 -0.9189  0.6207
  149SAPE   H4S16469   5.299   2.028  10.389  0.2371  0.6606  1.3376
  149SAPE   C2516470   5.116   2.123  10.306 -0.2559 -0.6137  0.3031
  149SAPE   H5R16471   5.073   2.212  10.355  1.1260  2.3147 -3.5615
  149SAPE   C2616472   5.126   2.119  10.176  0.9000  0.0260  0.3151
  149SAPE   H6R16473   5.090   2.203  10.114 -0.9589  0.5863  2.1007
  149SAPE   C2716474   5.208   2.015  10.103 -0.0218  0.3076  0.4398
  149SAPE   H7R16475   5.145   1.941  10.050  0.5186  0.5006 -0.4956
  149SAPE   H7S16476   5.264   1.949  10.172 -0.9060 -0.9849 -0.0586
  149SAPE   C2816477   5.285   2.085   9.994 -0.2120 -0.2042  0.1444
  149SAPE   H8R16478   5.381   2.123  10.033 -0.2130  2.0911 -1.9980
  149SAPE   C2916479   5.263   2.098   9.867 -0.0699  1.1675 -0.2433
  149SAPE   H9R16480   5.336   2.154   9.806 -0.4182  0.3947 -1.3826
  149SAPE  C21016481   5.146   2.047   9.791 -0.0206  0.0689  0.2822
  149SAPE  H10R16482   5.059   2.025   9.857 -1.0744  1.6994 -0.5322
  149SAPE  H10S16483   5.172   1.954   9.736 -0.6213 -0.1500  0.3601
  149SAPE  C21116484   5.094   2.155   9.700  0.2130 -0.4168 -0.1868
  149SAPE  H11R16485   5.039   2.237   9.749  2.5914  0.8040  0.5166
  149SAPE  C21216486   5.110   2.161   9.564  0.3854  0.6968 -0.2110
  149SAPE  H12R16487   5.071   2.246   9.507 -0.4522 -0.3324 -1.1994
  149SAPE  C21316488   5.178   2.065   9.475 -0.4955 -0.0597  0.8989
  149SAPE  H13R16489   5.154   2.104   9.374 -0.6444  1.4450  1.5050
  149SAPE  H13S16490   5.131   1.965   9.485  1.3672 -1.0219  0.3359
  149SAPE  C21416491   5.327   2.057   9.482 -0.3295 -0.3090 -0.6032
  149SAPE  H14R16492   5.366   1.981   9.552 -0.5114 -1.2210 -1.4917
  149SAPE  C21516493   5.415   2.147   9.434  0.2805  0.1626  0.0504
  149SAPE  H15R16494   5.521   2.129   9.456 -0.3180 -1.6963  1.5962
  149SAPE  C21616495   5.397   2.276   9.364 -0.2242 -0.0621  0.2445
  149SAPE  H16R16496   5.298   2.318   9.392  0.7429  1.5278  1.3852
  149SAPE  H16S16497   5.390   2.252   9.256  0.4298  0.9481 -0.0317
  149SAPE  C21716498   5.508   2.385   9.377 -0.2990 -0.4245 -0.0307
  149SAPE  H17R16499   5.530   2.399   9.485 -0.2423 -0.6948 -0.0068
  149SAPE  H17S16500   5.448   2.471   9.341 -2.5529 -1.7885  0.3992
  149SAPE  C21816501   5.636   2.366   9.289  0.0198  0.7040 -0.9076
  149SAPE  H18R16502   5.666   2.259   9.288 -0.1291  0.6504 -0.2033
  149SAPE  H18S16503   5.708   2.425   9.350  0.3085 -0.3999 -0.1593
  149SAPE  C21916504   5.627   2.427   9.155 -0.2741 -0.4606  1.2265
  149SAPE  H19R16505   5.584   2.529   9.162  0.4994  0.1855 -2.2916
  149SAPE  H19S16506   5.555   2.361   9.102  0.2871  1.9071 -2.6653
  149SAPE  C22016507   5.766   2.430   9.082 -0.2368  0.5688 -0.7843
  149SAPE  H20R16508   5.796   2.527   9.037  3.0798  1.1009  2.3005
  149SAPE  H20S16509   5.777   2.348   9.008 -2.7425 -0.7886  0.2911
  149SAPE  H20T16510   5.855   2.412   9.146  0.1314 -2.3637 -2.0700
  149SAPE   C3316511   5.427   1.720  10.280 -0.4822  0.6814 -0.7020
  149SAPE   H3X16512   5.387   1.823  10.268 -0.0297  0.8002 -1.2581
  149SAPE   H3Y16513   5.347   1.647  10.253  0.0342  0.3236 -1.2649
  149SAPE   C3416514   5.525   1.711  10.167 -0.5972  0.8776  0.1469
  149SAPE   H4X16515   5.578   1.615  10.155 -1.1172  0.7267 -1.0270
  149SAPE   H4Y16516   5.611   1.781  10.166  0.4543 -0.3906 -2.0176
  149SAPE   C3516517   5.447   1.737  10.044 -0.1281 -0.0447 -0.0637
  149SAPE   H5X16518   5.377   1.823  10.054  1.9100  1.9369 -2.0149
  149SAPE   H5Y16519   5.386   1.648  10.020 -1.8254  0.8427  0.8218
  149SAPE   C3616520   5.527   1.763   9.914  0.7530  0.5079  0.1722
  149SAPE   H6X16521   5.630   1.723   9.917  0.9739  1.0936  0.5996
  149SAPE   H6Y16522   5.532   1.874   9.905 -0.5846  0.8758  3.3263
  149SAPE   C3716523   5.461   1.720   9.786  0.1421  0.7272 -0.7076
  149SAPE   H7X16524   5.356   1.757   9.786 -0.0811  0.1002 -0.1698
  149SAPE   H7Y16525   5.467   1.609   9.787  1.6301  0.7592  3.9380
  149SAPE   C3816526   5.531   1.763   9.660 -0.2554 -0.0794 -0.1389
  149SAPE   H8X16527   5.637   1.731   9.656  0.3723  2.0684 -1.6493
  149SAPE   H8Y16528   5.525   1.872   9.636  1.5267  0.2875  1.0084
  149SAPE   C3916529   5.453   1.714   9.536  0.0679  0.1643  0.4640
  149SAPE   H9X16530   5.350   1.755   9.535 -0.5734 -1.4021  1.2252
  149SAPE   H9Y16531   5.441   1.604   9.538 -0.1909  0.1912  0.4737
  149SAPE  C31016532   5.524   1.758   9.410 -0.2116 -0.3034 -0.6672
  149SAPE  H10X16533   5.610   1.692   9.386  2.3667  2.6243  0.1383
  149SAPE  H10Y16534   5.546   1.867   9.421 -0.9195 -0.2114 -0.1668
  149SAPE  C31116535   5.418   1.739   9.296 -0.6720 -0.9198 -0.1574
  149SAPE  H11X16536   5.329   1.799   9.325  1.2508  2.9176 -1.8434
  149SAPE  H11Y16537   5.383   1.635   9.277  3.2637 -2.1693 -1.0355
  149SAPE  C31216538   5.482   1.794   9.167 -0.5603  0.6663 -0.4963
  149SAPE  H12X16539   5.532   1.707   9.119  0.4621  0.3358  1.1592
  149SAPE  H12Y16540   5.561   1.870   9.186  2.0549 -1.7656 -1.2965
  149SAPE  C31316541   5.374   1.845   9.076 -0.1940  0.2945 -0.1411
  149SAPE  H13X16542   5.275   1.796   9.093  0.2821  0.1000  2.2019
  149SAPE  H13Y16543   5.389   1.830   8.967  2.1420 -0.5924  0.2920
  149SAPE  C31416544   5.363   1.999   9.091  0.1710  0.4441  0.4509
  149SAPE  H14X16545   5.458   2.044   9.054  1.1702 -1.6638  0.4024
  149SAPE  H14Y16546   5.349   2.024   9.199  2.2047  0.1471  0.8013
  149SAPE  C31516547   5.242   2.060   9.018  0.0974 -0.1872  0.0645
  149SAPE  H15X16548   5.141   2.026   9.049 -0.1300 -0.3832 -0.8813
  149SAPE  H15Y16549   5.263   2.043   8.911 -1.9319 -1.1624 -0.2073
  149SAPE  C31616550   5.240   2.212   9.029 -0.2428  0.3246  0.5390
  149SAPE  H16X16551   5.337   2.256   8.998  0.6436 -1.8194  0.2167
  149SAPE  H16Y16552   5.222   2.231   9.137 -1.1139  1.4728  0.2072
  149SAPE  C31716553   5.128   2.289   8.957  0.0659  0.4554  0.1223
  149SAPE  H17X16554   5.153   2.300   8.849 -1.3308  1.1328 -0.1481
  149SAPE  H17Y16555   5.119   2.388   9.006 -2.2310  0.6562 -0.6048
  149SAPE  C31816556   5.006   2.203   8.959 -0.2481  0.5259 -0.4032
  149SAPE  H18X16557   4.917   2.249   8.911 -1.5966 -3.0551 -1.4599
  149SAPE  H18Y16558   4.967   2.172   9.058  0.0883  1.6038  0.0666
  149SAPE  H18Z16559   5.022   2.107   8.905  3.0094  1.9429 -2.1142
  150SAPE     N16560   0.307   1.374  10.870  0.0642  0.1767 -0.8015
  150SAPE   HN116561   0.276   1.419  10.782 -1.7097 -3.0204 -1.9022
  150SAPE   HN216562   0.393   1.424  10.900 -0.2924  1.1350 -1.3673
  150SAPE   HN316563   0.337   1.274  10.865  0.9869  0.4789 -1.5095
  150SAPE   C1216564   0.204   1.387  10.973 -0.4797 -0.5314 -0.5253
  150SAPE  H12A16565   0.234   1.315  11.053 -2.1729  1.5229  2.0544
  150SAPE  H12B16566   0.105   1.372  10.925 -2.3352  0.1010  2.8955
  150SAPE   C1116567   0.188   1.525  11.044 -0.6303 -0.3669 -0.5870
  150SAPE  H11A16568   0.293   1.552  11.070 -0.5531  2.0018 -3.0950
  150SAPE  H11B16569   0.138   1.499  11.140 -0.9873  2.8342  0.1500
  150SAPE     P16570   0.195   1.728  10.871 -0.4282 -0.3928  0.4552
  150SAPE   O1316571   0.169   1.872  10.905 -0.3033 -0.5368 -0.2064
  150SAPE   O1416572   0.330   1.685  10.846  0.0379  0.5552 -0.5926
  150SAPE   O1216573   0.124   1.634  10.971 -0.5767 -0.7769  0.3594
  150SAPE   O1116574   0.112   1.697  10.741  0.2743  0.1898  0.0753
  150SAPE    C116575  -0.006   1.761  10.703  0.2674  0.6415  0.6633
  150SAPE    HA16576  -0.088   1.709  10.758  1.1239  1.4625  2.7798
  150SAPE    HB16577  -0.013   1.868  10.733  3.0228  0.8836  0.5670
  150SAPE    C216578  -0.030   1.760  10.551  0.0240 -0.5089  0.5698
  150SAPE    HS16579  -0.137   1.791  10.550  0.1684  0.1217  2.3423
  150SAPE   O2116580  -0.008   1.627  10.497 -0.1761  0.0373  0.0744
  150SAPE   C2116581  -0.092   1.535  10.536  0.2100 -0.7000  0.3474
  150SAPE   O2216582  -0.191   1.543  10.608  0.1048  0.4234 -0.1003
  150SAPE   C2216583  -0.056   1.409  10.464 -0.7157 -0.2412  0.3537
  150SAPE   H2R16584   0.031   1.368  10.519  1.3699  0.3790 -2.3460
  150SAPE   H2S16585  -0.136   1.335  10.484  1.6142 -2.7397  0.7760
  150SAPE    C316586   0.065   1.855  10.479 -0.1600  0.0867  1.3497
  150SAPE    HX16587   0.172   1.832  10.501  0.1841  1.0024  0.6527
  150SAPE    HY16588   0.033   1.953  10.520 -3.6886 -0.4477  0.0516
  150SAPE   O3116589   0.040   1.856  10.336 -0.0980  0.3440 -0.7006
  150SAPE   C3116590   0.133   1.805  10.256  0.0792  0.0103  0.2117
  150SAPE   O3216591   0.234   1.747  10.287  0.5194  0.3538  0.2145
  150SAPE   C3216592   0.092   1.846  10.112  0.2157  0.5464  0.0881
  150SAPE   H2X16593   0.187   1.872  10.061  0.5753 -0.9234 -0.0176
  150SAPE   H2Y16594   0.027   1.936  10.116 -0.5868  0.0250 -0.9214
  150SAPE   C2316595  -0.016   1.402  10.312 -0.3997 -0.2215 -0.9848
  150SAPE   H3R16596   0.071   1.332  10.307 -1.3276 -1.5113  0.4690
  150SAPE   H3S16597   0.022   1.501  10.280  0.4479  0.7502  2.8206
  150SAPE   C2416598  -0.126   1.351  10.223 -0.1694 -0.6220 -0.6541
  150SAPE   H4R16599  -0.147   1.244  10.245  3.0623 -1.1024  0.3474
  150SAPE   H4S16600  -0.096   1.356  10.116 -0.9172  0.3332 -0.8282
  150SAPE   C2516601  -0.255   1.421  10.244  0.0920  0.3212 -0.3036
  150SAPE   H5R16602  -0.279   1.460  10.343  1.7362  2.0596 -0.5611
  150SAPE   C2616603  -0.349   1.438  10.144  0.6938  0.6221 -0.5758
  150SAPE   H6R16604  -0.445   1.473  10.183  0.6911 -0.2484  0.2052
  150SAPE   C2716605  -0.350   1.414   9.993  0.1776 -0.4245  0.2726
  150SAPE   H7R16606  -0.259   1.354   9.972  2.5736  2.7151  1.3363
  150SAPE   H7S16607  -0.338   1.514   9.947 -0.6784  0.6184  2.2402
  150SAPE   C2816608  -0.468   1.343   9.933  0.0233 -0.2556 -1.2725
  150SAPE   H8R16609  -0.545   1.403   9.883 -1.7864 -0.2575  1.3627
  150SAPE   C2916610  -0.478   1.205   9.934  0.2502 -0.2582 -0.1080
  150SAPE   H9R16611  -0.570   1.165   9.888  0.3775  1.4898 -1.9508
  150SAPE  C21016612  -0.394   1.106  10.019 -0.3710 -0.3849 -0.0823
  150SAPE  H10R16613  -0.451   1.057  10.101  0.8531 -0.9424  0.4543
  150SAPE  H10S16614  -0.312   1.160  10.073 -1.2052  1.3041 -0.4942
  150SAPE  C21116615  -0.326   1.006   9.935  0.7719  0.3728  0.0380
  150SAPE  H11R16616  -0.392   0.989   9.848 -1.3842  1.2476  1.4554
  150SAPE  C21216617  -0.224   0.922   9.960 -0.5643  0.4351  0.1328
  150SAPE  H12R16618  -0.199   0.849   9.882 -1.9983  0.8797 -0.7711
  150SAPE  C21316619  -0.135   0.921  10.080 -0.2906  0.0130 -0.1160
  150SAPE  H13R16620  -0.161   0.844  10.156 -2.1055  1.1203  0.4032
  150SAPE  H13S16621  -0.137   1.013  10.142  0.5575 -0.1182  0.1044
  150SAPE  C21416622   0.006   0.902  10.032  0.4853 -0.0494 -0.6078
  150SAPE  H14R16623   0.039   0.992   9.979  1.6239  0.5852  1.1371
  150SAPE  C21516624   0.091   0.798  10.053  0.2499 -0.1305 -0.2771
  150SAPE  H15R16625   0.186   0.798   9.997 -0.1416  0.4410 -0.9499
  150SAPE  C21616626   0.046   0.679  10.134  0.9731 -0.4639  0.2703
  150SAPE  H16R16627  -0.005   0.724  10.222  1.8140  0.9692  0.0471
  150SAPE  H16S16628   0.138   0.625  10.165 -0.0124 -2.6962 -0.5679
  150SAPE  C21716629  -0.045   0.581  10.054 -0.0481 -0.0328 -0.6710
  150SAPE  H17R16630  -0.138   0.633  10.022 -0.8388 -0.7020  0.5189
  150SAPE  H17S16631  -0.087   0.499  10.116 -0.3723  0.2953 -0.4515
  150SAPE  C21816632   0.037   0.512   9.942  0.4024 -0.2703 -0.2493
  150SAPE  H18R16633   0.133   0.471   9.981  1.2540  0.0604 -1.9781
  150SAPE  H18S16634   0.062   0.576   9.855 -0.2770  0.9680  0.4542
  150SAPE  C21916635  -0.039   0.396   9.869 -0.4902  0.8121 -0.0539
  150SAPE  H19R16636  -0.113   0.351   9.938  0.0994  1.2095  0.8448
  150SAPE  H19S16637   0.038   0.316   9.858 -1.2840  0.0712 -0.3722
  150SAPE  C22016638  -0.108   0.426   9.736  0.8743 -0.6034  0.2386
  150SAPE  H20R16639  -0.039   0.486   9.673 -0.5403  3.1819  2.1314
  150SAPE  H20S16640  -0.196   0.491   9.759  1.4015 -0.3630  1.6750
  150SAPE  H20T16641  -0.142   0.328   9.698  0.3667  0.4169 -1.9884
  150SAPE   C3316642   0.030   1.733  10.026 -0.0601 -0.2282  0.6340
  150SAPE   H3X16643  -0.056   1.691  10.082  0.8395 -0.1795  2.0732
  150SAPE   H3Y16644   0.107   1.654  10.010 -0.5224 -0.5277 -0.1607
  150SAPE   C3416645  -0.012   1.789   9.887 -0.2700  0.4979 -0.0416
  150SAPE   H4X16646   0.079   1.812   9.829 -0.0868  0.2269  0.1388
  150SAPE   H4Y16647  -0.067   1.886   9.890  0.3126  0.8010  1.2491
  150SAPE   C3516648  -0.105   1.690   9.808 -0.4794  0.1524 -0.2029
  150SAPE   H5X16649  -0.204   1.661   9.850  0.1190 -2.2568 -0.3692
  150SAPE   H5Y16650  -0.051   1.594   9.795  2.3556  1.6832 -0.1722
  150SAPE   C3616651  -0.140   1.752   9.669  0.4961  0.4798 -0.2978
  150SAPE   H6X16652  -0.046   1.772   9.613  1.1992  0.2795  0.8058
  150SAPE   H6Y16653  -0.187   1.851   9.683 -2.4043 -1.2039  2.5295
  150SAPE   C3716654  -0.241   1.658   9.591 -0.9142 -0.5360  0.6316
  150SAPE   H7X16655  -0.329   1.640   9.657  0.6841 -0.8918  2.7257
  150SAPE   H7Y16656  -0.188   1.563   9.567  0.6356  0.1266  1.3933
  150SAPE   C3816657  -0.291   1.716   9.455  0.0315 -0.3919 -0.0404
  150SAPE   H8X16658  -0.191   1.721   9.407 -0.2060  0.0749 -0.4917
  150SAPE   H8Y16659  -0.334   1.819   9.459 -1.5689 -1.1240  4.4865
  150SAPE   C3916660  -0.391   1.627   9.384  0.5845 -0.3137  0.2569
  150SAPE   H9X16661  -0.485   1.618   9.442 -0.7820  2.4589 -1.4348
  150SAPE   H9Y16662  -0.351   1.523   9.375  0.5623 -0.1983 -1.3705
  150SAPE  C31016663  -0.431   1.683   9.246  0.4302 -0.4284 -0.4209
  150SAPE  H10X16664  -0.456   1.791   9.246  1.5358 -0.1371 -2.7362
  150SAPE  H10Y16665  -0.524   1.631   9.214  0.7031 -1.5173  0.5014
  150SAPE  C31116666  -0.330   1.668   9.135 -0.0536 -0.6029 -0.3582
  150SAPE  H11X16667  -0.323   1.561   9.107  0.2525 -0.8557  0.6867
  150SAPE  H11Y16668  -0.232   1.695   9.179 -0.9992 -0.5225  1.7445
  150SAPE  C31216669  -0.375   1.745   9.007 -0.6163  0.5460 -0.5495
  150SAPE  H12X16670  -0.378   1.852   9.037 -0.5823  0.2523  0.5058
  150SAPE  H12Y16671  -0.481   1.726   8.983 -0.6871 -1.4444  1.2600
  150SAPE  C31316672  -0.274   1.714   8.889  0.3937  0.5763  0.6068
  150SAPE  H13X16673  -0.167   1.739   8.906  0.6352  1.2434 -1.7006
  150SAPE  H13Y16674  -0.303   1.783   8.806 -0.0744  0.9999  1.1206
  150SAPE  C31416675  -0.304   1.571   8.827  0.7230  0.3030 -0.0914
  150SAPE  H14X16676  -0.410   1.556   8.797  0.5546 -0.0125  0.6456
  150SAPE  H14Y16677  -0.299   1.487   8.901  0.2510  0.2520 -0.1155
  150SAPE  C31516678  -0.208   1.536   8.704 -0.1842  0.4168 -0.5494
  150SAPE  H15X16679  -0.219   1.608   8.620  1.3197  0.7379 -0.4901
  150SAPE  H15Y16680  -0.248   1.440   8.666 -0.6874 -0.1137  1.2680
  150SAPE  C31616681  -0.070   1.506   8.756  0.5170  0.2784 -0.0066
  150SAPE  H16X16682  -0.069   1.418   8.824 -0.6693 -1.1431 -1.8275
  150SAPE  H16Y16683  -0.048   1.588   8.828  1.4995 -0.8164  0.9706
  150SAPE  C31716684   0.032   1.495   8.640 -0.2749 -0.6136  0.3912
  150SAPE  H17X16685   0.134   1.525   8.672 -0.3610 -1.2360  1.2765
  150SAPE  H17Y16686  -0.004   1.564   8.560  0.9513  0.5376  0.8009
  150SAPE  C31816687   0.033   1.358   8.586  0.0686 -0.1604 -0.1520
  150SAPE  H18X16688  -0.072   1.327   8.566  0.1431 -1.9236  2.0099
  150SAPE  H18Y16689   0.055   1.289   8.670 -0.9776 -2.0659 -1.3969
  150SAPE  H18Z16690   0.089   1.345   8.491 -0.7189 -1.2431 -0.4721
  151SAPE     N16691   4.335   4.565  10.358 -0.3868 -0.5100 -0.3082
  151SAPE   HN116692   4.283   4.536  10.272 -0.0330 -1.5161 -0.1884
  151SAPE   HN216693   4.277   4.538  10.439  1.6357 -1.4560  0.8712
  151SAPE   HN316694   4.352   4.667  10.359 -1.9756 -0.2241 -1.2998
  151SAPE   C1216695   4.475   4.522  10.369  0.1582 -0.1343  0.5399
  151SAPE  H12A16696   4.531   4.570  10.286 -1.8765  1.3017 -0.0370
  151SAPE  H12B16697   4.477   4.416  10.334 -0.9908 -0.4746  1.4898
  151SAPE   C1116698   4.524   4.556  10.512 -0.7967  0.2315 -0.6842
  151SAPE  H11A16699   4.630   4.529  10.530 -1.3323 -0.8084  1.0292
  151SAPE  H11B16700   4.457   4.496  10.577  0.8223 -0.6256  0.2120
  151SAPE     P16701   4.607   4.807  10.502 -0.3313 -0.2386  0.3861
  151SAPE   O1316702   4.551   4.937  10.552  0.1921  0.2501 -0.3866
  151SAPE   O1416703   4.740   4.766  10.556 -0.4414 -0.2726  0.1468
  151SAPE   O1216704   4.502   4.694  10.539  0.2053 -0.8413  0.3497
  151SAPE   O1116705   4.596   4.803  10.343  0.1199 -0.8644 -0.3666
  151SAPE    C116706   4.702   4.854  10.263  0.5287  0.0315  0.3156
  151SAPE    HA16707   4.800   4.866  10.315  0.0338 -0.3478  1.3506
  151SAPE    HB16708   4.710   4.778  10.182 -0.3608 -0.5327  0.7515
  151SAPE    C216709   4.667   4.996  10.206  0.3538 -0.2768  0.5383
  151SAPE    HS16710   4.646   5.065  10.291  0.1375  0.7144 -0.3044
  151SAPE   O2116711   4.541   4.985  10.124  0.0854  0.1511  0.3194
  151SAPE   C2116712   4.479   5.099  10.096  0.3352 -0.3984  0.1636
  151SAPE   O2216713   4.504   5.206  10.138 -0.3215  0.6759 -0.1003
  151SAPE   C2216714   4.368   5.075   9.993 -0.3666 -0.2132  0.1726
  151SAPE   H2R16715   4.362   4.966   9.973  1.4022 -0.6688  2.0208
  151SAPE   H2S16716   4.275   5.110  10.041 -0.8257 -0.7743 -0.2948
  151SAPE    C316717   4.789   5.043  10.113  1.0663  0.2719  0.2322
  151SAPE    HX16718   4.864   5.042  10.195  0.7419  1.5891  0.5626
  151SAPE    HY16719   4.773   5.147  10.077  1.2883  0.7099  1.4003
  151SAPE   O3116720   4.820   4.950  10.016  0.1869 -0.3966  0.4294
  151SAPE   C3116721   4.765   4.978   9.894  0.3787 -0.0199  0.5529
  151SAPE   O3216722   4.691   5.073   9.877 -0.2704  0.1174 -0.1928
  151SAPE   C3216723   4.796   4.875   9.788 -0.0797 -0.6246 -0.5838
  151SAPE   H2X16724   4.737   4.784   9.811  1.4940 -1.7127 -0.7605
  151SAPE   H2Y16725   4.899   4.835   9.788 -0.4271 -1.5229 -0.9321
  151SAPE   C2316726   4.398   5.155   9.862  0.3134 -0.2175  0.8671
  151SAPE   H3R16727   4.470   5.107   9.793 -2.0992 -1.2734 -0.9952
  151SAPE   H3S16728   4.446   5.251   9.891  0.2960  0.4242 -1.2018
  151SAPE   C2416729   4.263   5.199   9.791 -0.7642  0.6735  0.4062
  151SAPE   H4R16730   4.290   5.290   9.733 -1.8616 -0.0365 -1.2688
  151SAPE   H4S16731   4.181   5.221   9.863  0.9410 -0.7291  2.8345
  151SAPE   C2516732   4.229   5.086   9.697 -0.0788  0.0199  0.1540
  151SAPE   H5R16733   4.229   4.993   9.755 -0.5483 -0.4998 -0.6659
  151SAPE   C2616734   4.197   5.094   9.567 -0.4598 -0.3531  0.6235
  151SAPE   H6R16735   4.167   5.002   9.515 -0.7317  0.2689 -0.3334
  151SAPE   C2716736   4.198   5.221   9.486  0.6606  0.7803  0.0777
  151SAPE   H7R16737   4.196   5.312   9.550 -0.6712  0.0162  1.1367
  151SAPE   H7S16738   4.093   5.238   9.456 -0.0734 -0.9387  1.6194
  151SAPE   C2816739   4.298   5.261   9.375  0.6084 -0.7620  0.4106
  151SAPE   H8R16740   4.360   5.349   9.398 -0.4545  0.3664 -0.9379
  151SAPE   C2916741   4.305   5.210   9.250 -0.2722  0.3969  0.3887
  151SAPE   H9R16742   4.382   5.252   9.183  0.8213 -1.0842  0.6984
  151SAPE  C21016743   4.216   5.100   9.191 -0.2955 -0.1937  0.0107
  151SAPE  H10R16744   4.163   5.054   9.277 -0.8420  0.8232  0.2228
  151SAPE  H10S16745   4.282   5.019   9.154  0.5968 -0.3076  1.7912
  151SAPE  C21116746   4.119   5.135   9.080  0.1075  0.1271 -0.1789
  151SAPE  H11R16747   4.018   5.154   9.118 -0.3376 -1.4951 -0.5033
  151SAPE  C21216748   4.153   5.143   8.948 -0.5908 -0.4286 -0.2782
  151SAPE  H12R16749   4.080   5.162   8.868  0.3307 -0.2813 -1.0901
  151SAPE  C21316750   4.294   5.132   8.905  0.1781 -0.2705 -0.4300
  151SAPE  H13R16751   4.367   5.170   8.979 -1.4012 -0.4739  1.2575
  151SAPE  H13S16752   4.316   5.196   8.817  0.2417  2.0405  1.2248
  151SAPE  C21416753   4.304   4.987   8.862 -0.2334  0.5206 -0.3885
  151SAPE  H14R16754   4.277   4.916   8.942 -1.0847  1.8078  0.4752
  151SAPE  C21516755   4.348   4.934   8.741 -0.3937  0.1004  0.4298
  151SAPE  H15R16756   4.337   4.827   8.720 -0.0655  0.2977 -0.7785
  151SAPE  C21616757   4.394   5.017   8.620  0.0053 -0.0064  0.0984
  151SAPE  H16R16758   4.505   5.022   8.620 -0.0217  0.7017 -0.4160
  151SAPE  H16S16759   4.353   5.120   8.613  0.7579  0.2302 -0.9553
  151SAPE  C21716760   4.352   4.955   8.486  0.1231 -0.3047  0.3417
  151SAPE  H17R16761   4.382   4.849   8.490 -0.0510 -0.3823 -0.2881
  151SAPE  H17S16762   4.401   5.011   8.403 -0.4529 -1.4374 -0.7869
  151SAPE  C21816763   4.202   4.964   8.462  0.2634 -0.0251 -0.2092
  151SAPE  H18R16764   4.139   4.940   8.551 -1.7979  1.8367 -1.1349
  151SAPE  H18S16765   4.175   4.900   8.375  0.8601 -1.1770  0.4442
  151SAPE  C21916766   4.139   5.087   8.414  0.2284  0.1524  0.2329
  151SAPE  H19R16767   4.153   5.174   8.482  0.2063 -0.7163  1.3623
  151SAPE  H19S16768   4.029   5.074   8.407  0.4185 -2.6015  1.7449
  151SAPE  C22016769   4.179   5.127   8.266  0.3446 -0.3410  0.0438
  151SAPE  H20R16770   4.283   5.158   8.246  0.5997 -1.6796 -0.7032
  151SAPE  H20S16771   4.125   5.223   8.247  0.7905  0.4900  2.6896
  151SAPE  H20T16772   4.149   5.042   8.201  0.0509  0.3023 -0.6711
  151SAPE   C3316773   4.777   4.926   9.641 -0.3859  0.9461 -0.5676
  151SAPE   H3X16774   4.816   5.029   9.628  0.4154  0.6775 -0.2951
  151SAPE   H3Y16775   4.668   4.941   9.626 -0.8432 -0.1026  1.5383
  151SAPE   C3416776   4.823   4.829   9.535  0.3224  0.4787  0.2065
  151SAPE   H4X16777   4.767   4.733   9.541  0.5097  0.4401  1.4098
  151SAPE   H4Y16778   4.933   4.815   9.534  0.0727 -1.7655 -2.1018
  151SAPE   C3516779   4.797   4.886   9.392 -0.1315  0.3836  0.4824
  151SAPE   H5X16780   4.853   4.982   9.381  0.7829 -0.2262 -0.3002
  151SAPE   H5Y16781   4.687   4.899   9.396 -0.4323 -1.2901 -1.2990
  151SAPE   C3616782   4.824   4.781   9.283 -0.1265  0.7418  0.1617
  151SAPE   H6X16783   4.739   4.710   9.272  1.1554 -0.1398 -5.2891
  151SAPE   H6Y16784   4.908   4.711   9.303 -0.2896  0.4680 -0.1086
  151SAPE   C3716785   4.845   4.836   9.143 -0.6729  0.3172  0.1405
  151SAPE   H7X16786   4.835   4.748   9.076  1.5512  0.4057 -0.3649
  151SAPE   H7Y16787   4.951   4.868   9.130 -0.5048  0.7703  2.4128
  151SAPE   C3816788   4.735   4.937   9.101  0.9757 -0.7989  0.1643
  151SAPE   H8X16789   4.749   5.027   9.166 -0.5426 -0.6476  0.2971
  151SAPE   H8Y16790   4.642   4.887   9.135  0.6324  0.8125  1.7235
  151SAPE   C3916791   4.734   4.965   8.944  0.3231 -0.7393 -0.0701
  151SAPE   H9X16792   4.650   5.036   8.925  0.8153  0.7337  2.8935
  151SAPE   H9Y16793   4.711   4.868   8.897 -2.2303  0.6252 -1.7423
  151SAPE  C31016794   4.862   5.034   8.898 -1.0667  0.5745 -0.1709
  151SAPE  H10X16795   4.941   4.960   8.926 -0.7748  0.8940 -0.1424
  151SAPE  H10Y16796   4.884   5.135   8.939 -2.9669 -0.1973  2.8909
  151SAPE  C31116797   4.855   5.048   8.746  0.7641  0.6039  0.1062
  151SAPE  H11X16798   4.765   5.106   8.717  0.4450 -0.0659 -0.2639
  151SAPE  H11Y16799   4.861   4.948   8.696  3.2302  0.9463 -0.3411
  151SAPE  C31216800   4.976   5.120   8.685 -0.7872 -0.3083  1.4943
  151SAPE  H12X16801   5.065   5.055   8.696 -0.0494  0.4842  0.2919
  151SAPE  H12Y16802   4.995   5.217   8.735 -0.4571  1.0735 -1.2314
  151SAPE  C31316803   4.966   5.157   8.532 -0.2750  0.5125  0.0928
  151SAPE  H13X16804   4.859   5.152   8.501 -0.1924  2.3845 -0.5347
  151SAPE  H13Y16805   5.016   5.078   8.472 -1.3665 -0.2623  0.1779
  151SAPE  C31416806   5.019   5.297   8.504 -0.1701 -0.2976  0.1247
  151SAPE  H14X16807   5.128   5.311   8.517  0.1427  0.4076 -2.8218
  151SAPE  H14Y16808   4.973   5.381   8.560  0.4917  0.2490 -0.1432
  151SAPE  C31516809   5.006   5.335   8.357 -0.2774  0.2071  0.3035
  151SAPE  H15X16810   4.904   5.372   8.331  0.4619  0.3968 -2.4211
  151SAPE  H15Y16811   5.025   5.249   8.289 -0.7211  1.6107 -1.6466
  151SAPE  C31616812   5.110   5.441   8.320  0.0747 -0.6709  0.0629
  151SAPE  H16X16813   5.209   5.398   8.346 -0.8164 -1.9062  1.5266
  151SAPE  H16Y16814   5.091   5.535   8.375  0.8472 -0.4107 -0.1179
  151SAPE  C31716815   5.111   5.465   8.168  0.8273 -0.0770  0.4404
  151SAPE  H17X16816   5.016   5.518   8.147  1.3498  1.1696  1.1563
  151SAPE  H17Y16817   5.131   5.365   8.125  1.8093 -0.1620  1.0862
  151SAPE  C31816818   5.219   5.560   8.142  0.5733  0.5646 -0.1313
  151SAPE  H18X16819   5.320   5.528   8.176  1.0529  4.0954  1.9960
  151SAPE  H18Y16820   5.206   5.658   8.193 -1.3374  0.2794 -0.0523
  151SAPE  H18Z16821   5.224   5.582   8.033  0.3523  1.3673  0.0216
  152SAPE     N16822   5.626   4.557  10.838  0.0328  0.4637  0.3697
  152SAPE   HN116823   5.539   4.502  10.823  0.9177 -0.4517 -1.5626
  152SAPE   HN216824   5.696   4.502  10.892 -1.5580 -0.0676  1.9233
  152SAPE   HN316825   5.613   4.649  10.884 -0.1308  0.4125  0.4281
  152SAPE   C1216826   5.685   4.587  10.695  0.0040 -0.2947  0.4133
  152SAPE  H12A16827   5.624   4.669  10.649  0.6305 -1.6000 -2.8946
  152SAPE  H12B16828   5.667   4.494  10.638 -1.0634 -1.0163  1.9012
  152SAPE   C1116829   5.836   4.627  10.698 -0.1130  0.1972 -0.7132
  152SAPE  H11A16830   5.873   4.621  10.594 -2.2898  2.2300 -1.6390
  152SAPE  H11B16831   5.893   4.541  10.740  0.8012  0.4168 -1.5021
  152SAPE     P16832   5.831   4.878  10.706  0.2261 -0.4925  0.7557
  152SAPE   O1316833   5.681   4.886  10.685  0.6297 -0.2011  0.5006
  152SAPE   O1416834   5.893   4.987  10.777  0.3315 -0.0397 -0.0794
  152SAPE   O1216835   5.862   4.748  10.774 -0.2661  0.3283  0.0378
  152SAPE   O1116836   5.896   4.874  10.563  0.0376  0.4447  0.1559
  152SAPE    C116837   6.037   4.859  10.541 -0.8441 -0.3614  0.3946
  152SAPE    HA16838   6.086   4.937  10.603 -0.2388  0.5208 -1.1573
  152SAPE    HB16839   6.081   4.763  10.575  1.2689  0.4943  0.1449
  152SAPE    C216840   6.071   4.881  10.390  0.2954  0.2176  0.2839
  152SAPE    HS16841   6.157   4.815  10.365 -0.4773 -0.4622 -0.6341
  152SAPE   O2116842   6.097   5.021  10.361 -0.2227 -0.0457  0.3798
  152SAPE   C2116843   6.173   5.049  10.266  0.3943 -0.1425 -0.0365
  152SAPE   O2216844   6.232   4.974  10.188 -0.5162  0.2478  0.0513
  152SAPE   C2216845   6.192   5.195  10.268 -0.4112 -0.2480  0.4490
  152SAPE   H2R16846   6.142   5.241  10.356 -0.9719  0.2783 -0.1423
  152SAPE   H2S16847   6.301   5.208  10.281 -0.3260 -0.3249 -0.1969
  152SAPE    C316848   5.953   4.822  10.307  0.0894 -0.7735 -0.2023
  152SAPE    HX16849   5.857   4.871  10.331  0.3884  0.1605 -0.9032
  152SAPE    HY16850   5.951   4.719  10.348 -4.6075 -0.8071 -0.3149
  152SAPE   O3116851   5.979   4.821  10.168  0.2694  0.0520  0.0619
  152SAPE   C3116852   6.052   4.718  10.133  0.4418 -0.7896 -0.1646
  152SAPE   O3216853   6.106   4.633  10.202  0.5131 -0.5222 -0.0800
  152SAPE   C3216854   6.049   4.709   9.984 -0.5818  0.0055 -0.2368
  152SAPE   H2X16855   6.151   4.750   9.964 -0.2862 -0.5591  0.0906
  152SAPE   H2Y16856   5.964   4.773   9.953 -1.7256 -0.8173  1.0918
  152SAPE   C2316857   6.135   5.271  10.143 -0.7232 -0.3374  0.3822
  152SAPE   H3R16858   6.025   5.278  10.154 -0.6152  1.5391  0.3303
  152SAPE   H3S16859   6.167   5.214  10.053  2.7444  0.9041  0.7400
  152SAPE   C2416860   6.185   5.419  10.130  0.1196  0.2466 -0.4083
  152SAPE   H4R16861   6.154   5.476  10.220 -1.2986 -0.7716 -0.2387
  152SAPE   H4S16862   6.115   5.446  10.047 -2.6610 -0.9798  1.4508
  152SAPE   C2516863   6.324   5.453  10.088 -0.2160 -0.1039 -0.4845
  152SAPE   H5R16864   6.396   5.443  10.169 -0.2117 -0.5345 -0.5431
  152SAPE   C2616865   6.376   5.493   9.966  0.2004 -0.1698 -0.5079
  152SAPE   H6R16866   6.485   5.497   9.966  0.1505  2.0084  0.9855
  152SAPE   C2716867   6.298   5.511   9.840 -0.3612 -0.1238  0.5006
  152SAPE   H7R16868   6.190   5.523   9.863  0.0639  2.4097  1.2848
  152SAPE   H7S16869   6.305   5.416   9.782  0.9113 -0.7911  1.7335
  152SAPE   C2816870   6.339   5.626   9.753 -0.4024  0.4311 -0.6244
  152SAPE   H8R16871   6.397   5.704   9.805 -0.9597 -0.9923  2.2414
  152SAPE   C2916872   6.312   5.654   9.621 -0.0542  0.1080 -0.3881
  152SAPE   H9R16873   6.359   5.744   9.578 -0.6211  0.5852 -0.0268
  152SAPE  C21016874   6.234   5.572   9.526  0.4169  0.1469  0.1672
  152SAPE  H10R16875   6.163   5.513   9.587  1.1790 -1.0379 -0.0819
  152SAPE  H10S16876   6.301   5.502   9.471  1.6388  1.8776 -0.6013
  152SAPE  C21116877   6.152   5.651   9.428  0.1452  0.6244 -0.1853
  152SAPE  H11R16878   6.051   5.675   9.463  0.6514  0.3453  1.5059
  152SAPE  C21216879   6.191   5.704   9.313 -0.4584 -0.6196 -0.4680
  152SAPE  H12R16880   6.122   5.761   9.249 -1.1042  0.9695  1.5738
  152SAPE  C21316881   6.330   5.695   9.262  0.3920 -0.2185 -0.0963
  152SAPE  H13R16882   6.396   5.656   9.342  2.8320  4.5019  0.4086
  152SAPE  H13S16883   6.376   5.796   9.249  0.2632 -0.1432  0.0310
  152SAPE  C21416884   6.357   5.621   9.132  0.0293  0.5685  0.5870
  152SAPE  H14R16885   6.388   5.517   9.147  0.2834  0.5110 -0.3468
  152SAPE  C21516886   6.336   5.681   9.011  0.6050 -0.2361 -0.1831
  152SAPE  H15R16887   6.356   5.619   8.922  0.9518 -1.0951  0.4795
  152SAPE  C21616888   6.274   5.816   8.974 -0.9345  0.6106 -0.2617
  152SAPE  H16R16889   6.361   5.869   8.932 -1.0189  1.2399  0.3440
  152SAPE  H16S16890   6.244   5.867   9.069  2.7554  0.9632  0.7890
  152SAPE  C21716891   6.145   5.813   8.882  0.1776  0.7066  0.2060
  152SAPE  H17R16892   6.122   5.920   8.864  2.4775  1.2347  0.2210
  152SAPE  H17S16893   6.051   5.768   8.918 -0.8560  1.0278 -2.0405
  152SAPE  C21816894   6.169   5.734   8.745  0.4301  0.3008 -0.5041
  152SAPE  H18R16895   6.174   5.624   8.762  0.3333  0.5360  1.1163
  152SAPE  H18S16896   6.262   5.756   8.690 -0.0609  0.2110 -1.3692
  152SAPE  C21916897   6.056   5.747   8.651  0.0469  0.1007  0.3885
  152SAPE  H19R16898   6.040   5.855   8.631 -1.1259 -0.1878 -0.2518
  152SAPE  H19S16899   5.962   5.705   8.694 -0.3746  0.3093 -0.3188
  152SAPE  C22016900   6.085   5.683   8.524 -0.1928  0.3088 -1.0882
  152SAPE  H20R16901   6.083   5.573   8.533 -0.1118  0.4044  0.3306
  152SAPE  H20S16902   6.182   5.721   8.484 -0.1550  1.0397 -0.3286
  152SAPE  H20T16903   6.000   5.709   8.458  1.8070  1.1265 -3.3939
  152SAPE   C3316904   6.031   4.570   9.928  0.6471 -0.3785 -0.3350
  152SAPE   H3X16905   5.927   4.538   9.954 -0.0239  0.4748 -1.9011
  152SAPE   H3Y16906   6.104   4.500   9.973  1.0870 -0.1504 -0.6993
  152SAPE   C3416907   6.033   4.562   9.776  0.1889  0.1034 -0.0989
  152SAPE   H4X16908   6.121   4.619   9.740  1.0055 -0.7266  0.5632
  152SAPE   H4Y16909   5.942   4.614   9.737  1.7504  1.7987 -1.5710
  152SAPE   C3516910   6.039   4.422   9.725  0.2462 -0.6234  0.7854
  152SAPE   H5X16911   5.949   4.366   9.757  0.0848 -1.7528 -1.5426
  152SAPE   H5Y16912   6.131   4.369   9.756  2.3621  1.3039 -1.9403
  152SAPE   C3616913   6.046   4.424   9.570 -0.0735  0.4643 -0.8958
  152SAPE   H6X16914   6.134   4.486   9.542  0.3782  0.0365 -0.4125
  152SAPE   H6Y16915   5.954   4.474   9.532 -0.2940  0.6642 -0.1233
  152SAPE   C3716916   6.051   4.287   9.504  0.3975 -0.1528  0.4546
  152SAPE   H7X16917   5.954   4.238   9.529  0.1237  0.3857  0.4365
  152SAPE   H7Y16918   6.133   4.230   9.554 -0.1142 -1.4026 -0.1057
  152SAPE   C3816919   6.070   4.294   9.354  0.3256 -0.3541 -0.1134
  152SAPE   H8X16920   6.176   4.311   9.325  0.2607  1.7112  0.7623
  152SAPE   H8Y16921   6.010   4.379   9.315 -1.5109 -1.7278 -0.3618
  152SAPE   C3916922   6.037   4.163   9.287 -0.3579 -0.1843 -0.3918
  152SAPE   H9X16923   5.938   4.132   9.326  0.1858  0.4714  1.5767
  152SAPE   H9Y16924   6.107   4.088   9.330  1.8062  2.7946  1.5559
  152SAPE  C31016925   6.034   4.165   9.138  0.3027 -0.0882 -0.1175
  152SAPE  H10X16926   6.134   4.179   9.093  0.2649  0.9515  0.1200
  152SAPE  H10Y16927   5.960   4.244   9.110 -0.9787 -0.8007  1.1674
  152SAPE  C31116928   5.979   4.034   9.075 -0.0977  0.2329  0.7163
  152SAPE  H11X16929   5.874   4.013   9.102 -0.7441  0.4052 -1.5509
  152SAPE  H11Y16930   6.040   3.948   9.110  1.5068  1.2094  0.3570
  152SAPE  C31216931   5.994   4.029   8.924  0.5019  0.2657  0.1579
  152SAPE  H12X16932   6.099   4.012   8.890 -0.6868 -2.9254 -2.2157
  152SAPE  H12Y16933   5.932   4.111   8.883 -2.4092 -0.3407  3.1486
  152SAPE  C31316934   5.921   3.905   8.873 -0.3704 -0.6907 -0.7134
  152SAPE  H13X16935   5.815   3.920   8.899 -0.0270 -1.6690  1.3304
  152SAPE  H13Y16936   5.949   3.825   8.945 -0.5236  0.1459  0.2791
  152SAPE  C31416937   5.929   3.870   8.721 -0.3083 -0.1601  0.5409
  152SAPE  H14X16938   6.032   3.880   8.682 -0.0224  0.8114  1.5302
  152SAPE  H14Y16939   5.868   3.949   8.673  3.1752  2.4944  0.2746
  152SAPE  C31516940   5.896   3.722   8.683  0.1278 -0.9150  0.6974
  152SAPE  H15X16941   5.790   3.710   8.713  0.0184  1.7918  1.5639
  152SAPE  H15Y16942   5.946   3.643   8.742  1.0206 -1.0090 -0.1735
  152SAPE  C31616943   5.924   3.681   8.538  0.5015  0.2065 -0.2790
  152SAPE  H16X16944   6.032   3.682   8.512  0.5101 -0.2531 -0.2659
  152SAPE  H16Y16945   5.862   3.752   8.479 -1.6264  0.6141  2.3073
  152SAPE  C31716946   5.858   3.543   8.513  0.8461  0.1212 -0.2622
  152SAPE  H17X16947   5.749   3.560   8.528  0.4569  1.6523 -4.2711
  152SAPE  H17Y16948   5.887   3.474   8.595 -1.6596  0.4410  0.9514
  152SAPE  C31816949   5.883   3.481   8.374  0.7865  0.4767 -0.1441
  152SAPE  H18X16950   5.859   3.541   8.284 -0.0831  0.9096  0.3700
  152SAPE  H18Y16951   5.828   3.385   8.364  0.5982  0.4092  1.5120
  152SAPE  H18Z16952   5.990   3.463   8.352  0.6063  1.5753 -2.0580
  153SAPE     N16953   5.862   6.516  10.818  0.3574 -0.6709 -0.8072
  153SAPE   HN116954   5.935   6.509  10.892 -0.6985  0.0009  0.3022
  153SAPE   HN216955   5.816   6.608  10.832  1.2244 -0.0796 -1.7254
  153SAPE   HN316956   5.786   6.449  10.840  0.1913 -0.7377 -1.5635
  153SAPE   C1216957   5.910   6.473  10.678  0.0773  0.2903  0.0877
  153SAPE  H12A16958   5.983   6.547  10.638  1.2771 -0.6089  0.6025
  153SAPE  H12B16959   5.819   6.479  10.614  1.0070  0.4768 -1.2204
  153SAPE   C1116960   5.985   6.336  10.664 -0.2550 -0.2082 -0.3053
  153SAPE  H11A16961   6.082   6.364  10.712 -1.8381  2.6885  1.3060
  153SAPE  H11B16962   6.009   6.311  10.558  0.0594 -0.2216 -0.2323
  153SAPE     P16963   5.784   6.173  10.713  0.3434  0.1126 -0.1402
  153SAPE   O1316964   5.774   6.056  10.807  0.0470 -1.3582  0.3289
  153SAPE   O1416965   5.692   6.288  10.737  0.0770  0.1158  0.2847
  153SAPE   O1216966   5.926   6.232  10.736  0.2235  0.1664 -0.1458
  153SAPE   O1116967   5.769   6.137  10.558  0.4902  0.0199  0.0815
  153SAPE    C116968   5.814   6.016  10.502  0.5025 -0.0904 -0.2928
  153SAPE    HA16969   5.887   5.970  10.573  0.5050  2.6113  1.5764
  153SAPE    HB16970   5.729   5.946  10.493 -0.9456  1.2846  2.0736
  153SAPE    C216971   5.877   6.031  10.365  0.7861 -0.3896 -0.4136
  153SAPE    HS16972   5.897   5.930  10.322 -3.8418 -1.2143 -0.8781
  153SAPE   O2116973   5.989   6.122  10.385 -0.1230  0.1990 -0.0959
  153SAPE   C2116974   6.082   6.097  10.289 -0.2450 -0.2397  0.1272
  153SAPE   O2216975   6.075   6.009  10.207  0.2730 -0.4295  0.5945
  153SAPE   C2216976   6.189   6.209  10.299 -0.1442  0.0302  0.3484
  153SAPE   H2R16977   6.144   6.306  10.268 -1.4423 -0.8544 -0.5823
  153SAPE   H2S16978   6.223   6.219  10.404  0.4158  0.5759  0.1198
  153SAPE    C316979   5.769   6.104  10.274  0.3695 -0.0662 -0.0473
  153SAPE    HX16980   5.756   6.207  10.314 -3.2309 -0.6024  0.3158
  153SAPE    HY16981   5.671   6.054  10.292 -0.6447  1.4055 -1.3249
  153SAPE   O3116982   5.805   6.121  10.129  0.0468 -0.6219 -0.4906
  153SAPE   C3116983   5.767   6.022  10.056 -0.2637 -0.6672  0.3862
  153SAPE   O3216984   5.699   5.926  10.094 -0.3421 -0.0023  0.2009
  153SAPE   C3216985   5.820   6.039   9.914 -0.1619  0.1503  0.4928
  153SAPE   H2X16986   5.914   5.981   9.903 -0.1894  0.2652 -0.3385
  153SAPE   H2Y16987   5.845   6.145   9.891 -0.4775 -0.0890 -0.9832
  153SAPE   C2316988   6.318   6.183  10.213 -0.1222  0.2197 -0.7230
  153SAPE   H3R16989   6.352   6.078  10.225  1.4651  0.8139  0.1598
  153SAPE   H3S16990   6.408   6.240  10.246 -1.9276  1.9564  1.4166
  153SAPE   C2416991   6.282   6.221  10.063 -0.1432 -0.3360 -0.1046
  153SAPE   H4R16992   6.249   6.326  10.081 -1.7330 -1.0317  1.2374
  153SAPE   H4S16993   6.194   6.165  10.023 -0.4194 -0.3263  0.4847
  153SAPE   C2516994   6.396   6.220   9.966  0.3170 -0.4059 -0.3713
  153SAPE   H5R16995   6.486   6.243  10.025  1.3125 -0.7953 -1.7154
  153SAPE   C2616996   6.394   6.197   9.835  0.1172  0.2783  0.3807
  153SAPE   H6R16997   6.491   6.205   9.784  0.0443  2.1137  0.5056
  153SAPE   C2716998   6.268   6.176   9.755 -0.6085  0.0726  0.6584
  153SAPE   H7R16999   6.269   6.271   9.699 -2.7596 -0.4191 -0.2945
  153SAPE   H7S17000   6.174   6.170   9.814 -0.3761 -2.4545  0.8474
  153SAPE   C2817001   6.268   6.058   9.658  0.5131 -0.4180  0.1612
  153SAPE   H8R17002   6.302   5.965   9.706  0.2340 -0.0047  1.1818
  153SAPE   C2917003   6.230   6.065   9.535  0.4285 -0.3911  0.1589
  153SAPE   H9R17004   6.230   5.975   9.472 -0.2520  0.8839 -1.7137
  153SAPE  C21017005   6.158   6.188   9.475 -0.1566 -0.1291  0.2476
  153SAPE  H10R17006   6.091   6.232   9.552 -1.0548  0.4491 -0.8465
  153SAPE  H10S17007   6.097   6.142   9.394  0.5733 -3.0113  1.2970
  153SAPE  C21117008   6.242   6.299   9.416 -0.3209 -0.2617  0.1995
  153SAPE  H11R17009   6.254   6.381   9.489 -1.5443  0.5142 -0.4480
  153SAPE  C21217010   6.308   6.297   9.306  1.0290 -0.2910  0.3557
  153SAPE  H12R17011   6.360   6.387   9.270 -0.9937  0.5261 -0.6275
  153SAPE  C21317012   6.313   6.190   9.212  0.4955 -0.6429 -0.2009
  153SAPE  H13R17013   6.278   6.212   9.109 -1.8103  0.4174  0.7700
  153SAPE  H13S17014   6.242   6.107   9.235 -1.9244  1.5320  0.4927
  153SAPE  C21417015   6.449   6.132   9.201 -0.2044 -0.9939 -0.9880
  153SAPE  H14R17016   6.487   6.097   9.298 -1.5891 -0.3353 -0.1866
  153SAPE  C21517017   6.532   6.141   9.095 -0.7923  0.5133 -0.2467
  153SAPE  H15R17018   6.630   6.090   9.099 -0.1823  1.7853  4.0896
  153SAPE  C21617019   6.498   6.204   8.962 -0.1126 -0.1640  0.1810
  153SAPE  H16R17020   6.585   6.271   8.940 -1.0763  0.6802 -1.1369
  153SAPE  H16S17021   6.406   6.264   8.975  0.4049  1.3731 -2.7337
  153SAPE  C21717022   6.465   6.108   8.846 -0.3341 -0.2380  0.7185
  153SAPE  H17R17023   6.444   6.165   8.752  1.9759  0.0805  0.3855
  153SAPE  H17S17024   6.371   6.058   8.880 -0.2848  0.1116  1.3610
  153SAPE  C21817025   6.568   5.998   8.818 -0.1095  0.5030 -0.3290
  153SAPE  H18R17026   6.588   5.949   8.916  1.9151  0.0831 -0.9483
  153SAPE  H18S17027   6.667   6.044   8.800  0.3861 -0.4782 -0.1278
  153SAPE  C21917028   6.521   5.893   8.713  0.2915  0.1101  0.6456
  153SAPE  H19R17029   6.416   5.917   8.689  0.7571  0.0800 -1.5005
  153SAPE  H19S17030   6.532   5.794   8.762  0.1681  1.6206  3.9210
  153SAPE  C22017031   6.593   5.898   8.581 -0.0315 -0.3824  0.2889
  153SAPE  H20R17032   6.531   5.849   8.502 -0.0104  0.0684 -0.0050
  153SAPE  H20S17033   6.695   5.852   8.590  0.9400  2.2255  3.5592
  153SAPE  H20T17034   6.609   6.005   8.556  0.3418 -0.8705 -1.6967
  153SAPE   C3317035   5.708   5.984   9.817  0.0565 -0.1181 -0.8820
  153SAPE   H3X17036   5.608   6.016   9.853 -0.1818 -1.3161 -0.4821
  153SAPE   H3Y17037   5.716   5.874   9.813 -2.8055 -0.4554  1.1179
  153SAPE   C3417038   5.740   6.035   9.671  0.2003 -0.4297 -0.6368
  153SAPE   H4X17039   5.851   6.034   9.668  0.2253  0.1718  0.1223
  153SAPE   H4Y17040   5.711   6.141   9.656 -0.6189 -0.5684 -0.0781
  153SAPE   C3517041   5.688   5.944   9.563 -0.0543 -1.2769  0.0189
  153SAPE   H5X17042   5.579   5.954   9.546  0.0815  1.1301  0.3814
  153SAPE   H5Y17043   5.696   5.837   9.591  0.1030 -0.6498  2.5558
  153SAPE   C3617044   5.759   5.946   9.427 -0.1188  0.3335  0.5140
  153SAPE   H6X17045   5.696   5.887   9.357  0.7370 -0.3566  0.3272
  153SAPE   H6Y17046   5.860   5.901   9.420 -0.3540 -0.1456  0.1357
  153SAPE   C3717047   5.768   6.089   9.355 -0.0964 -0.4812 -0.1472
  153SAPE   H7X17048   5.832   6.152   9.421 -2.1330  0.7621  0.6930
  153SAPE   H7Y17049   5.663   6.121   9.342 -0.1543 -1.0912 -1.2081
  153SAPE   C3817050   5.838   6.075   9.217  0.0833  0.2499  0.4402
  153SAPE   H8X17051   5.771   6.018   9.149 -0.1946 -1.1677  1.8459
  153SAPE   H8Y17052   5.932   6.018   9.204 -0.9201 -0.9768 -1.5798
  153SAPE   C3917053   5.870   6.215   9.150  0.4175 -0.9827  0.2325
  153SAPE   H9X17054   5.973   6.250   9.177 -0.0115  0.7238 -0.2466
  153SAPE   H9Y17055   5.797   6.290   9.187  2.8165  0.8068  1.5499
  153SAPE  C31017056   5.866   6.215   8.995 -0.0958  0.2831 -0.2859
  153SAPE  H10X17057   5.780   6.163   8.947 -0.9035  1.1864  0.1738
  153SAPE  H10Y17058   5.958   6.165   8.957 -0.6862 -0.8540 -0.2337
  153SAPE  C31117059   5.875   6.360   8.939  0.3761 -0.2247 -0.0972
  153SAPE  H11X17060   5.974   6.403   8.965 -0.8281  1.3685  2.0000
  153SAPE  H11Y17061   5.789   6.424   8.970 -0.0202 -0.0022 -1.5927
  153SAPE  C31217062   5.865   6.348   8.788 -0.0161  0.0043  0.1687
  153SAPE  H12X17063   5.769   6.300   8.760  0.5228  0.3448 -2.3698
  153SAPE  H12Y17064   5.950   6.287   8.751 -1.3807 -0.2235 -2.7233
  153SAPE  C31317065   5.880   6.484   8.716  1.1552  0.4933  1.1129
  153SAPE  H13X17066   5.809   6.556   8.762 -2.5454 -0.9046 -2.1310
  153SAPE  H13Y17067   5.852   6.473   8.610 -1.6529 -1.9669  2.0372
  153SAPE  C31417068   6.024   6.542   8.713 -0.6076 -0.0622  0.4495
  153SAPE  H14X17069   6.097   6.463   8.742 -0.4970 -0.2597 -0.3468
  153SAPE  H14Y17070   6.039   6.619   8.792 -1.1452  0.7347 -0.2155
  153SAPE  C31517071   6.071   6.607   8.580  0.6713 -0.6391  0.0387
  153SAPE  H15X17072   6.016   6.702   8.565  1.1000 -0.4366 -0.2596
  153SAPE  H15Y17073   6.048   6.541   8.493  1.1532  1.7614 -2.0003
  153SAPE  C31617074   6.230   6.634   8.571  1.5013  0.7163 -0.2529
  153SAPE  H16X17075   6.288   6.540   8.578 -1.1668 -0.8698  1.2053
  153SAPE  H16Y17076   6.256   6.692   8.663  1.4439 -2.1048  1.5928
  153SAPE  C31717077   6.271   6.721   8.450 -0.2871  0.3105 -0.0231
  153SAPE  H17X17078   6.249   6.826   8.478  2.5356  0.1302  3.1853
  153SAPE  H17Y17079   6.213   6.701   8.357 -1.8390  1.1911  0.7530
  153SAPE  C31817080   6.421   6.726   8.430 -0.0627  1.2633  0.0407
  153SAPE  H18X17081   6.461   6.630   8.392 -1.1096  0.0165  1.9729
  153SAPE  H18Y17082   6.485   6.746   8.518  1.4625  1.8945 -1.1889
  153SAPE  H18Z17083   6.444   6.800   8.350  2.4351 -0.7777 -1.2065
  154SAPE     N17084   0.331   6.152  10.876 -0.6994  0.2665 -0.3945
  154SAPE   HN117085   0.293   6.056  10.889  0.5332 -0.2722 -0.7251
  154SAPE   HN217086   0.432   6.146  10.854 -1.0763 -2.0401 -1.7273
  154SAPE   HN317087   0.329   6.187  10.974  1.4933  0.6238 -0.4676
  154SAPE   C1217088   0.256   6.254  10.790 -0.0664 -0.2240  1.1974
  154SAPE  H12A17089   0.319   6.345  10.785  0.6517 -0.6247  2.8023
  154SAPE  H12B17090   0.165   6.290  10.842  0.2160 -0.5302  1.9076
  154SAPE   C1117091   0.216   6.199  10.653 -0.6324  1.1324 -0.7783
  154SAPE  H11A17092   0.305   6.168  10.593 -2.3253 -1.7693 -1.8682
  154SAPE  H11B17093   0.157   6.273  10.594 -0.1371  0.7039 -1.8331
  154SAPE     P17094  -0.019   6.085  10.683 -0.3164  0.1390  0.2261
  154SAPE   O1317095  -0.079   5.949  10.683 -0.2837  0.2839 -0.5093
  154SAPE   O1417096  -0.050   6.165  10.800  0.5014  0.1035 -0.3278
  154SAPE   O1217097   0.137   6.081  10.671  0.1931  0.0245  0.2351
  154SAPE   O1117098  -0.067   6.156  10.556  0.1280  0.1694  0.3259
  154SAPE    C117099  -0.102   6.099  10.432 -0.2968 -0.2514  0.7494
  154SAPE    HA17100  -0.116   5.990  10.443 -0.1096 -0.3516  0.0154
  154SAPE    HB17101  -0.203   6.135  10.402 -0.1252  0.3730  0.9022
  154SAPE    C217102   0.005   6.122  10.326 -0.5345  0.2340  0.1763
  154SAPE    HS17103  -0.021   6.078  10.227  0.4827  0.1492 -0.0598
  154SAPE   O2117104   0.141   6.088  10.374 -0.0458  0.0853 -0.0608
  154SAPE   C2117105   0.155   5.956  10.392  0.1970  0.3792 -0.5417
  154SAPE   O2217106   0.071   5.870  10.365 -0.1120  0.1909  0.4366
  154SAPE   C2217107   0.301   5.934  10.413 -0.1928  0.2300  0.1468
  154SAPE   H2R17108   0.345   6.036  10.412 -2.6900  1.3412 -0.0482
  154SAPE   H2S17109   0.305   5.892  10.516 -1.9493  1.7210  0.8500
  154SAPE    C317110   0.008   6.274  10.294 -0.5046  0.1534 -0.4352
  154SAPE    HX17111   0.048   6.322  10.386 -1.1626  0.1181 -0.1248
  154SAPE    HY17112  -0.100   6.299  10.282 -0.7533 -0.9047 -0.4230
  154SAPE   O3117113   0.095   6.307  10.191  0.2374 -0.8171 -0.1104
  154SAPE   C3117114   0.057   6.326  10.066  0.2277 -0.1238  0.0335
  154SAPE   O3217115  -0.050   6.315  10.020  1.0607 -0.4814 -0.4320
  154SAPE   C3217116   0.178   6.361   9.982 -0.4887  0.5805  0.3842
  154SAPE   H2X17117   0.254   6.288  10.018  0.4701  2.4867  2.3125
  154SAPE   H2Y17118   0.209   6.459  10.024 -1.2832 -0.4378  3.4536
  154SAPE   C2317119   0.364   5.840  10.314 -0.0883 -0.1899  0.3111
  154SAPE   H3R17120   0.319   5.742  10.340 -0.0597 -0.4332 -0.5478
  154SAPE   H3S17121   0.471   5.812  10.329  0.1721  0.0975 -0.9713
  154SAPE   C2417122   0.348   5.890  10.172 -0.2258  0.1451 -0.7274
  154SAPE   H4R17123   0.240   5.898  10.149  0.1888 -0.9321 -3.1561
  154SAPE   H4S17124   0.385   5.810  10.104  1.6740 -0.3220  0.7967
  154SAPE   C2517125   0.434   6.012  10.143  0.2930 -0.0054  0.2389
  154SAPE   H5R17126   0.497   6.053  10.223  1.3176 -0.1137 -0.4993
  154SAPE   C2617127   0.445   6.059  10.019  0.2046  0.4827  0.1754
  154SAPE   H6R17128   0.512   6.143   9.997 -0.8552  1.5955  1.2031
  154SAPE   C2717129   0.368   6.007   9.898  0.3553 -0.3546  0.1519
  154SAPE   H7R17130   0.351   6.085   9.821 -1.8305 -0.7465  0.2284
  154SAPE   H7S17131   0.262   5.995   9.926 -0.3365  1.2088 -1.7002
  154SAPE   C2817132   0.439   5.885   9.831  0.1779  1.1315 -0.3824
  154SAPE   H8R17133   0.497   5.827   9.904  1.3689  1.0953 -1.3387
  154SAPE   C2917134   0.433   5.839   9.705 -0.5029  0.1603  0.3931
  154SAPE   H9R17135   0.499   5.755   9.678 -0.5141  0.2901 -0.0383
  154SAPE  C21017136   0.348   5.904   9.591  0.0187 -0.0429 -0.3971
  154SAPE  H10R17137   0.269   5.972   9.630  0.3157 -0.0881  0.2995
  154SAPE  H10S17138   0.289   5.824   9.542 -0.5566  1.7391 -2.7013
  154SAPE  C21117139   0.426   5.973   9.479 -0.5249 -0.6218 -0.3468
  154SAPE  H11R17140   0.410   6.082   9.475 -0.5497 -0.5241  1.9230
  154SAPE  C21217141   0.507   5.913   9.389  0.0041  0.2440 -0.0209
  154SAPE  H12R17142   0.552   5.980   9.314  2.0627  1.8787  2.5612
  154SAPE  C21317143   0.547   5.770   9.377 -0.0035 -0.2061  0.5055
  154SAPE  H13R17144   0.518   5.708   9.464  0.2527 -0.3371  0.4987
  154SAPE  H13S17145   0.657   5.753   9.382  0.0711  0.0684 -0.1031
  154SAPE  C21417146   0.490   5.710   9.256  0.1154 -0.0041 -0.4616
  154SAPE  H14R17147   0.398   5.649   9.269  0.4799 -0.4840 -0.0915
  154SAPE  C21517148   0.537   5.713   9.132  0.6428  0.3280  0.6329
  154SAPE  H15R17149   0.490   5.644   9.061  0.9803  0.6048  0.1322
  154SAPE  C21617150   0.663   5.783   9.084 -0.2947 -0.2228  0.2387
  154SAPE  H16R17151   0.730   5.707   9.037 -1.0171 -0.5647 -0.2539
  154SAPE  H16S17152   0.710   5.844   9.164 -0.0638  0.3097 -0.3027
  154SAPE  C21717153   0.630   5.886   8.977 -0.1375 -0.2203  0.0280
  154SAPE  H17R17154   0.714   5.952   8.949 -0.2753 -0.1747 -0.2893
  154SAPE  H17S17155   0.551   5.960   9.002 -0.0855  0.1189 -0.7838
  154SAPE  C21817156   0.579   5.826   8.850 -0.0851 -0.5545 -1.4298
  154SAPE  H18R17157   0.488   5.766   8.870 -0.0298  0.3559  1.8591
  154SAPE  H18S17158   0.665   5.765   8.816  0.3476 -1.8115  1.7641
  154SAPE  C21917159   0.557   5.940   8.750 -0.0127  0.0550  0.3819
  154SAPE  H19R17160   0.645   6.007   8.742  0.5616 -0.9773 -2.5317
  154SAPE  H19S17161   0.472   5.999   8.791  0.1730 -0.3991  1.4131
  154SAPE  C22017162   0.528   5.879   8.620 -0.0873 -0.9014  0.6803
  154SAPE  H20R17163   0.455   5.797   8.612  2.9587 -3.7676  1.2339
  154SAPE  H20S17164   0.617   5.829   8.576 -0.5864  0.9909 -2.7024
  154SAPE  H20T17165   0.491   5.956   8.548  0.0549  0.0662  1.6320
  154SAPE   C3317166   0.140   6.360   9.827  0.5423 -0.1134 -0.6392
  154SAPE   H3X17167   0.048   6.421   9.812  0.3459 -0.4080 -0.6409
  154SAPE   H3Y17168   0.106   6.258   9.798 -3.0581  0.8880 -0.2390
  154SAPE   C3417169   0.241   6.418   9.743 -0.3365 -0.7802  0.0465
  154SAPE   H4X17170   0.333   6.357   9.726  2.5835  3.6684 -1.2954
  154SAPE   H4Y17171   0.278   6.514   9.785 -0.7904 -0.1459 -0.9889
  154SAPE   C3517172   0.192   6.444   9.599  0.3789 -0.1197 -0.0246
  154SAPE   H5X17173   0.096   6.499   9.606  0.9428  0.7096  1.2642
  154SAPE   H5Y17174   0.163   6.342   9.564 -0.8489 -0.1925  1.1720
  154SAPE   C3617175   0.293   6.502   9.506  0.2497 -0.1124 -0.4505
  154SAPE   H6X17176   0.395   6.459   9.505  0.4404  0.3403 -0.6018
  154SAPE   H6Y17177   0.319   6.601   9.550  3.7859 -0.8123 -0.7846
  154SAPE   C3717178   0.252   6.512   9.361  0.2395 -0.0800 -0.8851
  154SAPE   H7X17179   0.172   6.589   9.362  0.4321  0.1263 -1.2767
  154SAPE   H7Y17180   0.204   6.419   9.321  0.4632 -0.2302 -0.8032
  154SAPE   C3817181   0.359   6.561   9.264 -0.4727 -0.7406  0.4254
  154SAPE   H8X17182   0.385   6.667   9.287  0.1721 -0.8415  0.1765
  154SAPE   H8Y17183   0.308   6.562   9.165 -1.3758 -0.4742  0.8853
  154SAPE   C3917184   0.487   6.487   9.257 -0.3092  0.1488 -0.8241
  154SAPE   H9X17185   0.467   6.378   9.256 -0.6766  0.2054  0.0356
  154SAPE   H9Y17186   0.543   6.507   9.350 -1.4559  0.4513 -0.1902
  154SAPE  C31017187   0.576   6.534   9.136  0.6795  0.4260 -0.0416
  154SAPE  H10X17188   0.685   6.515   9.146  0.5829  0.3458  0.8974
  154SAPE  H10Y17189   0.562   6.643   9.125  0.3278  0.4589  0.6485
  154SAPE  C31117190   0.538   6.453   9.008  0.1361  0.3547  0.1018
  154SAPE  H11X17191   0.432   6.465   8.977  0.1695  1.2588  0.3308
  154SAPE  H11Y17192   0.546   6.346   9.035 -3.0794  0.1220  0.3312
  154SAPE  C31217193   0.616   6.497   8.886  0.1865  0.1308 -0.2793
  154SAPE  H12X17194   0.724   6.514   8.901  0.6747 -2.5412 -0.4885
  154SAPE  H12Y17195   0.598   6.606   8.877 -0.9726  0.2093  2.6858
  154SAPE  C31317196   0.604   6.427   8.754 -0.4986  0.1914 -0.4259
  154SAPE  H13X17197   0.630   6.320   8.759 -2.0265 -0.1257  1.0273
  154SAPE  H13Y17198   0.681   6.474   8.689 -0.0345 -0.5138 -0.3857
  154SAPE  C31417199   0.469   6.448   8.686 -0.1150  0.0642  0.1262
  154SAPE  H14X17200   0.450   6.558   8.685  1.3813  0.4033  2.5023
  154SAPE  H14Y17201   0.387   6.408   8.749 -0.2462  1.9313  1.2037
  154SAPE  C31517202   0.469   6.398   8.541 -0.1635 -0.3697  0.4765
  154SAPE  H15X17203   0.365   6.399   8.501  0.0480  0.7731 -0.0716
  154SAPE  H15Y17204   0.507   6.294   8.530 -1.5725 -0.9586  1.1073
  154SAPE  C31617205   0.543   6.494   8.441  0.6357 -0.5924 -0.0669
  154SAPE  H16X17206   0.632   6.539   8.491 -0.1460  0.5578  0.3092
  154SAPE  H16Y17207   0.471   6.574   8.414  2.1274  0.7572 -0.1251
  154SAPE  C31717208   0.592   6.436   8.307 -0.0129 -0.1314 -0.1888
  154SAPE  H17X17209   0.667   6.355   8.320  0.6592  0.2848 -1.4142
  154SAPE  H17Y17210   0.655   6.519   8.270  0.4812  0.5080  2.0020
  154SAPE  C31817211   0.484   6.397   8.215  0.1849  0.2993 -0.4308
  154SAPE  H18X17212   0.418   6.316   8.253  2.7346 -1.6917 -0.1497
  154SAPE  H18Y17213   0.526   6.369   8.116 -2.0933  0.4693 -1.4780
  154SAPE  H18Z17214   0.422   6.488   8.198 -1.5219 -0.9742 -1.1897
  155SAPE     N17215   1.042   0.442  10.970 -0.0758  1.1764  0.6041
  155SAPE   HN117216   1.067   0.352  11.016  0.1383 -0.5438 -2.6946
  155SAPE   HN217217   1.067   0.434  10.869 -0.6411 -0.0849  0.5473
  155SAPE   HN317218   1.112   0.506  11.014  1.2593  1.7336 -2.2154
  155SAPE   C1217219   0.902   0.492  10.987 -0.1251  0.0648 -0.0468
  155SAPE  H12A17220   0.883   0.474  11.095  0.9834  1.1421  0.3364
  155SAPE  H12B17221   0.849   0.421  10.920 -0.6085 -0.4093  0.8278
  155SAPE   C1117222   0.886   0.635  10.939  0.4132  0.0807 -0.7555
  155SAPE  H11A17223   0.949   0.701  11.002 -1.4991  1.0285  0.1768
  155SAPE  H11B17224   0.779   0.659  10.956  0.2494 -0.9020 -0.3115
  155SAPE     P17225   0.905   0.769  10.713 -0.1326 -0.2728 -0.0901
  155SAPE   O1317226   0.788   0.848  10.772  0.1360  0.2135 -0.2168
  155SAPE   O1417227   1.035   0.841  10.691 -0.9894  0.2392 -0.0389
  155SAPE   O1217228   0.928   0.644  10.803 -0.2241  0.0890  0.2887
  155SAPE   O1117229   0.849   0.706  10.578 -0.1171 -0.0243 -0.3689
  155SAPE    C117230   0.913   0.594  10.509 -0.6137 -0.1277 -0.5500
  155SAPE    HA17231   0.932   0.511  10.581  0.3502 -1.1472 -1.9434
  155SAPE    HB17232   0.852   0.558  10.424  1.9218  0.6381 -2.7748
  155SAPE    C217233   1.041   0.625  10.437 -0.1498 -0.6396 -0.6525
  155SAPE    HS17234   1.105   0.655  10.523 -1.2103  2.6078 -0.9217
  155SAPE   O2117235   1.018   0.723  10.341 -0.2832  0.1092 -0.0211
  155SAPE   C2117236   1.124   0.792  10.314  0.4855 -0.5246 -0.2374
  155SAPE   O2217237   1.236   0.787  10.368 -0.0158 -0.6223  0.0054
  155SAPE   C2217238   1.093   0.870  10.194  0.5830  0.3722  0.5241
  155SAPE   H2R17239   0.983   0.881  10.179  0.1135  0.0727  3.4712
  155SAPE   H2S17240   1.137   0.971  10.212  2.0644  0.0054 -1.0022
  155SAPE    C317241   1.110   0.504  10.383 -0.0797 -0.2648 -0.2883
  155SAPE    HX17242   1.108   0.420  10.455 -0.8862  0.0535  0.0694
  155SAPE    HY17243   1.218   0.527  10.372 -0.1494  0.6876  0.9168
  155SAPE   O3117244   1.054   0.485  10.254  0.8607 -0.3487 -0.0334
  155SAPE   C3117245   0.975   0.381  10.238  0.9186 -0.8480  0.2464
  155SAPE   O3217246   0.961   0.288  10.318 -0.5697  0.1923  0.1318
  155SAPE   C3217247   0.908   0.383  10.100  0.0280  0.3398 -0.2014
  155SAPE   H2X17248   0.932   0.476  10.046 -0.1807  1.3030  1.3296
  155SAPE   H2Y17249   0.798   0.372  10.110  0.1443  1.3221  2.8903
  155SAPE   C2317250   1.169   0.822  10.070  0.1648 -0.0793  0.4088
  155SAPE   H3R17251   1.133   0.721  10.040 -0.4336 -0.1047  1.2111
  155SAPE   H3S17252   1.275   0.805  10.099 -0.1412 -3.4058 -0.1666
  155SAPE   C2417253   1.164   0.921   9.950 -0.7094 -0.2486  0.4307
  155SAPE   H4R17254   1.237   0.898   9.870 -1.4998 -1.5341  0.0738
  155SAPE   H4S17255   1.197   1.019   9.993  3.7098  0.8647 -4.8397
  155SAPE   C2517256   1.027   0.935   9.888  0.5779  1.0920 -0.3557
  155SAPE   H5R17257   0.981   1.022   9.938  2.6252  0.4882  2.7457
  155SAPE   C2617258   0.973   0.871   9.782 -0.0458 -0.6459  0.2732
  155SAPE   H6R17259   0.871   0.897   9.752 -1.2981 -3.7991  1.6192
  155SAPE   C2717260   1.036   0.759   9.703  0.5733  0.2742  0.2218
  155SAPE   H7R17261   0.988   0.661   9.726 -4.6281  2.9338  1.2983
  155SAPE   H7S17262   1.147   0.761   9.699  0.5619  0.2646 -0.1293
  155SAPE   C2817263   1.000   0.786   9.560  0.4332  0.5629 -0.2188
  155SAPE   H8R17264   1.073   0.849   9.507  1.0789 -1.2115 -1.5118
  155SAPE   C2917265   0.893   0.744   9.486  0.2922 -0.1834  0.6420
  155SAPE   H9R17266   0.888   0.787   9.384 -0.0183 -1.6966  0.0112
  155SAPE  C21017267   0.774   0.659   9.529 -0.1635  0.3139  0.4812
  155SAPE  H10R17268   0.681   0.718   9.540  0.4929  1.5070 -0.3726
  155SAPE  H10S17269   0.784   0.613   9.630 -3.2269 -2.7045 -0.4898
  155SAPE  C21117270   0.738   0.551   9.430  0.9224 -0.2602  0.1241
  155SAPE  H11R17271   0.759   0.447   9.458  1.3760 -0.8886 -2.3771
  155SAPE  C21217272   0.651   0.569   9.328 -0.6663  0.3227 -0.1532
  155SAPE  H12R17273   0.655   0.489   9.252  0.1040 -0.5673  0.8052
  155SAPE  C21317274   0.599   0.703   9.286  0.7060  0.0434  0.1826
  155SAPE  H13R17275   0.622   0.783   9.359  0.5423 -0.1000  0.3954
  155SAPE  H13S17276   0.488   0.706   9.286  0.7199  0.5949  0.1561
  155SAPE  C21417277   0.642   0.746   9.153 -1.2687  0.1905  0.6013
  155SAPE  H14R17278   0.739   0.797   9.146  1.1621 -4.3824 -0.2535
  155SAPE  C21517279   0.579   0.709   9.042 -0.4945  0.0572  0.4856
  155SAPE  H15R17280   0.607   0.754   8.946 -2.1064  0.1205  0.0295
  155SAPE  C21617281   0.457   0.622   9.035  0.3509 -0.0723  0.2791
  155SAPE  H16R17282   0.405   0.585   9.126  0.5855  2.1318  1.3541
  155SAPE  H16S17283   0.488   0.534   8.975  1.4751  0.7916 -0.4388
  155SAPE  C21717284   0.350   0.688   8.954  0.3291 -0.2803  0.6530
  155SAPE  H17R17285   0.390   0.731   8.860 -0.2340 -0.9750  0.0812
  155SAPE  H17S17286   0.312   0.780   9.002 -1.6948 -1.7447  1.9647
  155SAPE  C21817287   0.228   0.596   8.919 -0.2506 -0.2651  0.0091
  155SAPE  H18R17288   0.192   0.553   9.015  0.8114 -2.9664 -0.7661
  155SAPE  H18S17289   0.269   0.518   8.852 -1.9080  0.4248 -1.8859
  155SAPE  C21917290   0.117   0.661   8.846 -0.5741  0.0463  0.6859
  155SAPE  H19R17291   0.154   0.759   8.808  0.5164 -0.1330  1.2634
  155SAPE  H19S17292   0.029   0.681   8.912 -2.3633 -1.5408 -1.1365
  155SAPE  C22017293   0.054   0.584   8.732 -0.2651  1.2713 -0.0020
  155SAPE  H20R17294  -0.017   0.642   8.669  0.3722  0.8204 -1.1466
  155SAPE  H20S17295   0.003   0.497   8.778  1.3668 -0.3951 -1.2687
  155SAPE  H20T17296   0.132   0.539   8.667  0.2995  1.4574  0.5359
  155SAPE   C3317297   0.954   0.270  10.001 -0.0124  0.3649  0.3892
  155SAPE   H3X17298   0.890   0.180  10.012 -0.2253  0.1641 -2.2994
  155SAPE   H3Y17299   1.052   0.228  10.031 -0.0201 -0.2845 -0.4947
  155SAPE   C3417300   0.961   0.313   9.853  0.2883 -0.0803  0.3386
  155SAPE   H4X17301   1.039   0.392   9.846  0.1332 -0.1314 -3.0550
  155SAPE   H4Y17302   0.862   0.356   9.828  0.1164 -0.6124  0.0893
  155SAPE   C3517303   1.000   0.191   9.763 -0.4230  0.1288 -0.4728
  155SAPE   H5X17304   0.925   0.110   9.767  1.2263 -1.3461  1.3211
  155SAPE   H5Y17305   1.103   0.157   9.788 -0.5659 -0.2337 -0.3759
  155SAPE   C3617306   0.987   0.235   9.617 -0.0573 -0.3784  0.5614
  155SAPE   H6X17307   1.051   0.326   9.613 -1.2303  0.3743 -1.5188
  155SAPE   H6Y17308   0.879   0.260   9.611  0.0856 -0.2769 -1.8356
  155SAPE   C3717309   1.030   0.143   9.508 -0.2083  0.0514  0.4607
  155SAPE   H7X17310   0.982   0.044   9.518  0.2799 -0.3183 -0.7590
  155SAPE   H7Y17311   1.138   0.115   9.505 -0.3998 -1.1372  3.6015
  155SAPE   C3817312   0.987   0.205   9.370 -0.3095  0.4890  0.0097
  155SAPE   H8X17313   1.036   0.305   9.368 -1.8994  1.2552 -1.2721
  155SAPE   H8Y17314   0.877   0.213   9.379 -0.4496  3.7027 -3.3483
  155SAPE   C3917315   1.023   0.116   9.251  0.4048  0.2690 -0.6592
  155SAPE   H9X17316   0.986   0.013   9.274 -3.1635  1.5239 -0.5678
  155SAPE   H9Y17317   1.132   0.109   9.228  0.2549 -1.0375 -1.0406
  155SAPE  C31017318   0.941   0.157   9.128  0.2409  0.0337 -0.8847
  155SAPE  H10X17319   0.970   0.260   9.097  2.1463 -0.6313 -1.3544
  155SAPE  H10Y17320   0.834   0.173   9.155  0.7866  1.5706  0.4804
  155SAPE  C31117321   0.959   0.064   9.015 -0.1927  0.1881 -0.0014
  155SAPE  H11X17322   0.936  -0.039   9.050  2.2037 -0.6701 -0.8179
  155SAPE  H11Y17323   1.066   0.063   8.985 -0.5954  1.4600 -1.5758
  155SAPE  C31217324   0.880   0.099   8.889 -0.0558 -0.0394 -1.4402
  155SAPE  H12X17325   0.925   0.193   8.850 -0.8870  0.3707 -1.4232
  155SAPE  H12Y17326   0.772   0.117   8.906 -0.0846  0.3879 -2.0684
  155SAPE  C31317327   0.902  -0.005   8.784 -0.0312  0.6704  0.0999
  155SAPE  H13X17328   0.877  -0.103   8.829  1.8781  0.0885 -0.0849
  155SAPE  H13Y17329   1.007  -0.007   8.748 -0.1924  2.9655 -0.5777
  155SAPE  C31417330   0.813   0.009   8.660 -0.8008 -0.3015  0.0350
  155SAPE  H14X17331   0.713   0.048   8.691 -0.5930  0.2332  0.0409
  155SAPE  H14Y17332   0.799  -0.095   8.622 -1.9356 -0.7955  1.7443
  155SAPE  C31517333   0.874   0.100   8.558  0.3831  0.1227 -0.0058
  155SAPE  H15X17334   0.975   0.059   8.538  1.2535  1.1116  2.2323
  155SAPE  H15Y17335   0.878   0.203   8.601 -1.3387 -0.5458  1.8155
  155SAPE  C31617336   0.796   0.116   8.422  0.0170 -0.2202 -0.0048
  155SAPE  H16X17337   0.829   0.211   8.375 -1.4654  0.6233  0.6134
  155SAPE  H16Y17338   0.692   0.127   8.460 -0.1471  0.2468 -0.5849
  155SAPE  C31717339   0.809   0.006   8.322 -0.1621 -0.4678 -0.6610
  155SAPE  H17X17340   0.749   0.028   8.232  1.0015  0.9996 -1.0871
  155SAPE  H17Y17341   0.757  -0.083   8.364  1.3447 -0.4224  1.4209
  155SAPE  C31817342   0.952  -0.022   8.287  0.1293  0.4099  1.2435
  155SAPE  H18X17343   1.013  -0.070   8.366  0.0830  1.5824  1.9983
  155SAPE  H18Y17344   1.006   0.069   8.255 -1.0773  1.5947  2.5257
  155SAPE  H18Z17345   0.957  -0.102   8.210 -0.7019  1.2673  0.2849
  156SAPE     N17346   5.482   5.026  10.608  0.0358 -0.2668  0.2394
  156SAPE   HN117347   5.468   5.003  10.507 -0.3474  0.2707  0.1628
  156SAPE   HN217348   5.504   5.127  10.619  3.9407 -1.1846  1.5500
  156SAPE   HN317349   5.560   4.967  10.641 -0.8880 -1.1380  0.8839
  156SAPE   C1217350   5.358   4.988  10.680 -0.6130  0.0689  0.5355
  156SAPE  H12A17351   5.274   5.035  10.624  0.7353  0.2211 -1.3907
  156SAPE  H12B17352   5.364   5.030  10.783 -2.2905  1.6555  0.0257
  156SAPE   C1117353   5.340   4.833  10.675 -0.1511 -0.0991  1.3835
  156SAPE  H11A17354   5.233   4.816  10.702 -0.6989 -0.2584 -0.8526
  156SAPE  H11B17355   5.398   4.779  10.754  0.5701 -3.1233 -1.1256
  156SAPE     P17356   5.354   4.627  10.521  0.3990 -0.0762  0.0443
  156SAPE   O1317357   5.482   4.575  10.461  0.2903 -0.1749  0.1238
  156SAPE   O1417358   5.307   4.572  10.650  0.0984  0.0121  0.3621
  156SAPE   O1217359   5.373   4.785  10.543 -0.0284  0.3017  0.4473
  156SAPE   O1117360   5.237   4.609  10.419  0.2401  0.7254 -0.5751
  156SAPE    C117361   5.190   4.706  10.331  0.4297 -0.4827  0.0633
  156SAPE    HA17362   5.115   4.647  10.274  0.4717 -0.4743 -0.0015
  156SAPE    HB17363   5.130   4.784  10.383  0.1401 -0.0078 -0.9660
  156SAPE    C217364   5.293   4.749  10.218 -0.2031  0.3523 -0.3055
  156SAPE    HS17365   5.378   4.801  10.268  0.3767 -0.3275 -0.5710
  156SAPE   O2117366   5.232   4.855  10.132  0.1068 -0.0514 -0.6080
  156SAPE   C2117367   5.218   4.976  10.195 -0.1754  0.2814 -0.1504
  156SAPE   O2217368   5.268   5.000  10.305 -0.4004 -0.7536 -0.1835
  156SAPE   C2217369   5.147   5.076  10.108 -0.5893  0.4000  1.0679
  156SAPE   H2R17370   5.066   5.025  10.053 -1.5982  0.9940  1.9788
  156SAPE   H2S17371   5.087   5.140  10.175  0.6714  1.2617  1.3933
  156SAPE    C317372   5.345   4.620  10.140 -0.3269  0.3607 -0.2813
  156SAPE    HX17373   5.263   4.545  10.144 -0.0694  0.1559  1.7201
  156SAPE    HY17374   5.420   4.567  10.201  2.1070 -0.6265 -3.9804
  156SAPE   O3117375   5.386   4.656  10.007  0.2371  0.5070  0.6876
  156SAPE   C3117376   5.512   4.704   9.999  0.7659 -0.3642  0.0509
  156SAPE   O3217377   5.584   4.718  10.096  0.0653  0.2149  0.7476
  156SAPE   C3217378   5.561   4.721   9.850 -0.0045 -0.1699  0.0410
  156SAPE   H2X17379   5.649   4.656   9.832  1.2473  1.0057  1.7927
  156SAPE   H2Y17380   5.597   4.825   9.836 -1.7201  0.4214 -0.1049
  156SAPE   C2317381   5.233   5.160  10.020  0.5711 -0.6098  0.3602
  156SAPE   H3R17382   5.322   5.200  10.073  0.5417 -0.5664  0.3769
  156SAPE   H3S17383   5.175   5.245   9.977  0.5982 -0.0276  1.4509
  156SAPE   C2417384   5.287   5.075   9.895 -0.4672 -0.2136 -0.0758
  156SAPE   H4R17385   5.357   5.001   9.941 -2.1194 -0.5492  1.9658
  156SAPE   H4S17386   5.347   5.143   9.830  1.3246 -1.4518  0.2296
  156SAPE   C2517387   5.189   5.003   9.812 -0.8128 -0.2599  0.3150
  156SAPE   H5R17388   5.135   4.924   9.866  1.0291 -2.4384 -0.9603
  156SAPE   C2617389   5.172   5.014   9.682  0.6115 -0.1607 -0.4980
  156SAPE   H6R17390   5.099   4.946   9.635  1.7415 -1.3658 -0.5366
  156SAPE   C2717391   5.228   5.110   9.582  0.0928 -0.4351  0.0826
  156SAPE   H7R17392   5.301   5.049   9.524  0.2010  0.2614 -0.5142
  156SAPE   H7S17393   5.289   5.187   9.634 -1.1417  0.0327  0.8515
  156SAPE   C2817394   5.120   5.176   9.489  0.0726  0.2680  0.1008
  156SAPE   H8R17395   5.053   5.242   9.546  0.8030  1.8987 -0.8982
  156SAPE   C2917396   5.118   5.185   9.359 -0.4086  0.1173 -0.1188
  156SAPE   H9R17397   5.031   5.226   9.306  1.6461  0.3463 -3.4294
  156SAPE  C21017398   5.204   5.108   9.265 -0.2636  0.2472 -0.7432
  156SAPE  H10R17399   5.214   5.004   9.303  0.0760  0.9810  1.2429
  156SAPE  H10S17400   5.303   5.159   9.271 -1.6897  3.2136 -1.1510
  156SAPE  C21117401   5.156   5.123   9.123  0.4291 -0.1943 -1.0159
  156SAPE  H11R17402   5.086   5.045   9.093 -1.5943  0.7491  1.1216
  156SAPE  C21217403   5.205   5.203   9.028 -0.1300 -0.7800  0.4313
  156SAPE  H12R17404   5.160   5.189   8.928 -0.1209 -1.8808  0.5739
  156SAPE  C21317405   5.322   5.299   9.029 -0.0453  0.9016 -0.5491
  156SAPE  H13R17406   5.403   5.264   8.962 -1.1740 -1.5446 -0.6745
  156SAPE  H13S17407   5.360   5.295   9.134  0.1601 -1.0230 -0.6850
  156SAPE  C21417408   5.282   5.442   9.003 -0.2633  0.3031 -0.3178
  156SAPE  H14R17409   5.199   5.478   9.066 -0.8107 -0.8355 -0.3761
  156SAPE  C21517410   5.337   5.515   8.903  0.2356 -0.0034  0.1707
  156SAPE  H15R17411   5.310   5.622   8.899 -1.0771 -0.3186  0.3476
  156SAPE  C21617412   5.443   5.474   8.811 -0.2288 -0.4396  0.1653
  156SAPE  H16R17413   5.404   5.467   8.707 -1.4911  1.0580  0.5171
  156SAPE  H16S17414   5.489   5.374   8.822  0.5740 -0.4072 -2.3633
  156SAPE  C21717415   5.557   5.580   8.812 -0.0720  0.4992 -0.4215
  156SAPE  H17R17416   5.524   5.685   8.796 -1.3501  0.3628  1.1551
  156SAPE  H17S17417   5.631   5.556   8.733 -1.1783  1.1076 -1.6598
  156SAPE  C21817418   5.650   5.576   8.939  0.3133  0.2373 -0.0769
  156SAPE  H18R17419   5.702   5.478   8.943 -2.1238 -1.1048 -0.6403
  156SAPE  H18S17420   5.582   5.569   9.026 -1.4215 -0.8592 -1.4870
  156SAPE  C21917421   5.743   5.700   8.963 -0.3064  0.6167  0.0829
  156SAPE  H19R17422   5.678   5.788   8.945 -2.7847 -1.3049 -0.7228
  156SAPE  H19S17423   5.818   5.698   8.881  0.5258  3.1948  0.7378
  156SAPE  C22017424   5.816   5.709   9.099  0.2307 -0.3087 -0.4042
  156SAPE  H20R17425   5.887   5.624   9.105  1.3624  0.6643  0.0947
  156SAPE  H20S17426   5.757   5.699   9.192  0.3123 -0.7565 -0.3972
  156SAPE  H20T17427   5.883   5.798   9.101  1.2168 -1.0317 -0.7765
  156SAPE   C3317428   5.448   4.707   9.740  0.1608 -0.3545  0.2861
  156SAPE   H3X17429   5.350   4.745   9.776  0.7354  0.3911  1.0731
  156SAPE   H3Y17430   5.424   4.602   9.712  1.6754 -0.8726  0.8728
  156SAPE   C3417431   5.482   4.790   9.609 -0.5308  0.2562  0.3562
  156SAPE   H4X17432   5.523   4.893   9.622 -2.4330  1.2429 -1.1840
  156SAPE   H4Y17433   5.394   4.793   9.541 -1.9678  0.4462  2.1607
  156SAPE   C3517434   5.596   4.722   9.534  0.4872  0.4200  0.5569
  156SAPE   H5X17435   5.580   4.612   9.538  0.3308  0.3918 -0.7203
  156SAPE   H5Y17436   5.694   4.745   9.581  0.8147  0.1130  0.0296
  156SAPE   C3617437   5.606   4.768   9.389  0.9632  0.0029  0.5505
  156SAPE   H6X17438   5.628   4.877   9.390  1.1568 -0.0347  0.5653
  156SAPE   H6Y17439   5.518   4.766   9.322  0.7659 -0.2433  0.8161
  156SAPE   C3717440   5.723   4.703   9.303  0.2562  0.1295  0.1375
  156SAPE   H7X17441   5.701   4.735   9.199  0.0173  0.4889  0.2942
  156SAPE   H7Y17442   5.715   4.594   9.320 -1.1069  0.2310  0.1986
  156SAPE   C3817443   5.866   4.757   9.335 -0.5602 -0.6279  0.1109
  156SAPE   H8X17444   5.906   4.718   9.431  3.1707  2.1563 -0.2118
  156SAPE   H8Y17445   5.868   4.867   9.348 -0.9974 -0.9022  2.6554
  156SAPE   C3917446   5.954   4.715   9.216  0.3618 -0.1306  0.1914
  156SAPE   H9X17447   5.911   4.751   9.120 -0.4314 -0.7533  0.3018
  156SAPE   H9Y17448   5.957   4.604   9.211  0.3763 -0.1993  1.6412
  156SAPE  C31017449   6.098   4.757   9.226  0.4334  0.1692  0.3833
  156SAPE  H10X17450   6.139   4.709   9.317  0.3696  0.4703  0.5709
  156SAPE  H10Y17451   6.095   4.868   9.229  0.0764  0.2900 -2.6448
  156SAPE  C31117452   6.198   4.732   9.112 -0.8907 -0.2184 -0.4269
  156SAPE  H11X17453   6.298   4.769   9.144 -0.9891 -1.4775  1.3915
  156SAPE  H11Y17454   6.162   4.798   9.031 -1.7991 -3.0081 -2.3831
  156SAPE  C31217455   6.209   4.590   9.067 -0.8043  0.5939  0.6226
  156SAPE  H12X17456   6.113   4.543   9.039  0.8130 -1.3528 -1.8321
  156SAPE  H12Y17457   6.254   4.539   9.155  1.4249  1.6994  0.1804
  156SAPE  C31317458   6.308   4.581   8.947  0.4045 -0.6882 -0.4139
  156SAPE  H13X17459   6.400   4.629   8.984 -0.5765  1.0529 -0.2063
  156SAPE  H13Y17460   6.281   4.643   8.859  1.2441 -0.6095 -0.6148
  156SAPE  C31417461   6.329   4.435   8.912  0.4855 -0.5082 -0.1943
  156SAPE  H14X17462   6.298   4.371   8.997 -1.2133 -0.5113 -0.7937
  156SAPE  H14Y17463   6.439   4.428   8.902  0.7273  2.5969 -0.0278
  156SAPE  C31517464   6.262   4.392   8.776 -0.4589 -0.5304 -0.9514
  156SAPE  H15X17465   6.152   4.410   8.779 -0.5986 -1.0326 -2.5704
  156SAPE  H15Y17466   6.263   4.284   8.750  1.2567 -0.6635 -0.3801
  156SAPE  C31617467   6.333   4.451   8.651 -0.0978  0.3441 -0.8853
  156SAPE  H16X17468   6.435   4.408   8.659 -0.0922  0.5806  0.4130
  156SAPE  H16Y17469   6.346   4.561   8.646  3.7423 -0.0109 -0.0146
  156SAPE  C31717470   6.284   4.408   8.512 -0.7329  0.1849  0.0639
  156SAPE  H17X17471   6.183   4.455   8.509 -0.6747  0.3449  0.5164
  156SAPE  H17Y17472   6.275   4.298   8.520 -1.8255  0.2599  0.0384
  156SAPE  C31817473   6.373   4.434   8.392  0.3611 -0.0542 -0.2011
  156SAPE  H18X17474   6.455   4.359   8.396 -0.8519 -1.3235  3.8866
  156SAPE  H18Y17475   6.402   4.541   8.393  2.4135 -0.5894 -0.3934
  156SAPE  H18Z17476   6.304   4.409   8.309  0.0002  0.0842  0.0574
  157SAPE     N17477   4.198   3.978  10.494 -0.0522  0.0770  0.5863
  157SAPE   HN117478   4.149   3.977  10.402 -0.1098  0.3399  0.6163
  157SAPE   HN217479   4.265   4.056  10.483 -0.4490  0.4304  0.6431
  157SAPE   HN317480   4.262   3.896  10.500 -0.1895 -0.3511 -2.6915
  157SAPE   C1217481   4.105   3.996  10.607 -0.0770  0.5545 -0.5670
  157SAPE  H12A17482   4.096   3.895  10.652  2.1819  0.8535  0.6381
  157SAPE  H12B17483   4.004   4.026  10.574 -1.3289 -1.0257  1.6903
  157SAPE   C1117484   4.167   4.097  10.711  0.6743  0.0600  0.2161
  157SAPE  H11A17485   4.257   4.041  10.745  0.5442 -0.3101 -0.0428
  157SAPE  H11B17486   4.106   4.109  10.804 -2.2128 -1.7944 -1.3326
  157SAPE     P17487   4.132   4.359  10.670 -0.2842 -0.0945  0.6088
  157SAPE   O1317488   4.131   4.389  10.814  0.3647 -0.3420 -0.2298
  157SAPE   O1417489   4.180   4.462  10.577  0.0087 -0.2793  0.4695
  157SAPE   O1217490   4.212   4.223  10.654 -0.0784 -0.2318  0.3820
  157SAPE   O1117491   3.982   4.323  10.628 -0.4857 -0.3568  0.3761
  157SAPE    C117492   3.906   4.397  10.529  0.1660  0.6152 -0.5578
  157SAPE    HA17493   3.798   4.371  10.532  0.0879  0.6845 -2.1834
  157SAPE    HB17494   3.904   4.503  10.561  1.6384  0.3721  0.3517
  157SAPE    C217495   3.960   4.381  10.382 -0.7537  0.6176  0.4773
  157SAPE    HS17496   4.070   4.375  10.371 -1.0305  0.3943 -2.8132
  157SAPE   O2117497   3.915   4.500  10.310 -0.0145  0.1952  0.0613
  157SAPE   C2117498   3.996   4.546  10.214  0.0207  0.1058  0.6738
  157SAPE   O2217499   4.116   4.521  10.203 -0.1978 -0.0540  0.1818
  157SAPE   C2217500   3.926   4.641  10.121 -0.0557 -0.4191  0.0046
  157SAPE   H2R17501   3.845   4.583  10.071 -1.6101  0.7406  1.0888
  157SAPE   H2S17502   3.896   4.737  10.170  1.6465  0.9749 -1.6092
  157SAPE    C317503   3.917   4.250  10.325  0.8332  0.0427 -0.3946
  157SAPE    HX17504   3.806   4.251  10.335  0.9836  1.4169  1.3145
  157SAPE    HY17505   3.943   4.167  10.395 -3.0643  1.1224  2.4961
  157SAPE   O3117506   3.962   4.233  10.197  0.6158  0.4556  0.0597
  157SAPE   C3117507   4.058   4.156  10.175  1.0517  0.3378  0.2072
  157SAPE   O3217508   4.116   4.084  10.255  0.2964 -0.3858 -0.3295
  157SAPE   C3217509   4.095   4.161  10.020  0.1429 -0.4551  0.4372
  157SAPE   H2X17510   4.137   4.061   9.998 -0.2331 -0.1735 -1.7287
  157SAPE   H2Y17511   4.186   4.222  10.002 -0.0946 -0.6108 -1.3766
  157SAPE   C2317512   4.008   4.674   9.994  0.0511  0.8829 -0.8211
  157SAPE   H3R17513   4.032   4.585   9.933 -1.2069 -0.9873  1.3277
  157SAPE   H3S17514   4.104   4.720  10.027  0.9975  0.1144 -2.4248
  157SAPE   C2417515   3.938   4.781   9.910 -0.2545  0.1345 -0.4227
  157SAPE   H4R17516   4.008   4.828   9.837 -1.4882  1.2566 -0.9154
  157SAPE   H4S17517   3.904   4.864   9.975 -1.6405 -0.3168 -0.5658
  157SAPE   C2517518   3.820   4.727   9.840  0.0647  0.7721  0.1295
  157SAPE   H5R17519   3.732   4.701   9.901 -1.2187  1.7983 -1.2753
  157SAPE   C2617520   3.805   4.703   9.709 -0.0890 -0.1952  0.0758
  157SAPE   H6R17521   3.708   4.664   9.676  0.1431  1.0365 -2.1129
  157SAPE   C2717522   3.899   4.719   9.594  0.1796  1.1222 -0.1463
  157SAPE   H7R17523   3.873   4.651   9.511  3.3284 -0.9700  0.4697
  157SAPE   H7S17524   4.003   4.698   9.628  0.0005  1.1812  0.4508
  157SAPE   C2817525   3.907   4.861   9.550 -0.2595  0.7483 -0.0564
  157SAPE   H8R17526   3.919   4.942   9.624  0.8034  0.3596  0.2069
  157SAPE   C2917527   3.883   4.899   9.417  0.0379 -0.1192  0.2174
  157SAPE   H9R17528   3.906   5.004   9.391  0.3100 -0.0383  0.7674
  157SAPE  C21017529   3.845   4.822   9.293 -0.1468  0.0397  0.2996
  157SAPE  H10R17530   3.773   4.878   9.228  0.8499 -0.9828 -1.7422
  157SAPE  H10S17531   3.803   4.725   9.325 -0.7851  0.0231 -0.5356
  157SAPE  C21117532   3.965   4.788   9.209  0.0606  0.6517  0.6717
  157SAPE  H11R17533   4.051   4.773   9.275  1.5655  0.5837 -1.2680
  157SAPE  C21217534   3.975   4.789   9.074  0.4848  0.5538 -0.4532
  157SAPE  H12R17535   4.076   4.773   9.034 -0.1003  1.5278 -2.3584
  157SAPE  C21317536   3.876   4.805   8.967  0.1591  0.5732  0.2278
  157SAPE  H13R17537   3.912   4.884   8.898  1.6806 -1.8315 -1.7849
  157SAPE  H13S17538   3.788   4.856   9.012 -0.2894 -0.5990  0.6834
  157SAPE  C21417539   3.841   4.680   8.890  0.2463 -0.7210  0.6974
  157SAPE  H14R17540   3.777   4.614   8.950 -1.9000  1.4779  0.9028
  157SAPE  C21517541   3.876   4.654   8.761  0.4728 -0.4803 -0.0270
  157SAPE  H15R17542   3.829   4.561   8.726  1.3912 -0.9504 -0.0095
  157SAPE  C21617543   3.972   4.718   8.667  0.0324  0.1067  0.7746
  157SAPE  H16R17544   4.040   4.638   8.630 -2.0353 -1.0375 -0.6681
  157SAPE  H16S17545   4.026   4.799   8.720 -0.0171  0.0090  0.9734
  157SAPE  C21717546   3.903   4.774   8.536  0.3210 -0.3873 -0.6259
  157SAPE  H17R17547   3.869   4.696   8.464 -0.4039  0.8285 -1.6352
  157SAPE  H17S17548   3.978   4.831   8.477 -1.3458  2.9395  0.3739
  157SAPE  C21817549   3.793   4.881   8.573  0.3794  0.3745 -0.8859
  157SAPE  H18R17550   3.833   4.960   8.640  0.4205  0.4448 -0.9950
  157SAPE  H18S17551   3.708   4.823   8.616 -0.6270  1.1286 -1.8386
  157SAPE  C21917552   3.750   4.949   8.444 -0.4255 -0.6194 -0.3780
  157SAPE  H19R17553   3.715   4.866   8.379  1.5932  0.3139 -2.7205
  157SAPE  H19S17554   3.834   5.000   8.392 -0.1967  0.5727  1.1093
  157SAPE  C22017555   3.627   5.046   8.464  0.2934 -0.0846 -0.3363
  157SAPE  H20R17556   3.650   5.126   8.538  2.2797 -1.0900  0.1795
  157SAPE  H20S17557   3.539   4.983   8.492  0.4403  0.3951  1.2673
  157SAPE  H20T17558   3.603   5.097   8.368 -0.1471 -1.7422 -1.1264
  157SAPE   C3317559   3.984   4.198   9.921  0.2380 -0.3400 -0.2201
  157SAPE   H3X17560   3.941   4.288   9.971  0.6418 -1.1742  1.7036
  157SAPE   H3Y17561   3.902   4.123   9.924  0.1664 -0.3364 -1.7360
  157SAPE   C3417562   4.037   4.220   9.779 -0.1959 -0.6231 -0.0411
  157SAPE   H4X17563   4.100   4.144   9.729  3.3239  2.4715 -0.6065
  157SAPE   H4Y17564   4.114   4.301   9.785 -0.6861  0.1477 -3.1379
  157SAPE   C3517565   3.919   4.273   9.685 -0.5354  0.2614 -0.2613
  157SAPE   H5X17566   3.884   4.358   9.747  3.8595  0.3733  2.2465
  157SAPE   H5Y17567   3.845   4.190   9.678 -0.0651 -0.2046  0.2935
  157SAPE   C3617568   3.981   4.327   9.556  0.1913 -0.2473 -0.5779
  157SAPE   H6X17569   4.059   4.256   9.520 -0.6620 -0.0566 -2.9142
  157SAPE   H6Y17570   4.035   4.422   9.574 -0.4181  0.0090 -0.0984
  157SAPE   C3717571   3.882   4.338   9.440 -0.6190  0.0531  0.2987
  157SAPE   H7X17572   3.884   4.441   9.397  0.3376 -1.2400 -2.8836
  157SAPE   H7Y17573   3.778   4.322   9.474  0.0001 -1.4243  1.5714
  157SAPE   C3817574   3.929   4.235   9.335 -0.1324 -0.1121  0.2111
  157SAPE   H8X17575   3.903   4.134   9.373  1.7670 -0.2642  1.1522
  157SAPE   H8Y17576   4.039   4.229   9.318 -0.6659 -1.1297 -3.2734
  157SAPE   C3917577   3.862   4.251   9.198 -0.6554  0.9011  0.2945
  157SAPE   H9X17578   3.852   4.357   9.170  1.4356  0.8912 -0.5242
  157SAPE   H9Y17579   3.758   4.212   9.212 -0.5339  0.1900 -0.7871
  157SAPE  C31017580   3.943   4.182   9.091  0.0018  0.0273  0.4407
  157SAPE  H10X17581   3.946   4.073   9.112 -0.1556  0.3073  1.9260
  157SAPE  H10Y17582   4.047   4.218   9.108 -0.5546  0.8245  2.2233
  157SAPE  C31117583   3.903   4.229   8.953  0.1670  0.7394  0.6305
  157SAPE  H11X17584   3.905   4.339   8.935  1.0618  0.5509 -0.4736
  157SAPE  H11Y17585   3.796   4.203   8.941  0.9521 -2.0361 -0.8174
  157SAPE  C31217586   3.983   4.166   8.832  0.1301  0.4372 -0.1821
  157SAPE  H12X17587   4.093   4.174   8.839  0.0074  2.4355 -0.1727
  157SAPE  H12Y17588   3.952   4.213   8.736 -1.3994  1.8796  0.9841
  157SAPE  C31317589   3.947   4.017   8.807 -0.6166 -0.1904 -1.0154
  157SAPE  H13X17590   3.847   4.028   8.758 -1.8632  0.8661  1.6463
  157SAPE  H13Y17591   3.931   3.962   8.903 -1.4759 -2.0487 -2.1759
  157SAPE  C31417592   4.053   3.949   8.718 -0.6121  0.1492  0.3366
  157SAPE  H14X17593   4.145   3.928   8.777 -0.5535 -0.7282 -0.0612
  157SAPE  H14Y17594   4.077   3.997   8.621 -1.0949  1.3232  0.7908
  157SAPE  C31517595   4.002   3.808   8.690 -0.3265  0.2198 -0.0966
  157SAPE  H15X17596   3.953   3.769   8.781 -1.3494 -1.1562 -1.2077
  157SAPE  H15Y17597   4.082   3.737   8.660 -0.9985 -0.0583 -1.2712
  157SAPE  C31617598   3.903   3.798   8.574  1.0222 -0.3957  0.2663
  157SAPE  H16X17599   3.964   3.813   8.483  1.1011 -1.7803  0.0897
  157SAPE  H16Y17600   3.828   3.880   8.576  0.9841 -0.4380  1.9473
  157SAPE  C31717601   3.834   3.663   8.558 -0.8417 -0.5733 -0.2862
  157SAPE  H17X17602   3.763   3.674   8.473 -0.9984  0.0228 -0.0783
  157SAPE  H17Y17603   3.770   3.646   8.647  1.3528  0.2640  1.5260
  157SAPE  C31817604   3.910   3.540   8.530 -0.3097  1.1214  0.0144
  157SAPE  H18X17605   3.983   3.530   8.613  0.5246  1.9938 -0.5921
  157SAPE  H18Y17606   3.958   3.529   8.430 -0.4181 -2.4941  0.2903
  157SAPE  H18Z17607   3.844   3.452   8.540 -0.5529  1.4335  1.1670
  158SAPE     N17608   5.998   5.230  10.729 -0.5156  0.4192  0.3001
  158SAPE   HN117609   6.083   5.250  10.785  1.3264 -0.3134 -2.1529
  158SAPE   HN217610   5.933   5.300  10.770 -0.8292  0.6889 -0.6429
  158SAPE   HN317611   5.954   5.138  10.754  0.3516 -0.3941 -1.0889
  158SAPE   C1217612   6.025   5.246  10.583 -0.2452 -0.1111 -0.5780
  158SAPE  H12A17613   6.090   5.163  10.548  1.4849  0.4522  1.2288
  158SAPE  H12B17614   6.080   5.341  10.568 -0.5630 -0.0813 -1.5646
  158SAPE   C1117615   5.893   5.253  10.501  0.1048  0.5563  0.0297
  158SAPE  H11A17616   5.843   5.154  10.497 -1.9939  1.6164 -0.4586
  158SAPE  H11B17617   5.927   5.279  10.398 -0.2164  4.3604  0.7857
  158SAPE     P17618   5.664   5.346  10.591  0.5501 -0.2624 -0.2454
  158SAPE   O1317619   5.666   5.257  10.712  0.4922 -0.6943 -0.1004
  158SAPE   O1417620   5.599   5.477  10.616 -0.3361 -0.7770  0.0066
  158SAPE   O1217621   5.814   5.361  10.543  0.3905 -0.2476 -0.0724
  158SAPE   O1117622   5.596   5.263  10.484  0.5308  0.1837  0.0564
  158SAPE    C117623   5.556   5.317  10.354 -0.2223 -0.0097 -0.0832
  158SAPE    HA17624   5.457   5.277  10.324  0.5151 -0.1046 -2.4854
  158SAPE    HB17625   5.558   5.428  10.356 -0.3147 -0.0145  1.1520
  158SAPE    C217626   5.660   5.289  10.239 -0.7943 -0.9135  0.1254
  158SAPE    HS17627   5.762   5.319  10.270  0.1438 -2.0109 -1.8434
  158SAPE   O2117628   5.615   5.348  10.119 -0.5427 -0.9522 -0.3825
  158SAPE   C2117629   5.705   5.417  10.045 -0.5111  0.1381 -0.2378
  158SAPE   O2217630   5.814   5.452  10.090 -0.1237 -0.1062 -0.0615
  158SAPE   C2217631   5.648   5.456   9.909 -0.0216 -0.4201 -1.2399
  158SAPE   H2R17632   5.562   5.387   9.892  0.4262 -2.0463  2.6453
  158SAPE   H2S17633   5.620   5.563   9.923  1.9869  0.5109 -3.8502
  158SAPE    C317634   5.683   5.143  10.216 -0.6680 -0.0948  0.6943
  158SAPE    HX17635   5.586   5.096  10.189 -0.5786  0.3608 -0.4877
  158SAPE    HY17636   5.716   5.098  10.312 -0.3471 -3.2904 -0.8273
  158SAPE   O3117637   5.786   5.127  10.115 -0.1978 -0.6994 -0.2217
  158SAPE   C3117638   5.751   5.063   9.998  0.1205  0.4211 -0.3876
  158SAPE   O3217639   5.646   5.012   9.972  0.0577 -0.6691  0.2241
  158SAPE   C3217640   5.879   5.052   9.910  0.8402  0.2854 -0.1434
  158SAPE   H2X17641   5.965   5.016   9.971 -0.2882 -1.9065  0.2194
  158SAPE   H2Y17642   5.905   5.157   9.886  0.4605 -0.0349 -2.0203
  158SAPE   C2317643   5.751   5.449   9.792 -0.2072  0.1860 -0.3005
  158SAPE   H3R17644   5.810   5.356   9.776  1.7510  1.3049  0.2082
  158SAPE   H3S17645   5.838   5.512   9.820 -0.6573  1.2946 -1.3778
  158SAPE   C2417646   5.684   5.490   9.662  0.1603 -0.2157  0.2668
  158SAPE   H4R17647   5.761   5.527   9.591  0.4687 -1.1530  0.1185
  158SAPE   H4S17648   5.622   5.580   9.686 -1.6696 -0.7048 -2.3883
  158SAPE   C2517649   5.597   5.392   9.589 -0.2635  0.6831 -0.6181
  158SAPE   H5R17650   5.491   5.375   9.613 -0.0451  0.3958  0.1651
  158SAPE   C2617651   5.636   5.329   9.478  0.0849 -0.0638 -0.0258
  158SAPE   H6R17652   5.562   5.255   9.445  0.9914 -0.9214 -0.1404
  158SAPE   C2717653   5.771   5.334   9.409 -0.2004 -0.4916 -0.3206
  158SAPE   H7R17654   5.813   5.236   9.438 -0.6658 -0.9865 -1.3009
  158SAPE   H7S17655   5.839   5.414   9.446 -4.2231  4.0355 -2.2158
  158SAPE   C2817656   5.763   5.363   9.260  0.2809 -0.0447 -0.1714
  158SAPE   H8R17657   5.764   5.466   9.223  1.7741  0.6857  1.8154
  158SAPE   C2917658   5.757   5.261   9.170 -0.2549 -0.0736  0.2391
  158SAPE   H9R17659   5.747   5.292   9.065 -0.7222 -1.7875 -0.2365
  158SAPE  C21017660   5.746   5.110   9.187  0.1485  1.1376  0.1910
  158SAPE  H10R17661   5.785   5.069   9.283 -0.8636  0.8542  0.4809
  158SAPE  H10S17662   5.813   5.068   9.109 -0.1639 -1.1886  1.1441
  158SAPE  C21117663   5.604   5.056   9.163 -0.1706  0.3078  0.1122
  158SAPE  H11R17664   5.539   5.086   9.247  1.8744 -0.0328  1.8778
  158SAPE  C21217665   5.548   5.006   9.053 -0.2231  0.4011 -0.4990
  158SAPE  H12R17666   5.449   4.958   9.060  0.3608 -0.8813 -0.9050
  158SAPE  C21317667   5.634   4.974   8.930 -0.4832  0.4632 -0.1003
  158SAPE  H13R17668   5.684   4.875   8.936 -1.4056 -0.0392 -0.5536
  158SAPE  H13S17669   5.711   5.054   8.927 -0.0044 -0.0252 -0.9487
  158SAPE  C21417670   5.557   4.974   8.804  0.3952  0.7770 -0.3022
  158SAPE  H14R17671   5.458   5.023   8.808 -1.2864 -2.5328  1.3982
  158SAPE  C21517672   5.599   4.912   8.697 -0.4377  0.1408  0.3375
  158SAPE  H15R17673   5.527   4.917   8.614  0.6584 -1.8144 -0.7626
  158SAPE  C21617674   5.726   4.829   8.668  0.6688  0.9441  0.0928
  158SAPE  H16R17675   5.801   4.845   8.748  1.4135  0.9383 -0.6034
  158SAPE  H16S17676   5.763   4.870   8.572  1.1054 -1.9224 -1.0098
  158SAPE  C21717677   5.711   4.683   8.629 -0.0974  0.2789 -0.7304
  158SAPE  H17R17678   5.803   4.649   8.578  0.9250  0.1461  1.1830
  158SAPE  H17S17679   5.628   4.674   8.555  1.0468  2.9212 -2.4243
  158SAPE  C21817680   5.675   4.584   8.741 -0.1766 -0.8346 -0.9296
  158SAPE  H18R17681   5.581   4.530   8.713 -0.1569  0.2365 -3.0828
  158SAPE  H18S17682   5.651   4.643   8.832 -1.5631  0.0855 -1.8707
  158SAPE  C21917683   5.796   4.494   8.768 -0.3962  0.2301  0.2728
  158SAPE  H19R17684   5.823   4.442   8.673  3.1607  0.8095  0.9062
  158SAPE  H19S17685   5.764   4.415   8.839 -1.3196 -0.2524 -0.6595
  158SAPE  C22017686   5.918   4.556   8.844  0.5212  0.0391  0.3004
  158SAPE  H20R17687   5.973   4.630   8.782  1.4767 -1.0001 -0.0965
  158SAPE  H20S17688   5.983   4.479   8.890  1.7191 -0.7878 -2.6914
  158SAPE  H20T17689   5.882   4.601   8.939  3.2157 -0.0388  1.4106
  158SAPE   C3317690   5.859   4.960   9.783 -0.2100 -0.1095  0.6173
  158SAPE   H3X17691   5.791   5.017   9.717 -1.9272 -2.5202  0.2375
  158SAPE   H3Y17692   5.821   4.859   9.809  2.3245 -0.7648  1.9316
  158SAPE   C3417693   5.988   4.940   9.698 -0.1271  1.4226 -0.2359
  158SAPE   H4X17694   5.967   4.877   9.609 -1.2522 -0.3380  1.2482
  158SAPE   H4Y17695   6.073   4.905   9.760  0.2438  0.7596 -1.1171
  158SAPE   C3517696   6.030   5.072   9.638  0.1980  0.4047 -0.8795
  158SAPE   H5X17697   6.045   5.147   9.718 -1.6850  0.0645 -0.1904
  158SAPE   H5Y17698   5.946   5.098   9.570 -0.6702  3.2888  1.2115
  158SAPE   C3617699   6.168   5.066   9.569 -1.0585  0.2121  1.0104
  158SAPE   H6X17700   6.153   5.003   9.478  1.5839 -0.5911  1.1058
  158SAPE   H6Y17701   6.246   5.025   9.636 -0.9525 -0.2819  0.5865
  158SAPE   C3717702   6.230   5.199   9.517  0.4458  0.4495 -0.5410
  158SAPE   H7X17703   6.320   5.153   9.470  0.3901  1.1123 -1.3056
  158SAPE   H7Y17704   6.255   5.268   9.602 -2.6090 -1.8503  2.3586
  158SAPE   C3817705   6.172   5.263   9.398 -0.9701 -0.3028  0.1031
  158SAPE   H8X17706   6.237   5.351   9.377  0.1254 -1.3118 -0.7777
  158SAPE   H8Y17707   6.071   5.292   9.435  0.0103  0.7275  2.0888
  158SAPE   C3917708   6.152   5.186   9.269  0.2001  0.3846 -0.1603
  158SAPE   H9X17709   6.064   5.120   9.282 -1.0928  2.4727  2.1769
  158SAPE   H9Y17710   6.246   5.131   9.245  0.7188  2.1385 -2.3509
  158SAPE  C31017711   6.132   5.290   9.146 -0.7890  0.3111  0.2090
  158SAPE  H10X17712   6.212   5.368   9.148 -2.2993  1.8587  2.0830
  158SAPE  H10Y17713   6.035   5.339   9.170 -1.1145 -1.3968  2.4866
  158SAPE  C31117714   6.133   5.230   9.002  0.0794 -0.0426 -0.2281
  158SAPE  H11X17715   6.079   5.133   8.999  0.8008 -0.4409 -0.4253
  158SAPE  H11Y17716   6.240   5.222   8.971  0.1092 -3.3092  0.5254
  158SAPE  C31217717   6.065   5.325   8.903 -0.1440 -0.1293 -0.1736
  158SAPE  H12X17718   6.119   5.422   8.909 -2.2993  1.0009  1.5498
  158SAPE  H12Y17719   5.961   5.334   8.942 -1.4553 -1.3031 -3.2222
  158SAPE  C31317720   6.069   5.261   8.767 -0.3074  0.3481 -0.6784
  158SAPE  H13X17721   6.066   5.150   8.778  2.5499  0.0253 -2.4947
  158SAPE  H13Y17722   6.163   5.293   8.715 -1.5367  0.5510 -2.8401
  158SAPE  C31417723   5.953   5.314   8.687 -0.0277  0.4829  0.1032
  158SAPE  H14X17724   5.957   5.424   8.676  2.2881  0.5498  1.2294
  158SAPE  H14Y17725   5.857   5.287   8.736  1.2976 -3.7239  0.5917
  158SAPE  C31517726   5.964   5.254   8.545  0.4928  0.2498 -0.4275
  158SAPE  H15X17727   5.984   5.146   8.556 -0.1517  0.3001  1.3272
  158SAPE  H15Y17728   6.051   5.303   8.497 -0.7510  0.6081 -2.3782
  158SAPE  C31617729   5.840   5.268   8.452  0.1906  0.1857  0.1871
  158SAPE  H16X17730   5.747   5.241   8.506 -1.6946  0.7710 -2.6553
  158SAPE  H16Y17731   5.849   5.209   8.358  0.9367  0.2353  0.2265
  158SAPE  C31717732   5.826   5.408   8.389 -0.1648 -0.2874  0.2672
  158SAPE  H17X17733   5.909   5.423   8.316  0.3137 -0.8895  0.6777
  158SAPE  H17Y17734   5.845   5.484   8.467  0.8155  0.0161 -0.2493
  158SAPE  C31817735   5.690   5.435   8.329  0.0161  0.1798  0.4805
  158SAPE  H18X17736   5.616   5.423   8.412 -2.1363  1.7354 -1.1570
  158SAPE  H18Y17737   5.674   5.360   8.249 -2.4643  0.9692  0.1876
  158SAPE  H18Z17738   5.682   5.542   8.299  2.1711  0.4446  0.7843
  159SAPE     N17739   6.115   2.266   6.614 -0.7363 -0.2359  0.2422
  159SAPE   HN117740   6.176   2.204   6.671 -1.7345 -1.1724  0.2994
  159SAPE   HN217741   6.168   2.324   6.546 -0.5754 -0.0865  0.4938
  159SAPE   HN317742   6.084   2.337   6.684 -0.4727 -2.0344  2.2546
  159SAPE   C1217743   5.997   2.206   6.550  0.2777 -0.2664 -0.1065
  159SAPE  H12A17744   5.946   2.136   6.619 -1.0776  1.0262  0.2359
  159SAPE  H12B17745   6.031   2.143   6.465 -0.5450 -0.8186 -0.0247
  159SAPE   C1117746   5.899   2.320   6.502 -0.3228  0.3566  0.1635
  159SAPE  H11A17747   5.801   2.278   6.473  0.5061 -1.2990 -0.3081
  159SAPE  H11B17748   5.940   2.360   6.407  0.2974  0.9827  0.6833
  159SAPE     P17749   5.744   2.491   6.623 -0.0565 -0.0348 -0.0266
  159SAPE   O1317750   5.747   2.604   6.724  0.4919  0.0426  0.4805
  159SAPE   O1417751   5.680   2.517   6.489 -0.3887 -0.1393  0.2696
  159SAPE   O1217752   5.888   2.427   6.596 -0.0023  0.7659  0.3866
  159SAPE   O1117753   5.663   2.368   6.682 -0.2403  0.3053  0.0220
  159SAPE    C117754   5.730   2.273   6.766 -0.1355  0.0105  0.6663
  159SAPE    HA17755   5.739   2.177   6.710  0.8542  1.8058 -2.4017
  159SAPE    HB17756   5.834   2.303   6.791  0.1222 -0.7734  0.5712
  159SAPE    C217757   5.648   2.248   6.891 -0.2446  0.0667  0.7491
  159SAPE    HS17758   5.546   2.213   6.864 -0.5586  0.6746  1.1371
  159SAPE   O2117759   5.653   2.362   6.968  0.1391 -1.3831 -0.3463
  159SAPE   C2117760   5.559   2.461   6.946  0.0309  0.6684  0.3931
  159SAPE   O2217761   5.462   2.443   6.868 -0.6448  0.1786 -0.0067
  159SAPE   C2217762   5.600   2.587   7.015  0.6306 -0.5916 -0.6514
  159SAPE   H2R17763   5.654   2.557   7.107 -1.6771  1.9990  1.6512
  159SAPE   H2S17764   5.676   2.637   6.952  2.0533  0.0626  1.5184
  159SAPE    C317765   5.712   2.142   6.975  0.2021  0.1217 -0.3123
  159SAPE    HX17766   5.717   2.049   6.915 -0.6998 -0.6398  0.7753
  159SAPE    HY17767   5.647   2.117   7.062 -0.4926 -2.3138 -1.4867
  159SAPE   O3117768   5.840   2.179   7.023  0.4867  0.4872  0.7059
  159SAPE   C3117769   5.945   2.134   6.963 -0.9897  0.0315  0.7716
  159SAPE   O3217770   5.945   2.070   6.860  0.1056  0.4925 -0.2255
  159SAPE   C3217771   6.069   2.195   7.025  0.3363  0.2112 -0.1971
  159SAPE   H2X17772   6.056   2.298   6.986 -0.4990  1.1239  2.4327
  159SAPE   H2Y17773   6.160   2.145   6.983  1.0947  0.4085  1.1942
  159SAPE   C2317774   5.482   2.675   7.052 -0.2850  0.5086  0.7124
  159SAPE   H3R17775   5.393   2.661   6.987  1.3956  0.2315 -1.5758
  159SAPE   H3S17776   5.526   2.776   7.036 -0.0325  0.4329  0.9219
  159SAPE   C2417777   5.449   2.663   7.201 -0.9447 -0.7586  0.3912
  159SAPE   H4R17778   5.369   2.735   7.230  0.8064  1.8337 -0.9408
  159SAPE   H4S17779   5.547   2.683   7.250 -0.0301 -1.2823 -1.1869
  159SAPE   C2517780   5.409   2.527   7.253  0.0519 -0.6867  0.5548
  159SAPE   H5R17781   5.312   2.498   7.212  0.7547  0.3660 -1.9098
  159SAPE   C2617782   5.470   2.445   7.342 -0.7976  0.7333  0.4932
  159SAPE   H6R17783   5.404   2.365   7.379 -0.2025 -0.8697 -1.8093
  159SAPE   C2717784   5.606   2.463   7.412 -0.2450  0.3156  0.3155
  159SAPE   H7R17785   5.587   2.477   7.521 -3.3941 -0.3334 -0.1086
  159SAPE   H7S17786   5.652   2.560   7.382 -1.0626  0.5884 -0.0520
  159SAPE   C2817787   5.696   2.358   7.363 -0.3283 -0.0290  0.0090
  159SAPE   H8R17788   5.780   2.399   7.304 -0.5750 -0.8351 -0.9047
  159SAPE   C2917789   5.699   2.224   7.391  0.2381 -0.0734  0.1780
  159SAPE   H9R17790   5.768   2.161   7.334 -0.2974 -1.5699  1.1440
  159SAPE  C21017791   5.609   2.155   7.490 -0.2562  0.3019 -0.3142
  159SAPE  H10R17792   5.523   2.216   7.525  0.9002  3.2550 -2.3828
  159SAPE  H10S17793   5.664   2.140   7.585 -0.9833  0.0407  0.0716
  159SAPE  C21117794   5.565   2.032   7.422  0.0230  0.3974  0.2218
  159SAPE  H11R17795   5.497   2.051   7.338  0.5803  1.2458 -0.0525
  159SAPE  C21217796   5.586   1.907   7.468  0.2690  0.3683 -0.0429
  159SAPE  H12R17797   5.557   1.825   7.402  0.7208 -0.9311  1.3566
  159SAPE  C21317798   5.664   1.865   7.595  0.2966  0.0721 -0.0362
  159SAPE  H13R17799   5.722   1.949   7.638 -2.5037  1.6479  0.8036
  159SAPE  H13S17800   5.735   1.786   7.563 -0.0624 -0.4880  0.5424
  159SAPE  C21417801   5.567   1.813   7.699  0.1834 -0.1994 -0.2937
  159SAPE  H14R17802   5.483   1.759   7.652  0.6452  0.9924 -2.5893
  159SAPE  C21517803   5.566   1.839   7.826 -0.5517  0.3686 -0.0891
  159SAPE  H15R17804   5.494   1.780   7.885 -0.3054  0.7117  0.5614
  159SAPE  C21617805   5.672   1.914   7.903  0.4996  0.1766 -1.0164
  159SAPE  H16R17806   5.631   2.004   7.955  0.3098 -1.3929  1.6537
  159SAPE  H16S17807   5.761   1.958   7.853  1.0575  1.3298  0.9141
  159SAPE  C21717808   5.713   1.825   8.019 -0.0863  0.0820  0.7794
  159SAPE  H17R17809   5.801   1.869   8.071 -1.5790  1.1284  2.4836
  159SAPE  H17S17810   5.730   1.719   7.991  3.2950  0.6272  0.6371
  159SAPE  C21817811   5.609   1.826   8.125 -0.8285  0.6285  0.0974
  159SAPE  H18R17812   5.508   1.784   8.107 -0.7350  0.5256 -0.1852
  159SAPE  H18S17813   5.598   1.931   8.160 -0.6529  0.4564  0.6714
  159SAPE  C21917814   5.666   1.751   8.246  0.5181 -0.0998 -0.5308
  159SAPE  H19R17815   5.768   1.792   8.263  0.7687 -0.9042 -0.0547
  159SAPE  H19S17816   5.682   1.645   8.215 -0.5336 -0.1022 -1.0789
  159SAPE  C22017817   5.576   1.745   8.370  0.1560  0.3296  0.4117
  159SAPE  H20R17818   5.623   1.691   8.455  1.2230  2.4368  1.1998
  159SAPE  H20S17819   5.483   1.690   8.344  0.3176  0.3489 -0.2083
  159SAPE  H20T17820   5.544   1.846   8.403 -1.3114 -0.0902  0.2926
  159SAPE   C3317821   6.075   2.205   7.181  0.2065 -0.1452 -0.1365
  159SAPE   H3X17822   6.005   2.282   7.219  1.8433  1.7478 -0.8535
  159SAPE   H3Y17823   6.177   2.243   7.205  0.4820 -0.7243 -0.3654
  159SAPE   C3417824   6.041   2.071   7.249  0.5588 -0.2611 -0.2579
  159SAPE   H4X17825   6.095   1.983   7.208  0.4863 -0.1609 -0.5631
  159SAPE   H4Y17826   5.932   2.052   7.238  0.4760  0.3655 -0.5324
  159SAPE   C3517827   6.084   2.087   7.395 -0.2302  0.2243 -0.3775
  159SAPE   H5X17828   6.016   2.156   7.451  0.1192 -1.2057  1.8811
  159SAPE   H5Y17829   6.190   2.120   7.398  0.0931 -0.6001 -2.3044
  159SAPE   C3617830   6.077   1.951   7.468  0.5808 -0.0321  0.5900
  159SAPE   H6X17831   6.165   1.889   7.442  0.3080 -1.1065  2.1200
  159SAPE   H6Y17832   5.979   1.914   7.432  1.3230 -1.0200 -0.4558
  159SAPE   C3717833   6.064   1.968   7.618 -0.5159 -0.3373 -0.0264
  159SAPE   H7X17834   6.051   1.869   7.667 -1.6444 -0.7535 -1.1661
  159SAPE   H7Y17835   5.972   2.026   7.641  0.5354  0.5778  2.0306
  159SAPE   C3817836   6.190   2.024   7.684  0.2978 -0.6864  0.5063
  159SAPE   H8X17837   6.207   2.117   7.627  0.5706 -1.0905 -0.0788
  159SAPE   H8Y17838   6.280   1.961   7.669  1.0521  0.5147 -0.0012
  159SAPE   C3917839   6.178   2.037   7.832  0.5048 -0.3961  0.4423
  159SAPE   H9X17840   6.274   2.029   7.887  0.7392 -1.4298 -0.1131
  159SAPE   H9Y17841   6.118   1.948   7.861 -1.2601  0.7440  0.3621
  159SAPE  C31017842   6.097   2.160   7.878 -0.4782 -0.2251 -0.3350
  159SAPE  H10X17843   5.989   2.172   7.853 -1.4195  0.1173  3.5420
  159SAPE  H10Y17844   6.156   2.243   7.835  0.5668  0.5319  2.4650
  159SAPE  C31117845   6.099   2.182   8.037 -0.1469 -0.0257 -0.2388
  159SAPE  H11X17846   6.066   2.285   8.060 -0.7255 -0.4181  0.7018
  159SAPE  H11Y17847   6.201   2.171   8.078 -1.0081 -0.0414  1.9778
  159SAPE  C31217848   6.015   2.075   8.117  0.6396  0.0364 -0.7845
  159SAPE  H12X17849   6.068   1.978   8.122 -0.6381 -0.6107  0.6915
  159SAPE  H12Y17850   5.914   2.070   8.070  0.3916 -2.1897 -0.0905
  159SAPE  C31317851   5.986   2.129   8.258 -1.0539 -0.1338  0.9337
  159SAPE  H13X17852   5.943   2.231   8.246  2.0984  1.3664  1.7416
  159SAPE  H13Y17853   6.081   2.146   8.314 -0.2385 -0.5444 -0.3218
  159SAPE  C31417854   5.885   2.049   8.341  0.2231  0.0503  0.1241
  159SAPE  H14X17855   5.923   1.945   8.340  0.6777  0.2200 -0.2104
  159SAPE  H14Y17856   5.784   2.045   8.294 -0.8324 -1.7578  2.4309
  159SAPE  C31517857   5.862   2.099   8.488 -0.2860  0.0159  0.2634
  159SAPE  H15X17858   5.813   2.198   8.476 -2.7023 -1.1830 -0.2174
  159SAPE  H15Y17859   5.962   2.118   8.532  0.2725  0.3828 -1.1420
  159SAPE  C31617860   5.766   2.016   8.572 -0.0918 -0.0916 -0.9033
  159SAPE  H16X17861   5.801   1.911   8.578  0.3894  0.1389  0.5997
  159SAPE  H16Y17862   5.662   2.030   8.535  0.7605  1.1481 -2.8974
  159SAPE  C31717863   5.776   2.072   8.721 -0.1527  0.2426 -0.7029
  159SAPE  H17X17864   5.740   2.177   8.710  0.5185  0.7624  1.7121
  159SAPE  H17Y17865   5.882   2.073   8.754  0.1699 -0.7566 -1.7226
  159SAPE  C31817866   5.704   2.005   8.837 -0.1253 -0.7255 -0.3022
  159SAPE  H18X17867   5.754   1.908   8.856  0.8722 -0.2125 -0.2419
  159SAPE  H18Y17868   5.603   1.986   8.796  0.9783 -0.9099 -3.0462
  159SAPE  H18Z17869   5.703   2.081   8.918 -0.2337 -1.5711  0.4864
  160SAPE     N17870   4.785   3.143   6.206  0.3883  0.0004 -0.8543
  160SAPE   HN117871   4.720   3.089   6.268  0.6716  0.0718 -0.4921
  160SAPE   HN217872   4.727   3.187   6.132  0.6906  0.7458 -0.6545
  160SAPE   HN317873   4.851   3.078   6.158  0.1401 -1.8317  1.1986
  160SAPE   C1217874   4.853   3.252   6.293 -0.0203 -0.0910  0.3084
  160SAPE  H12A17875   4.887   3.333   6.226  3.2387 -1.7926 -0.1784
  160SAPE  H12B17876   4.938   3.197   6.340 -0.4650 -0.4928  0.6581
  160SAPE   C1117877   4.749   3.294   6.393  0.8249 -0.3733  0.1656
  160SAPE  H11A17878   4.799   3.351   6.474 -0.0180  1.0664 -0.3062
  160SAPE  H11B17879   4.732   3.203   6.453  0.4885 -0.2750  0.2217
  160SAPE     P17880   4.608   3.512   6.325  0.2660 -0.5949  0.0809
  160SAPE   O1317881   4.701   3.580   6.233 -0.0476  0.1163  0.3661
  160SAPE   O1417882   4.466   3.528   6.300 -0.2058  0.1897  0.2358
  160SAPE   O1217883   4.637   3.356   6.330 -0.2603 -0.3889  0.1365
  160SAPE   O1117884   4.647   3.546   6.474 -0.2961 -0.5957  0.6319
  160SAPE    C117885   4.554   3.549   6.573  0.1508  0.4170  0.7460
  160SAPE    HA17886   4.511   3.651   6.584 -1.1957 -0.3016  2.5068
  160SAPE    HB17887   4.477   3.470   6.570  2.3331 -1.8828  3.1153
  160SAPE    C217888   4.624   3.515   6.710  0.2704 -0.2621 -0.3729
  160SAPE    HS17889   4.668   3.413   6.704  2.0669  0.3818  1.5389
  160SAPE   O2117890   4.525   3.542   6.814 -0.5251  0.5343 -0.2149
  160SAPE   C2117891   4.445   3.434   6.838 -0.0395  0.0107 -0.2015
  160SAPE   O2217892   4.475   3.323   6.812 -0.2336  0.4051  0.1336
  160SAPE   C2217893   4.307   3.478   6.896 -0.1390  0.1611 -0.1154
  160SAPE   H2R17894   4.335   3.508   6.999 -2.4589  1.8688  0.0735
  160SAPE   H2S17895   4.287   3.570   6.837  0.8305  0.3514 -0.1648
  160SAPE    C317896   4.739   3.609   6.748  0.0729 -0.0215 -0.2735
  160SAPE    HX17897   4.717   3.718   6.738  0.5643  0.0522 -0.5733
  160SAPE    HY17898   4.822   3.589   6.677 -0.0225 -0.4892 -0.2517
  160SAPE   O3117899   4.771   3.581   6.883 -0.1731 -0.0393  0.2822
  160SAPE   C3117900   4.872   3.504   6.908 -0.1260  0.3260 -0.0765
  160SAPE   O3217901   4.936   3.438   6.832 -0.8735 -0.7145  0.2932
  160SAPE   C3217902   4.899   3.498   7.059  0.7240  0.1409  0.0035
  160SAPE   H2X17903   4.978   3.424   7.083  0.6811  0.2701  0.5448
  160SAPE   H2Y17904   4.805   3.464   7.108  1.1739  0.0763  0.8364
  160SAPE   C2317905   4.178   3.390   6.898  0.8996 -0.6970  0.0464
  160SAPE   H3R17906   4.161   3.346   6.797  1.8811  1.1888 -0.9719
  160SAPE   H3S17907   4.094   3.454   6.932  0.4516  0.6503 -3.3723
  160SAPE   C2417908   4.201   3.284   7.006 -0.0119  0.7214  0.0768
  160SAPE   H4R17909   4.100   3.261   7.046 -0.1789 -1.4333 -1.5028
  160SAPE   H4S17910   4.250   3.326   7.097  2.1691  0.0022 -0.7325
  160SAPE   C2517911   4.267   3.158   6.961 -0.4185  0.7918  0.2092
  160SAPE   H5R17912   4.215   3.096   6.887 -1.5620  1.0133  0.8136
  160SAPE   C2617913   4.388   3.112   7.005 -1.0556  0.1679 -0.9202
  160SAPE   H6R17914   4.427   3.015   6.971 -0.5189  0.6800 -1.7887
  160SAPE   C2717915   4.485   3.181   7.100 -0.2752 -0.9457  0.6972
  160SAPE   H7R17916   4.479   3.291   7.087  1.7346 -0.8690  0.3274
  160SAPE   H7S17917   4.591   3.165   7.072  0.2371  1.4117  1.1372
  160SAPE   C2817918   4.447   3.137   7.238  1.2368 -0.4522  0.2283
  160SAPE   H8R17919   4.444   3.028   7.249 -0.6982 -0.5203 -0.8585
  160SAPE   C2917920   4.414   3.223   7.335 -0.6275 -0.1005 -0.4358
  160SAPE   H9R17921   4.420   3.186   7.438 -0.8444  1.2544  0.0763
  160SAPE  C21017922   4.400   3.379   7.334  0.2400 -0.2477  0.0708
  160SAPE  H10R17923   4.421   3.417   7.232  1.3748  0.1646  0.4535
  160SAPE  H10S17924   4.479   3.415   7.404 -0.7096  2.3959 -0.1759
  160SAPE  C21117925   4.265   3.433   7.377 -0.4523 -0.1665 -0.7262
  160SAPE  H11R17926   4.179   3.411   7.312 -1.7381  0.4658  0.7321
  160SAPE  C21217927   4.243   3.502   7.496 -0.4709 -0.3525  0.2327
  160SAPE  H12R17928   4.143   3.538   7.526  0.2300  0.3722  1.7331
  160SAPE  C21317929   4.355   3.533   7.595 -0.4241  0.6089  0.1374
  160SAPE  H13R17930   4.444   3.587   7.557  1.5974 -1.6879  1.3885
  160SAPE  H13S17931   4.394   3.435   7.631  0.0984  0.9923  0.6232
  160SAPE  C21417932   4.317   3.618   7.709 -0.2844 -0.2408  0.6091
  160SAPE  H14R17933   4.343   3.723   7.688 -0.1416 -0.1994  1.0030
  160SAPE  C21517934   4.252   3.579   7.822  0.0220  0.6134 -0.2662
  160SAPE  H15R17935   4.242   3.658   7.898 -1.4932  0.1944 -0.0176
  160SAPE  C21617936   4.204   3.440   7.862  0.0365 -0.3187  0.0436
  160SAPE  H16R17937   4.238   3.369   7.783 -0.5808 -0.1972 -0.3388
  160SAPE  H16S17938   4.093   3.437   7.870  0.1009  1.0374  1.6870
  160SAPE  C21717939   4.265   3.405   7.997 -0.1385 -0.0471 -0.0672
  160SAPE  H17R17940   4.245   3.487   8.070 -1.3215  0.2706 -0.7196
  160SAPE  H17S17941   4.375   3.400   8.002  0.1169  1.6105 -2.9501
  160SAPE  C21817942   4.208   3.275   8.057  0.7371 -0.1466 -0.1625
  160SAPE  H18R17943   4.285   3.213   8.107 -1.2209 -2.3457  0.1856
  160SAPE  H18S17944   4.181   3.215   7.968 -1.8574 -1.6179  1.5701
  160SAPE  C21917945   4.078   3.289   8.140  0.3276 -0.5465  0.3972
  160SAPE  H19R17946   3.997   3.319   8.071  2.7754 -1.4309 -2.9587
  160SAPE  H19S17947   4.104   3.368   8.214  0.7306  1.0919 -1.4446
  160SAPE  C22017948   4.034   3.156   8.206  0.5773 -0.0278 -0.5405
  160SAPE  H20R17949   4.014   3.077   8.131  1.7715 -2.5332  1.7303
  160SAPE  H20S17950   3.936   3.177   8.254  1.0627 -0.6043  0.7060
  160SAPE  H20T17951   4.096   3.119   8.290 -0.1506  0.7186  0.3405
  160SAPE   C3317952   4.933   3.637   7.129  0.2095  0.4246 -0.5942
  160SAPE   H3X17953   4.880   3.719   7.076  1.2354 -0.0457 -2.3835
  160SAPE   H3Y17954   5.042   3.650   7.112  0.5925  1.0242  2.0639
  160SAPE   C3417955   4.885   3.651   7.276  0.0085  0.6789  0.5537
  160SAPE   H4X17956   4.965   3.601   7.334  0.9450 -0.2784 -1.5213
  160SAPE   H4Y17957   4.784   3.607   7.291  0.4390 -0.7578 -0.6259
  160SAPE   C3517958   4.877   3.795   7.306  0.1311  0.0090 -0.3810
  160SAPE   H5X17959   4.792   3.836   7.248  0.5557 -0.7660 -1.5782
  160SAPE   H5Y17960   4.973   3.838   7.269  0.3371 -0.8045 -0.8300
  160SAPE   C3617961   4.857   3.811   7.459  0.0497  0.3845  0.0284
  160SAPE   H6X17962   4.758   3.774   7.495  0.0907  0.5139  0.2789
  160SAPE   H6Y17963   4.854   3.921   7.473  1.5377  0.5091 -0.5696
  160SAPE   C3717964   4.975   3.754   7.538  0.3282  0.1547 -0.1244
  160SAPE   H7X17965   5.074   3.792   7.506  0.3654  0.4397  0.3238
  160SAPE   H7Y17966   4.982   3.643   7.541 -2.1637  0.0018  3.7516
  160SAPE   C3817967   4.966   3.779   7.688 -0.3036  0.4438 -0.5032
  160SAPE   H8X17968   5.037   3.709   7.737  0.5521  1.4060 -0.3504
  160SAPE   H8Y17969   4.863   3.764   7.728 -1.3743  0.4827 -3.1328
  160SAPE   C3917970   5.005   3.922   7.720 -0.1376  0.4779 -0.1751
  160SAPE   H9X17971   4.935   3.997   7.677 -0.3054  2.2581  3.0503
  160SAPE   H9Y17972   5.110   3.931   7.686  0.8557 -3.3505  1.5501
  160SAPE  C31017973   4.992   3.944   7.873  0.4990  0.3128  0.4639
  160SAPE  H10X17974   4.891   3.912   7.906  0.6379 -1.4531 -0.7799
  160SAPE  H10Y17975   4.988   4.052   7.900 -0.6252 -0.3712  3.2225
  160SAPE  C31117976   5.100   3.874   7.964 -0.3459  0.1572  0.2746
  160SAPE  H11X17977   5.188   3.923   7.916 -2.3486  1.5609 -2.0770
  160SAPE  H11Y17978   5.095   3.767   7.934  1.8368  0.1176 -0.0353
  160SAPE  C31217979   5.081   3.900   8.113  0.4974 -0.0063 -0.6958
  160SAPE  H12X17980   4.990   3.846   8.148  1.9000 -0.0597  3.0760
  160SAPE  H12Y17981   5.059   4.004   8.146 -0.0759 -0.0776 -0.8343
  160SAPE  C31317982   5.201   3.849   8.197  0.5100  0.1545 -0.1446
  160SAPE  H13X17983   5.285   3.920   8.181  0.5452  0.0644 -0.3606
  160SAPE  H13Y17984   5.224   3.744   8.167 -0.0040 -0.5296  1.7523
  160SAPE  C31417985   5.161   3.833   8.341  0.2278 -0.1183  0.3587
  160SAPE  H14X17986   5.075   3.762   8.335  2.2231 -2.3326 -3.7727
  160SAPE  H14Y17987   5.127   3.931   8.379 -0.1265  0.5406 -1.6189
  160SAPE  C31517988   5.270   3.777   8.421 -0.0032 -0.7782  0.7621
  160SAPE  H15X17989   5.306   3.688   8.364  1.7721 -0.2099  0.9734
  160SAPE  H15Y17990   5.212   3.735   8.506 -2.8007  0.6642 -0.3622
  160SAPE  C31617991   5.382   3.873   8.470  0.2054  0.3341  0.1493
  160SAPE  H16X17992   5.344   3.947   8.543 -1.0396  1.1758 -1.3370
  160SAPE  H16Y17993   5.417   3.936   8.385  0.9175 -1.3576 -0.8364
  160SAPE  C31717994   5.503   3.802   8.528  0.2501  0.0055  0.2761
  160SAPE  H17X17995   5.582   3.880   8.534  1.2436 -0.9723 -0.0618
  160SAPE  H17Y17996   5.543   3.729   8.456 -1.9386  0.7059 -1.7203
  160SAPE  C31817997   5.461   3.741   8.665 -0.6457 -0.6622 -0.1782
  160SAPE  H18X17998   5.354   3.767   8.681 -0.4867  0.2713 -0.6478
  160SAPE  H18Y17999   5.524   3.793   8.739 -2.3064 -1.9753  2.2159
  160SAPE  H18Z18000   5.478   3.631   8.664 -0.3654 -0.6533  1.9441
  161SAPE     N18001   0.747   1.084   6.406 -0.1392  0.2878 -0.2328
  161SAPE   HN118002   0.798   0.995   6.424  0.0187  0.2184 -0.9798
  161SAPE   HN218003   0.812   1.142   6.348  0.0337  1.2902  0.9378
  161SAPE   HN318004   0.729   1.133   6.496  2.4682 -0.8415  0.9632
  161SAPE   C1218005   0.617   1.055   6.340  0.7730  0.1213  0.1177
  161SAPE  H12A18006   0.552   1.025   6.425  0.4349 -2.1276 -0.9160
  161SAPE  H12B18007   0.629   0.964   6.278 -1.5043  0.6598 -1.1810
  161SAPE   C1118008   0.540   1.178   6.278  0.3790 -0.4011  0.1667
  161SAPE  H11A18009   0.450   1.136   6.228  1.4928 -1.2910 -1.1518
  161SAPE  H11B18010   0.607   1.226   6.202  0.8180  0.2702  0.9751
  161SAPE     P18011   0.431   1.417   6.337  0.0414 -0.0026  0.1495
  161SAPE   O1318012   0.505   1.516   6.414 -0.4289 -0.0271 -0.6226
  161SAPE   O1418013   0.429   1.422   6.193 -0.5618 -0.0492 -0.3717
  161SAPE   O1218014   0.499   1.276   6.380  0.2869  0.2971 -0.2295
  161SAPE   O1118015   0.285   1.399   6.384 -0.2405 -0.3503 -0.7148
  161SAPE    C118016   0.242   1.289   6.470  0.1877  0.2005  0.1447
  161SAPE    HA18017   0.135   1.268   6.449  0.5958 -2.0319  0.1555
  161SAPE    HB18018   0.286   1.190   6.445 -0.7120  0.1587 -1.3091
  161SAPE    C218019   0.261   1.313   6.629  0.2601 -0.5774 -0.6002
  161SAPE    HS18020   0.216   1.223   6.675  1.8394  0.0049  2.1989
  161SAPE   O2118021   0.180   1.420   6.661 -0.0320  0.7306 -0.1636
  161SAPE   C2118022   0.118   1.425   6.775  0.0035  0.2186 -0.9264
  161SAPE   O2218023   0.118   1.335   6.860 -0.6381  0.3595 -0.3203
  161SAPE   C2218024   0.048   1.558   6.793  0.7750 -0.1608  0.2747
  161SAPE   H2R18025   0.124   1.633   6.761  0.8101 -0.7802 -1.1570
  161SAPE   H2S18026  -0.043   1.564   6.729  0.1999 -1.5731  0.9318
  161SAPE    C318027   0.407   1.322   6.682 -0.1911 -0.7349  0.0557
  161SAPE    HX18028   0.454   1.411   6.636 -2.5256  0.0708 -0.8348
  161SAPE    HY18029   0.450   1.232   6.634 -1.0927 -1.1064 -0.0608
  161SAPE   O3118030   0.422   1.320   6.827  0.0596 -0.2688  0.3512
  161SAPE   C3118031   0.410   1.437   6.893 -0.1609 -0.2228  0.0941
  161SAPE   O3218032   0.390   1.544   6.837  0.1861  0.1786 -0.1638
  161SAPE   C3218033   0.443   1.412   7.045 -0.0715 -0.7505  0.6808
  161SAPE   H2X18034   0.517   1.489   7.073  1.0705 -1.7333  0.4319
  161SAPE   H2Y18035   0.481   1.309   7.061 -2.1099 -1.6673 -0.1452
  161SAPE   C2318036   0.024   1.594   6.938 -0.1616  0.1478 -0.2594
  161SAPE   H3R18037   0.112   1.574   7.003  0.6131  0.0082 -1.3408
  161SAPE   H3S18038  -0.061   1.531   6.972  0.9692 -1.3965 -0.2642
  161SAPE   C2418039  -0.029   1.742   6.956 -0.1879 -0.6383  0.1422
  161SAPE   H4R18040  -0.081   1.737   7.055  1.7647  0.4275  1.2420
  161SAPE   H4S18041  -0.098   1.769   6.873 -0.6767  0.6415  0.9488
  161SAPE   C2518042   0.087   1.838   6.957 -0.3250  0.0249  0.5540
  161SAPE   H5R18043   0.110   1.886   6.861 -3.0368  1.1100  0.4240
  161SAPE   C2618044   0.165   1.857   7.065  0.0733 -0.2230 -0.4678
  161SAPE   H6R18045   0.246   1.932   7.062  0.3654 -0.5979 -2.0671
  161SAPE   C2718046   0.152   1.786   7.198  0.9086  0.0959 -0.3278
  161SAPE   H7R18047   0.248   1.732   7.207 -0.5566 -2.1751  2.3312
  161SAPE   H7S18048   0.076   1.706   7.208 -0.0081  0.8429 -1.1508
  161SAPE   C2818049   0.139   1.884   7.311 -0.5117  0.1440  0.3652
  161SAPE   H8R18050   0.091   1.979   7.284  1.0252  0.9010  0.2463
  161SAPE   C2918051   0.178   1.866   7.440 -0.1911  0.1388 -0.7945
  161SAPE   H9R18052   0.146   1.933   7.521 -0.8800  2.1295 -2.6516
  161SAPE  C21018053   0.258   1.748   7.494 -0.2851 -0.2254 -0.0187
  161SAPE  H10R18054   0.281   1.673   7.416 -1.6055 -1.0380  0.3529
  161SAPE  H10S18055   0.196   1.694   7.569 -2.5229  2.2721 -0.0110
  161SAPE  C21118056   0.386   1.788   7.553 -0.7518 -0.4526 -0.6550
  161SAPE  H11R18057   0.461   1.827   7.483  1.3639 -0.5091  1.5247
  161SAPE  C21218058   0.430   1.768   7.678 -0.0257 -0.2125 -0.0331
  161SAPE  H12R18059   0.535   1.793   7.698  0.5103 -1.9842 -0.5876
  161SAPE  C21318060   0.355   1.709   7.790  0.2042 -0.3500  0.3752
  161SAPE  H13R18061   0.390   1.605   7.808  0.6858 -0.6342 -2.0124
  161SAPE  H13S18062   0.247   1.723   7.768  0.2880  1.1679  0.9034
  161SAPE  C21418063   0.373   1.772   7.923 -0.0120  0.8926  0.7444
  161SAPE  H14R18064   0.385   1.881   7.923 -1.1276  1.0323 -1.2648
  161SAPE  C21518065   0.372   1.712   8.049  0.7437 -0.2615 -0.1092
  161SAPE  H15R18066   0.378   1.777   8.138  0.4923 -2.0821  1.2518
  161SAPE  C21618067   0.358   1.562   8.082 -0.0130  0.2494 -0.2498
  161SAPE  H16R18068   0.367   1.500   7.990 -1.8266 -0.5678  0.1010
  161SAPE  H16S18069   0.267   1.540   8.142  1.1902 -0.8210  1.2184
  161SAPE  C21718070   0.463   1.527   8.190 -0.7784 -0.4283 -0.1410
  161SAPE  H17R18071   0.560   1.581   8.178  0.7238 -2.9271  0.2730
  161SAPE  H17S18072   0.484   1.422   8.159  3.2943  0.1493  0.3672
  161SAPE  C21818073   0.419   1.537   8.332  0.4133 -0.3897 -0.3461
  161SAPE  H18R18074   0.358   1.448   8.359 -1.4823  0.0780 -2.9433
  161SAPE  H18S18075   0.356   1.626   8.353 -0.3416 -0.9034 -0.3940
  161SAPE  C21918076   0.537   1.540   8.432  0.2897  0.5873 -0.4905
  161SAPE  H19R18077   0.587   1.638   8.423  1.3280  0.4281  2.7504
  161SAPE  H19S18078   0.606   1.456   8.410 -1.7698 -1.7226  1.5371
  161SAPE  C22018079   0.507   1.547   8.583 -0.1583  0.4739  0.3842
  161SAPE  H20R18080   0.591   1.519   8.650 -3.5566 -3.1869  3.3773
  161SAPE  H20S18081   0.417   1.482   8.585  0.9567 -1.2203 -2.7085
  161SAPE  H20T18082   0.485   1.655   8.601 -0.0597  0.7632 -1.1995
  161SAPE   C3318083   0.315   1.412   7.135  0.5162  0.0723 -0.3228
  161SAPE   H3X18084   0.247   1.341   7.084 -0.7582  0.5660  0.6450
  161SAPE   H3Y18085   0.265   1.511   7.145 -0.0581 -0.3168  0.7442
  161SAPE   C3418086   0.355   1.373   7.277  0.3232  0.3888 -0.1354
  161SAPE   H4X18087   0.429   1.449   7.309  0.1128  0.6816 -0.3484
  161SAPE   H4Y18088   0.408   1.275   7.275 -1.5912 -0.6796 -0.5240
  161SAPE   C3518089   0.232   1.350   7.372 -0.4752  0.3596 -0.5332
  161SAPE   H5X18090   0.152   1.290   7.324 -0.7714  0.7184 -0.4929
  161SAPE   H5Y18091   0.180   1.444   7.402  1.8391  1.6658 -0.5043
  161SAPE   C3618092   0.261   1.275   7.511  0.1725 -0.3737  1.1457
  161SAPE   H6X18093   0.305   1.175   7.487  0.1835  0.4978 -2.6182
  161SAPE   H6Y18094   0.161   1.263   7.558  0.8123  0.5195  2.7725
  161SAPE   C3718095   0.357   1.348   7.594 -0.3113 -0.6114  0.0096
  161SAPE   H7X18096   0.334   1.456   7.585  1.4793  0.2612  4.4360
  161SAPE   H7Y18097   0.465   1.333   7.570  0.2127  0.2922  1.6794
  161SAPE   C3818098   0.336   1.318   7.752 -0.3352 -0.2315  0.0615
  161SAPE   H8X18099   0.417   1.366   7.811  1.3088 -0.7691 -1.6759
  161SAPE   H8Y18100   0.346   1.207   7.757  0.1180 -0.1645  0.6903
  161SAPE   C3918101   0.195   1.354   7.812  1.4719 -0.1726 -0.4840
  161SAPE   H9X18102   0.105   1.326   7.753  0.8106  1.9946 -0.5514
  161SAPE   H9Y18103   0.199   1.465   7.823  0.1351 -0.2480  1.1727
  161SAPE  C31018104   0.176   1.298   7.953 -0.3746 -0.0356 -0.1216
  161SAPE  H10X18105   0.273   1.302   8.008  0.3824 -0.5786 -1.3916
  161SAPE  H10Y18106   0.168   1.188   7.961 -1.0357 -0.0080 -0.4372
  161SAPE  C31118107   0.052   1.351   8.026  1.3871 -0.5682  0.4920
  161SAPE  H11X18108  -0.031   1.344   7.953 -0.0884 -0.3072  2.1018
  161SAPE  H11Y18109   0.055   1.458   8.054  1.1240  0.0263 -1.6938
  161SAPE  C31218110   0.002   1.266   8.145  0.0209  0.3685 -0.0760
  161SAPE  H12X18111   0.076   1.270   8.229 -0.8753 -0.7243  0.7756
  161SAPE  H12Y18112  -0.018   1.161   8.116  1.1831 -0.0656  0.6569
  161SAPE  C31318113  -0.130   1.330   8.185  0.2333  0.5145  0.8822
  161SAPE  H13X18114  -0.183   1.367   8.094 -1.3729 -1.5742  0.9228
  161SAPE  H13Y18115  -0.112   1.423   8.242  0.5032  1.7548 -1.1750
  161SAPE  C31418116  -0.217   1.233   8.269 -0.1634 -0.2226 -0.4818
  161SAPE  H14X18117  -0.151   1.177   8.339  0.4191 -0.0203 -0.8677
  161SAPE  H14Y18118  -0.262   1.155   8.205 -1.1016 -0.0742 -0.0176
  161SAPE  C31518119  -0.315   1.309   8.353  0.3008 -0.0526 -0.0704
  161SAPE  H15X18120  -0.402   1.336   8.289 -1.4558 -1.3907  1.6624
  161SAPE  H15Y18121  -0.271   1.404   8.388  1.4384  0.4748 -2.8541
  161SAPE  C31618122  -0.375   1.227   8.468 -0.3511 -0.3902 -0.1262
  161SAPE  H16X18123  -0.296   1.198   8.540  0.6259  0.8546 -0.6845
  161SAPE  H16Y18124  -0.412   1.133   8.423  0.1255 -1.5190  1.7966
  161SAPE  C31718125  -0.481   1.302   8.535  0.9518  0.1389  0.4077
  161SAPE  H17X18126  -0.569   1.321   8.470 -0.4498 -1.5762  1.7494
  161SAPE  H17Y18127  -0.441   1.401   8.565  0.4089  0.5286 -0.1278
  161SAPE  C31818128  -0.522   1.228   8.662  0.1132 -0.5580 -0.4771
  161SAPE  H18X18129  -0.607   1.278   8.713  0.3100 -0.4613 -0.2445
  161SAPE  H18Y18130  -0.441   1.227   8.738 -1.4910  1.1688  1.3102
  161SAPE  H18Z18131  -0.544   1.122   8.634 -0.4409 -0.5059 -0.2479
  162SAPE     N18132   5.072   3.868   6.144 -0.2065  0.0924 -0.0945
  162SAPE   HN118133   5.114   3.861   6.049 -0.4636  2.2148 -0.3825
  162SAPE   HN218134   5.006   3.789   6.160 -3.8774  2.7428 -1.4478
  162SAPE   HN318135   5.028   3.961   6.132 -1.0410 -0.7311 -3.8545
  162SAPE   C1218136   5.184   3.875   6.239  0.2850  0.3071  0.3635
  162SAPE  H12A18137   5.279   3.848   6.187  0.2435  1.9372 -0.5766
  162SAPE  H12B18138   5.161   3.802   6.320 -0.8695  0.9986  0.6719
  162SAPE   C1118139   5.201   4.018   6.290  0.0749 -0.2658  0.7772
  162SAPE  H11A18140   5.298   4.027   6.343  1.0277  1.4053 -1.1967
  162SAPE  H11B18141   5.118   4.055   6.354 -2.7930 -1.4038 -2.1323
  162SAPE     P18142   5.112   4.210   6.130  0.1176 -0.0104  0.6157
  162SAPE   O1318143   5.171   4.318   6.047 -0.3408 -0.4367  0.5220
  162SAPE   O1418144   5.005   4.127   6.067  0.3088  0.2342 -0.6689
  162SAPE   O1218145   5.224   4.105   6.177 -0.6561 -0.2126  0.2117
  162SAPE   O1118146   5.051   4.269   6.261  0.2699 -0.1602  0.2048
  162SAPE    C118147   5.098   4.391   6.318 -0.1204  0.1286 -0.2831
  162SAPE    HA18148   5.188   4.436   6.271  1.0547 -2.6887 -0.8511
  162SAPE    HB18149   5.022   4.469   6.300  0.5113  1.1789  1.5175
  162SAPE    C218150   5.107   4.379   6.472 -0.2087 -0.5279  0.7010
  162SAPE    HS18151   5.115   4.485   6.504 -1.2665 -0.1518 -0.2632
  162SAPE   O2118152   5.207   4.305   6.526 -0.7899  0.1567 -0.6537
  162SAPE   C2118153   5.334   4.342   6.508  0.0992 -0.3094  0.4714
  162SAPE   O2218154   5.372   4.450   6.457  0.2532  0.4458 -0.0599
  162SAPE   C2218155   5.430   4.232   6.553  0.0280  0.0103 -0.1489
  162SAPE   H2R18156   5.380   4.133   6.552  1.2415 -0.6278  1.0534
  162SAPE   H2S18157   5.503   4.233   6.468 -2.8798 -0.8511 -2.7615
  162SAPE    C318158   4.979   4.322   6.538 -0.5707 -0.5575 -0.9126
  162SAPE    HX18159   4.962   4.218   6.503 -0.1242 -1.1903  0.6968
  162SAPE    HY18160   4.890   4.382   6.508  0.5028  1.2923 -0.5128
  162SAPE   O3118161   4.985   4.322   6.689 -0.2310  0.4256  0.0824
  162SAPE   C3118162   4.915   4.234   6.759  0.1016 -0.3156 -0.1511
  162SAPE   O3218163   4.846   4.145   6.712 -0.1078 -0.2593  0.1739
  162SAPE   C3218164   4.932   4.264   6.905 -0.2390  0.6328 -0.5139
  162SAPE   H2X18165   4.952   4.372   6.921  1.3608  0.1827  0.7869
  162SAPE   H2Y18166   5.021   4.211   6.946  1.6188  2.1244 -2.5236
  162SAPE   C2318167   5.508   4.243   6.692  0.1246 -0.4950 -0.7025
  162SAPE   H3R18168   5.543   4.348   6.705 -0.8286 -0.2185 -0.2346
  162SAPE   H3S18169   5.600   4.181   6.685 -0.5291 -1.5293 -0.2706
  162SAPE   C2418170   5.415   4.210   6.816 -0.1139 -0.1835 -0.6524
  162SAPE   H4R18171   5.476   4.213   6.909  2.2565  0.7085 -2.1931
  162SAPE   H4S18172   5.382   4.104   6.808 -1.1753  0.1116 -0.3051
  162SAPE   C2518173   5.292   4.301   6.832  0.4168  0.0443  0.1763
  162SAPE   H5R18174   5.205   4.279   6.769  1.5706 -1.0245 -1.0692
  162SAPE   C2618175   5.275   4.407   6.914 -0.0282 -0.3356  0.7462
  162SAPE   H6R18176   5.186   4.470   6.903  0.3617  0.4385  1.8942
  162SAPE   C2718177   5.372   4.465   7.007 -0.3917 -0.1432  0.1125
  162SAPE   H7R18178   5.335   4.566   7.033 -2.8358  0.2952 -4.4099
  162SAPE   H7S18179   5.473   4.478   6.962  1.0675 -0.0758  3.2623
  162SAPE   C2818180   5.402   4.388   7.132  0.0057 -0.2150 -0.1528
  162SAPE   H8R18181   5.423   4.281   7.113  0.3185 -0.6458  2.3465
  162SAPE   C2918182   5.427   4.424   7.259 -0.2375 -0.7232 -0.0729
  162SAPE   H9R18183   5.462   4.347   7.330 -0.5216 -0.3430  0.4833
  162SAPE  C21018184   5.424   4.567   7.306  0.1369 -0.4762  0.2358
  162SAPE  H10R18185   5.426   4.640   7.221  0.1173 -1.6124 -0.7525
  162SAPE  H10S18186   5.519   4.583   7.360  0.0620 -1.6144  0.7154
  162SAPE  C21118187   5.308   4.598   7.393 -0.6684  0.5090 -0.1906
  162SAPE  H11R18188   5.213   4.579   7.342 -1.8851  2.8463  1.1062
  162SAPE  C21218189   5.322   4.623   7.525  0.5814  0.3138  0.1738
  162SAPE  H12R18190   5.230   4.643   7.582 -0.1196 -0.4020 -0.6918
  162SAPE  C21318191   5.451   4.643   7.608  0.6877 -0.1662  0.0639
  162SAPE  H13R18192   5.432   4.714   7.691  0.5292 -1.7229  1.3730
  162SAPE  H13S18193   5.524   4.686   7.535 -0.7252  1.8281 -0.2027
  162SAPE  C21418194   5.510   4.522   7.664  0.2138 -0.5079  0.4898
  162SAPE  H14R18195   5.480   4.425   7.620  1.4138  0.1245 -1.8286
  162SAPE  C21518196   5.602   4.526   7.761 -0.2964  0.0297 -0.1196
  162SAPE  H15R18197   5.638   4.426   7.790 -0.4524  0.6352  2.2630
  162SAPE  C21618198   5.665   4.648   7.815 -0.2106  0.2331 -0.6954
  162SAPE  H16R18199   5.670   4.720   7.731 -1.1289  2.2760  0.9615
  162SAPE  H16S18200   5.769   4.624   7.847 -0.0524  1.7237 -0.0849
  162SAPE  C21718201   5.595   4.719   7.929  0.2033  0.7926  0.5784
  162SAPE  H17R18202   5.588   4.642   8.009  2.1360 -0.4225 -0.3652
  162SAPE  H17S18203   5.490   4.741   7.898 -0.5601  0.7533  3.0795
  162SAPE  C21818204   5.671   4.845   7.962  0.7530 -0.0626  0.5197
  162SAPE  H18R18205   5.659   4.922   7.882  0.1585  0.1710  0.8326
  162SAPE  H18S18206   5.779   4.822   7.973  0.3694 -1.8287  0.7829
  162SAPE  C21918207   5.631   4.896   8.102 -0.1607 -0.0973  0.5051
  162SAPE  H19R18208   5.669   4.823   8.178  0.8698  1.8642  1.9268
  162SAPE  H19S18209   5.521   4.890   8.114 -0.2661 -0.2511 -0.5421
  162SAPE  C22018210   5.682   5.040   8.131  0.1009 -0.3104  0.1899
  162SAPE  H20R18211   5.649   5.110   8.051  1.5726  1.9738  1.5323
  162SAPE  H20S18212   5.793   5.037   8.130  0.0661 -2.2051  0.4583
  162SAPE  H20T18213   5.663   5.087   8.230  0.0064  3.7653 -1.6418
  162SAPE   C3318214   4.808   4.210   6.990  0.1819  0.1081  0.7520
  162SAPE   H3X18215   4.814   4.100   6.972 -0.2158 -0.2879  2.9259
  162SAPE   H3Y18216   4.720   4.259   6.943  0.4893 -1.1984 -1.2763
  162SAPE   C3418217   4.831   4.254   7.133  0.2119  0.4488  0.4446
  162SAPE   H4X18218   4.816   4.364   7.120 -1.3062  0.0083 -1.9535
  162SAPE   H4Y18219   4.930   4.239   7.181  0.4993  1.3168  0.1342
  162SAPE   C3518220   4.721   4.201   7.239  0.9108  0.1127 -0.2459
  162SAPE   H5X18221   4.737   4.092   7.247 -0.2031 -0.0689 -0.4169
  162SAPE   H5Y18222   4.622   4.222   7.192  0.0039 -2.0666  0.6629
  162SAPE   C3618223   4.721   4.268   7.381 -0.4550 -0.4161 -0.1097
  162SAPE   H6X18224   4.660   4.203   7.447 -0.4053 -0.2478  0.1033
  162SAPE   H6Y18225   4.662   4.361   7.373 -0.9913 -0.8452 -1.1567
  162SAPE   C3718226   4.862   4.274   7.446  0.5080  0.5590  0.4884
  162SAPE   H7X18227   4.935   4.317   7.375 -0.3489 -0.0768 -0.8045
  162SAPE   H7Y18228   4.882   4.167   7.469  1.7805  0.5162 -0.8329
  162SAPE   C3818229   4.851   4.354   7.580  0.9826  0.0139 -0.4238
  162SAPE   H8X18230   4.824   4.458   7.552  0.0147 -0.4226 -1.1710
  162SAPE   H8Y18231   4.954   4.357   7.620  0.5952 -2.7730  0.9173
  162SAPE   C3918232   4.763   4.300   7.686 -0.3809  0.2440 -0.3663
  162SAPE   H9X18233   4.776   4.192   7.707 -0.5486  0.3677  0.3977
  162SAPE   H9Y18234   4.662   4.307   7.640  0.6021 -0.6344 -2.7540
  162SAPE  C31018235   4.751   4.379   7.816  0.1513 -0.3345 -0.2085
  162SAPE  H10X18236   4.647   4.367   7.853  0.2570 -2.1902 -0.4450
  162SAPE  H10Y18237   4.773   4.484   7.787  0.5160 -0.5740 -0.8277
  162SAPE  C31118238   4.849   4.328   7.917  0.0497  0.2127  0.4302
  162SAPE  H11X18239   4.954   4.362   7.910  0.3231 -0.4500  1.2311
  162SAPE  H11Y18240   4.846   4.217   7.919  0.8734  0.2015  1.0955
  162SAPE  C31218241   4.808   4.376   8.055 -0.2835 -0.1057 -0.4514
  162SAPE  H12X18242   4.715   4.326   8.089 -0.6814  0.1508 -1.1449
  162SAPE  H12Y18243   4.780   4.483   8.055  0.2824  0.0751  2.2268
  162SAPE  C31318244   4.917   4.347   8.151  0.4571  0.1125 -0.5805
  162SAPE  H13X18245   5.013   4.389   8.114  0.0075  1.2019 -0.5340
  162SAPE  H13Y18246   4.941   4.239   8.156  0.5676  0.1592  0.0290
  162SAPE  C31418247   4.891   4.404   8.293 -0.1975 -0.0129  1.0357
  162SAPE  H14X18248   4.795   4.360   8.328 -1.1955  0.3310 -1.2016
  162SAPE  H14Y18249   4.868   4.510   8.271 -2.8629 -0.4501  1.5709
  162SAPE  C31518250   5.005   4.395   8.387  0.5900  0.1033  1.0385
  162SAPE  H15X18251   5.093   4.456   8.356  0.3361 -0.7142 -1.3079
  162SAPE  H15Y18252   5.038   4.290   8.399 -1.5981 -1.0251 -2.2970
  162SAPE  C31618253   4.971   4.452   8.523  0.0099 -0.0725 -1.1307
  162SAPE  H16X18254   4.937   4.558   8.519  0.8431  0.1697 -1.7031
  162SAPE  H16Y18255   5.058   4.437   8.591  0.8712  0.7956 -2.0354
  162SAPE  C31718256   4.847   4.381   8.597  0.4374  0.1392  0.5563
  162SAPE  H17X18257   4.862   4.272   8.584 -0.9623 -0.0075  0.1203
  162SAPE  H17Y18258   4.758   4.412   8.538  1.1825  1.3750  0.0585
  162SAPE  C31818259   4.827   4.415   8.743  0.0333 -0.6769 -0.8357
  162SAPE  H18X18260   4.775   4.329   8.789  1.0024 -1.8354 -1.8697
  162SAPE  H18Y18261   4.771   4.510   8.762 -4.3875 -3.7842  2.7560
  162SAPE  H18Z18262   4.927   4.416   8.792 -0.5594 -0.2493  0.3737
  163SAPE     N18263   4.187   2.205   6.414  0.0244 -0.0026  0.9761
  163SAPE   HN118264   4.265   2.201   6.346  1.2752 -0.3630  2.4177
  163SAPE   HN218265   4.089   2.203   6.377 -0.6918  0.9660  2.7315
  163SAPE   HN318266   4.191   2.295   6.467  0.8569 -0.0355  0.9687
  163SAPE   C1218267   4.204   2.092   6.505  0.0841  0.1258 -0.0990
  163SAPE  H12A18268   4.218   1.997   6.449  0.8856 -0.4541  1.0628
  163SAPE  H12B18269   4.111   2.087   6.565  0.3551  0.3631  0.3490
  163SAPE   C1118270   4.328   2.100   6.603  0.3629  0.0605  0.0459
  163SAPE  H11A18271   4.411   2.041   6.560  2.0889  1.7209  1.0268
  163SAPE  H11B18272   4.288   2.049   6.693 -1.0193 -2.1309 -1.7595
  163SAPE     P18273   4.498   2.312   6.623 -0.0435  0.3596  0.4123
  163SAPE   O1318274   4.605   2.228   6.675 -0.0852  0.5448  0.3081
  163SAPE   O1418275   4.510   2.356   6.485 -0.1346 -0.3855  0.5832
  163SAPE   O1218276   4.362   2.233   6.635 -0.3995 -0.3250 -0.5415
  163SAPE   O1118277   4.475   2.434   6.720 -0.5265 -0.8181 -0.2920
  163SAPE    C118278   4.356   2.503   6.755 -0.2052 -0.3365  1.2481
  163SAPE    HA18279   4.368   2.611   6.732 -1.8935 -0.3781  0.1109
  163SAPE    HB18280   4.264   2.475   6.700  1.1166 -2.1568 -0.0882
  163SAPE    C218281   4.329   2.475   6.910 -0.6862  0.0496 -0.6623
  163SAPE    HS18282   4.222   2.503   6.921 -0.7850 -0.4298 -0.4214
  163SAPE   O2118283   4.418   2.560   6.988  0.6744  0.1398  0.0477
  163SAPE   C2118284   4.378   2.684   7.014  0.2305 -0.2946  0.0105
  163SAPE   O2218285   4.273   2.738   6.986 -0.5229  0.2506  0.5261
  163SAPE   C2218286   4.484   2.741   7.106  0.2737  0.2131 -0.7575
  163SAPE   H2R18287   4.578   2.689   7.076  0.2298 -0.6944  0.6478
  163SAPE   H2S18288   4.498   2.849   7.086 -0.6913  0.4494 -0.1856
  163SAPE    C318289   4.333   2.323   6.953 -0.0166 -0.6156  0.0295
  163SAPE    HX18290   4.440   2.293   6.948 -0.9976 -4.3715  0.3333
  163SAPE    HY18291   4.271   2.260   6.886  0.0004 -0.2614 -0.3243
  163SAPE   O3118292   4.293   2.311   7.090  0.1346  0.0264  0.0061
  163SAPE   C3118293   4.236   2.211   7.140  0.5633 -0.8202  0.0576
  163SAPE   O3218294   4.228   2.095   7.100 -0.3494  0.0073 -0.4171
  163SAPE   C3218295   4.155   2.264   7.264 -0.1577  0.5174 -0.7169
  163SAPE   H2X18296   4.081   2.335   7.220  0.2574 -0.4473 -3.0410
  163SAPE   H2Y18297   4.222   2.333   7.320  0.5793  0.8014 -1.9417
  163SAPE   C2318298   4.468   2.699   7.255  0.0346 -0.0260  0.3724
  163SAPE   H3R18299   4.503   2.594   7.262  2.7442  0.7344 -1.0286
  163SAPE   H3S18300   4.364   2.711   7.291  0.2008 -0.0376  0.8685
  163SAPE   C2418301   4.562   2.772   7.357  1.0591  0.6862 -0.1143
  163SAPE   H4R18302   4.528   2.732   7.455 -0.4091  0.3137 -0.7721
  163SAPE   H4S18303   4.534   2.879   7.363 -3.2499 -0.3682 -0.0738
  163SAPE   C2518304   4.705   2.738   7.338  0.9881  0.0275  0.0862
  163SAPE   H5R18305   4.734   2.745   7.232 -2.2797  0.9146 -0.8049
  163SAPE   C2618306   4.798   2.699   7.427 -0.0199 -0.1207 -0.8024
  163SAPE   H6R18307   4.903   2.677   7.399  0.1641  0.1866 -0.3558
  163SAPE   C2718308   4.771   2.680   7.578 -0.0108  0.4120  0.0683
  163SAPE   H7R18309   4.849   2.613   7.620 -0.7141 -1.4715 -1.6091
  163SAPE   H7S18310   4.676   2.628   7.601  1.0362 -1.3999  0.3979
  163SAPE   C2818311   4.775   2.821   7.645 -0.9448  0.0099  0.4882
  163SAPE   H8R18312   4.769   2.912   7.583 -0.7874  0.5518  1.2609
  163SAPE   C2918313   4.792   2.847   7.773  0.4768  0.2084 -0.1945
  163SAPE   H9R18314   4.809   2.952   7.800 -0.8876  0.4330 -0.1548
  163SAPE  C21018315   4.811   2.741   7.882 -0.1697  0.2750 -0.4634
  163SAPE  H10R18316   4.791   2.638   7.845  0.8460 -0.3801  0.8165
  163SAPE  H10S18317   4.733   2.745   7.961  1.9088 -1.3485  1.7156
  163SAPE  C21118318   4.960   2.736   7.939 -0.4098 -0.2597 -0.0739
  163SAPE  H11R18319   5.039   2.804   7.908 -1.3207  1.3179  0.9922
  163SAPE  C21218320   5.004   2.642   8.027  0.2834 -0.2400 -0.2582
  163SAPE  H12R18321   5.112   2.636   8.042  0.4676 -1.6432 -1.9464
  163SAPE  C21318322   4.922   2.523   8.064 -0.8553  0.1233 -1.3860
  163SAPE  H13R18323   4.848   2.492   7.988 -2.9296  1.6078  0.0003
  163SAPE  H13S18324   4.864   2.552   8.153 -0.3633 -2.0861 -0.2874
  163SAPE  C21418325   4.995   2.401   8.114  0.5541  0.4587  0.2401
  163SAPE  H14R18326   4.982   2.308   8.057 -3.2448  1.2129 -0.2704
  163SAPE  C21518327   5.063   2.383   8.231  0.1968 -0.3319 -0.1913
  163SAPE  H15R18328   5.124   2.291   8.240 -0.0874 -0.6201 -1.1879
  163SAPE  C21618329   5.095   2.498   8.317  0.6148 -0.2782 -0.6793
  163SAPE  H16R18330   5.026   2.582   8.295 -0.1321 -0.7949 -0.3045
  163SAPE  H16S18331   5.198   2.537   8.297  0.0265  3.1656  2.3720
  163SAPE  C21718332   5.083   2.483   8.471 -0.1678 -0.0429  0.3798
  163SAPE  H17R18333   5.176   2.431   8.503  0.7258 -0.6822 -3.0437
  163SAPE  H17S18334   4.998   2.415   8.495 -0.0260 -0.1219  0.6699
  163SAPE  C21818335   5.071   2.619   8.544  0.2654  1.0082 -0.0354
  163SAPE  H18R18336   4.968   2.646   8.576  0.3835 -0.1313  1.3378
  163SAPE  H18S18337   5.116   2.689   8.471  0.0329  1.1603 -0.0355
  163SAPE  C21918338   5.158   2.645   8.670 -0.3685 -0.2464 -0.1421
  163SAPE  H19R18339   5.261   2.649   8.629 -0.9050  0.6211 -1.4647
  163SAPE  H19S18340   5.139   2.558   8.736  0.0343 -0.3119 -0.1135
  163SAPE  C22018341   5.131   2.773   8.744  0.4803 -0.0260  0.0939
  163SAPE  H20R18342   5.128   2.850   8.664  0.0920  0.6620  0.7592
  163SAPE  H20S18343   5.209   2.795   8.821  0.1091  0.3697  0.3579
  163SAPE  H20T18344   5.039   2.779   8.807 -0.1347 -1.0640 -0.6942
  163SAPE   C3318345   4.080   2.157   7.352  0.4339  0.1336  0.1802
  163SAPE   H3X18346   4.141   2.069   7.381 -2.8044 -3.1938 -2.6181
  163SAPE   H3Y18347   3.999   2.111   7.291 -0.1707 -0.7315  1.6091
  163SAPE   C3418348   4.041   2.212   7.488 -0.4354 -0.1336  0.3857
  163SAPE   H4X18349   3.952   2.152   7.519 -0.5353  0.4161  1.1690
  163SAPE   H4Y18350   4.007   2.315   7.463 -2.9524 -0.9070  0.4070
  163SAPE   C3518351   4.153   2.214   7.591 -0.0249 -0.0352 -0.1442
  163SAPE   H5X18352   4.224   2.295   7.563  2.8370 -3.0451 -1.9965
  163SAPE   H5Y18353   4.204   2.115   7.601  0.3059  0.3061  1.8354
  163SAPE   C3618354   4.086   2.256   7.722 -0.1485  0.0722  0.5838
  163SAPE   H6X18355   4.001   2.185   7.730 -0.2229 -0.1331 -1.5218
  163SAPE   H6Y18356   4.047   2.360   7.712 -0.4421 -0.1142 -0.3148
  163SAPE   C3718357   4.178   2.256   7.842 -0.0190 -0.5456 -0.2503
  163SAPE   H7X18358   4.279   2.295   7.820  0.2035  0.1989  1.9722
  163SAPE   H7Y18359   4.193   2.150   7.870 -0.3051 -1.0607 -1.9812
  163SAPE   C3818360   4.107   2.332   7.960 -0.6198  0.0027 -0.1915
  163SAPE   H8X18361   4.014   2.284   7.996 -0.9411 -1.6574 -3.1593
  163SAPE   H8Y18362   4.080   2.435   7.929 -0.6306  0.3452  0.9152
  163SAPE   C3918363   4.198   2.335   8.087  0.3601 -0.1074  0.7758
  163SAPE   H9X18364   4.277   2.413   8.079  1.0994 -0.8585  0.6679
  163SAPE   H9Y18365   4.245   2.235   8.090  1.7830  0.4752 -1.0140
  163SAPE  C31018366   4.119   2.369   8.214 -0.8175 -0.5214  0.3542
  163SAPE  H10X18367   4.044   2.291   8.241 -0.7413 -0.9255 -0.5768
  163SAPE  H10Y18368   4.063   2.465   8.207  0.5186  0.1807 -0.9242
  163SAPE  C31118369   4.216   2.370   8.343  0.1463 -0.0209 -0.3160
  163SAPE  H11X18370   4.300   2.440   8.320  1.0076 -0.2903  1.9208
  163SAPE  H11Y18371   4.269   2.273   8.339 -0.1792 -0.3378  2.3012
  163SAPE  C31218372   4.150   2.414   8.472  0.0962  0.2178  0.0602
  163SAPE  H12X18373   4.081   2.340   8.518  0.3060 -2.7321 -4.0388
  163SAPE  H12Y18374   4.084   2.502   8.455  0.7076  1.0240  1.7541
  163SAPE  C31318375   4.267   2.462   8.559 -0.0308 -0.5003 -0.9131
  163SAPE  H13X18376   4.296   2.556   8.507 -1.4703 -0.0616 -0.9205
  163SAPE  H13Y18377   4.342   2.380   8.562  1.8867  1.3062  2.1640
  163SAPE  C31418378   4.232   2.492   8.708 -0.3159 -0.6044 -0.2991
  163SAPE  H14X18379   4.149   2.422   8.733 -1.0291  0.0492 -0.7950
  163SAPE  H14Y18380   4.185   2.593   8.713  1.1208  0.0487  0.0094
  163SAPE  C31518381   4.344   2.493   8.812  0.1642 -0.2077  0.3549
  163SAPE  H15X18382   4.303   2.542   8.903 -1.0782  0.4577 -0.5524
  163SAPE  H15Y18383   4.429   2.559   8.787 -0.9657  0.7881 -0.8760
  163SAPE  C31618384   4.397   2.353   8.836 -0.2213 -0.7405  0.2552
  163SAPE  H16X18385   4.420   2.306   8.738  2.1661 -0.6543  0.7297
  163SAPE  H16Y18386   4.319   2.284   8.874 -2.3339  0.9690 -0.9175
  163SAPE  C31718387   4.528   2.345   8.930 -0.4156  0.7024  0.2585
  163SAPE  H17X18388   4.493   2.388   9.026 -2.2587 -1.8114  0.7688
  163SAPE  H17Y18389   4.611   2.403   8.885 -0.0767 -0.2198 -0.3155
  163SAPE  C31818390   4.578   2.201   8.946  0.3929 -0.4601  0.1201
  163SAPE  H18X18391   4.492   2.139   8.980 -0.5185  1.5746  1.6452
  163SAPE  H18Y18392   4.657   2.204   9.023 -2.2543  0.1402  2.9339
  163SAPE  H18Z18393   4.629   2.159   8.857  2.0802  0.4286  0.6676
  164SAPE     N18394   0.503   5.767   6.092  0.7640  0.1792 -0.0431
  164SAPE   HN118395   0.413   5.732   6.128  0.3358 -0.9486 -2.1366
  164SAPE   HN218396   0.559   5.787   6.178 -0.3658 -1.9675  1.2074
  164SAPE   HN318397   0.481   5.867   6.070  1.2058  0.6373  1.5316
  164SAPE   C1218398   0.560   5.689   5.977 -0.3129 -0.9273 -0.2294
  164SAPE  H12A18399   0.607   5.759   5.904 -1.5322 -0.4228 -0.5532
  164SAPE  H12B18400   0.475   5.635   5.928 -0.8901 -1.0925  0.9409
  164SAPE   C1118401   0.660   5.583   6.025 -0.1322 -0.3008 -0.0342
  164SAPE  H11A18402   0.686   5.535   5.929  3.0924  1.3078 -0.0632
  164SAPE  H11B18403   0.605   5.518   6.096 -2.0775  0.8510 -0.4601
  164SAPE     P18404   0.914   5.597   6.106 -0.3640 -0.0302 -0.0555
  164SAPE   O1318405   0.956   5.511   5.992  0.6585 -0.3897 -0.3207
  164SAPE   O1418406   1.010   5.706   6.141 -0.0580 -0.3142  0.2134
  164SAPE   O1218407   0.768   5.660   6.090  0.2901  0.3507 -0.5762
  164SAPE   O1118408   0.894   5.509   6.233  0.4672 -0.5443  0.2144
  164SAPE    C118409   0.928   5.531   6.370 -0.5322  0.2325  0.0170
  164SAPE    HA18410   0.905   5.436   6.424 -3.5422 -0.1097 -1.7003
  164SAPE    HB18411   1.038   5.539   6.380 -0.8124  0.3493  3.7619
  164SAPE    C218412   0.854   5.647   6.439  0.0849 -0.2282 -0.0316
  164SAPE    HS18413   0.875   5.743   6.388 -0.1464  0.5311  1.2740
  164SAPE   O2118414   0.901   5.645   6.578  0.2379 -0.0932 -0.2133
  164SAPE   C2118415   1.012   5.715   6.596  0.4690 -0.1558  0.4256
  164SAPE   O2218416   1.083   5.755   6.506 -0.1016 -0.0266 -0.4608
  164SAPE   C2218417   1.050   5.733   6.739  0.2247 -0.5548  0.0311
  164SAPE   H2R18418   1.044   5.633   6.786 -0.4245 -0.3147  0.4686
  164SAPE   H2S18419   1.154   5.772   6.737 -0.5509  1.5966 -1.1210
  164SAPE    C318420   0.693   5.627   6.433  0.0192 -0.3109  0.5495
  164SAPE    HX18421   0.669   5.524   6.468 -0.8590 -0.2176  0.2280
  164SAPE    HY18422   0.656   5.625   6.329  1.0971  0.2054  0.1553
  164SAPE   O3118423   0.618   5.724   6.508 -0.8649 -0.1679  0.5038
  164SAPE   C3118424   0.603   5.846   6.446  0.7868 -0.0534  0.4737
  164SAPE   O3218425   0.619   5.863   6.329  0.0215 -0.0090 -0.1446
  164SAPE   C3218426   0.585   5.952   6.552 -0.1492 -0.1460 -0.3600
  164SAPE   H2X18427   0.576   6.049   6.498 -5.9375 -0.7645 -0.8594
  164SAPE   H2Y18428   0.680   5.954   6.610 -0.3721 -1.7223  0.0663
  164SAPE   C2318429   0.946   5.823   6.811 -0.1647 -0.9226  0.1628
  164SAPE   H3R18430   0.854   5.764   6.830 -0.0830 -0.8488  0.8341
  164SAPE   H3S18431   0.908   5.906   6.748  0.1097 -0.7294  0.2450
  164SAPE   C2418432   0.993   5.880   6.946  0.1722  0.3687  0.1424
  164SAPE   H4R18433   0.916   5.950   6.984 -0.9902 -1.0726  0.4982
  164SAPE   H4S18434   1.087   5.936   6.929 -0.0455  0.6921  0.0109
  164SAPE   C2518435   1.015   5.760   7.038 -0.7342 -0.0031 -0.0923
  164SAPE   H5R18436   1.021   5.666   6.982 -1.4145  0.2741 -0.6377
  164SAPE   C2618437   1.023   5.766   7.172 -0.0951  0.4201  0.4145
  164SAPE   H6R18438   1.056   5.675   7.223 -1.9842  0.6988  2.2178
  164SAPE   C2718439   1.001   5.887   7.261 -0.3769  0.8203 -0.0344
  164SAPE   H7R18440   0.913   5.850   7.318  0.3209 -0.5583  0.1699
  164SAPE   H7S18441   0.969   5.984   7.218 -1.5507  1.6724  2.6504
  164SAPE   C2818442   1.107   5.913   7.369  0.2013  0.2276 -1.2128
  164SAPE   H8R18443   1.211   5.933   7.341 -0.3325  2.6928 -1.4944
  164SAPE   C2918444   1.086   5.924   7.505 -0.1957 -0.4514 -0.2677
  164SAPE   H9R18445   1.179   5.935   7.562  1.0490  0.8984 -2.4972
  164SAPE  C21018446   0.953   5.912   7.576 -0.4760  0.3689  0.5334
  164SAPE  H10R18447   0.883   5.976   7.518 -0.6896 -2.8044 -2.9480
  164SAPE  H10S18448   0.953   5.943   7.682 -1.6699 -0.3094  0.7435
  164SAPE  C21118449   0.893   5.777   7.570  0.9376  0.5704  0.0757
  164SAPE  H11R18450   0.806   5.761   7.504  0.5274  0.9861  0.5091
  164SAPE  C21218451   0.929   5.672   7.654 -0.1274 -0.8700 -0.5267
  164SAPE  H12R18452   0.874   5.576   7.652  3.2868 -2.9117  0.4214
  164SAPE  C21318453   1.041   5.672   7.753  0.1789  0.2976  0.4168
  164SAPE  H13R18454   1.117   5.750   7.731 -0.5371  0.5896 -1.0936
  164SAPE  H13S18455   1.102   5.580   7.734  1.8737  1.8369 -1.8853
  164SAPE  C21418456   1.011   5.688   7.906  0.6280 -0.3062  0.1188
  164SAPE  H14R18457   0.929   5.757   7.932  0.4698  0.5962 -2.6255
  164SAPE  C21518458   1.064   5.602   7.998  0.5007 -0.7263  0.1439
  164SAPE  H15R18459   1.052   5.630   8.103 -0.7282  0.7167 -0.3704
  164SAPE  C21618460   1.164   5.496   7.973 -0.7436  0.2423 -0.9765
  164SAPE  H16R18461   1.228   5.518   7.884  1.1192 -0.0765  0.2520
  164SAPE  H16S18462   1.110   5.403   7.946 -0.1027 -0.2083 -0.7188
  164SAPE  C21718463   1.261   5.460   8.079  0.3050 -0.3358  0.5955
  164SAPE  H17R18464   1.322   5.553   8.093  1.7589 -0.7311 -2.5934
  164SAPE  H17S18465   1.324   5.380   8.034  0.7052  0.3473 -0.0857
  164SAPE  C21818466   1.200   5.416   8.213  0.0221  0.0351 -0.1417
  164SAPE  H18R18467   1.141   5.502   8.253 -1.6705  0.6042 -3.7184
  164SAPE  H18S18468   1.277   5.394   8.290 -0.7569 -1.1404  0.3327
  164SAPE  C21918469   1.094   5.303   8.207  0.5517 -0.0041 -0.1189
  164SAPE  H19R18470   1.147   5.221   8.155  1.8910  0.3862  0.6068
  164SAPE  H19S18471   1.021   5.346   8.135  1.4991 -0.3917 -1.3285
  164SAPE  C22018472   1.027   5.259   8.332 -0.5281 -0.7510  0.0011
  164SAPE  H20R18473   0.964   5.342   8.370 -1.5319 -1.4297 -0.1547
  164SAPE  H20S18474   1.095   5.230   8.415  0.4513  0.6280 -0.3071
  164SAPE  H20T18475   0.957   5.175   8.312  0.3125 -1.5092  0.2033
  164SAPE   C3318476   0.465   5.925   6.634  0.6611 -0.4897 -0.1441
  164SAPE   H3X18477   0.447   6.014   6.698  0.2552 -0.6696 -0.0095
  164SAPE   H3Y18478   0.481   5.842   6.707  1.0853  0.7682  1.2092
  164SAPE   C3418479   0.336   5.914   6.553 -0.2445  0.1847 -0.7658
  164SAPE   H4X18480   0.355   5.852   6.463 -0.4978  1.2561 -1.5683
  164SAPE   H4Y18481   0.312   6.016   6.516 -0.3880 -0.5539 -2.7967
  164SAPE   C3518482   0.220   5.857   6.636 -0.4947  0.2600 -0.6626
  164SAPE   H5X18483   0.258   5.767   6.689  1.1248  1.0853 -0.3817
  164SAPE   H5Y18484   0.138   5.827   6.567 -0.5949 -1.9268  0.3400
  164SAPE   C3618485   0.161   5.940   6.750 -0.6122  0.1254  0.4742
  164SAPE   H6X18486   0.125   6.035   6.707  0.0204 -0.2586 -0.9396
  164SAPE   H6Y18487   0.235   5.967   6.828  1.3314 -2.3331 -0.4377
  164SAPE   C3718488   0.046   5.872   6.828  0.4856 -0.0616 -0.0150
  164SAPE   H7X18489   0.087   5.773   6.855  0.8238  0.3771  1.1337
  164SAPE   H7Y18490  -0.055   5.861   6.783  0.9440 -0.0133 -1.0595
  164SAPE   C3818491   0.024   5.937   6.966  0.1640 -0.1314  0.2980
  164SAPE   H8X18492  -0.056   6.013   6.956  0.4395  0.0427 -0.6303
  164SAPE   H8Y18493   0.118   5.989   6.995 -0.5865  1.8284 -0.7126
  164SAPE   C3918494  -0.012   5.836   7.074 -0.3129 -0.1814 -0.1092
  164SAPE   H9X18495   0.067   5.758   7.064  0.3048  0.4530 -0.2541
  164SAPE   H9Y18496  -0.112   5.788   7.064 -1.5980  2.2558  0.5544
  164SAPE  C31018497  -0.007   5.907   7.213 -0.1655 -0.0929  0.1830
  164SAPE  H10X18498  -0.072   5.997   7.220 -0.9033 -0.6063 -0.0311
  164SAPE  H10Y18499   0.100   5.931   7.232  0.7250 -3.4632 -0.3152
  164SAPE  C31118500  -0.048   5.812   7.330 -0.3328 -0.3353  0.7563
  164SAPE  H11X18501   0.007   5.716   7.338 -1.1138 -0.6432  2.6910
  164SAPE  H11Y18502  -0.157   5.796   7.315 -0.6202  0.7056  1.6508
  164SAPE  C31218503  -0.029   5.867   7.473 -0.5913  1.0116 -0.4022
  164SAPE  H12X18504  -0.084   5.963   7.481  0.1132  1.4813 -1.1176
  164SAPE  H12Y18505   0.079   5.892   7.475  0.1247 -1.9927  0.0843
  164SAPE  C31318506  -0.057   5.780   7.595 -0.3945 -0.6107  0.4662
  164SAPE  H13X18507   0.014   5.695   7.585  0.3520 -0.0679  1.1593
  164SAPE  H13Y18508  -0.160   5.738   7.593 -0.2800 -1.1302  3.1706
  164SAPE  C31418509  -0.046   5.847   7.732  0.0722 -0.2807 -0.0418
  164SAPE  H14X18510  -0.071   5.956   7.728 -0.0519 -0.2802  0.5983
  164SAPE  H14Y18511   0.057   5.856   7.772 -0.1582 -2.1895  1.0371
  164SAPE  C31518512  -0.139   5.795   7.851  0.0023 -0.3693  0.0112
  164SAPE  H15X18513  -0.134   5.684   7.856 -0.5641 -0.3577  1.1325
  164SAPE  H15Y18514  -0.248   5.808   7.837  0.2988  1.7696 -0.4828
  164SAPE  C31618515  -0.101   5.855   7.994  0.4125  0.0007  0.3325
  164SAPE  H16X18516  -0.097   5.966   7.992  3.3371 -0.0494  0.1590
  164SAPE  H16Y18517   0.000   5.822   8.026 -0.4886 -0.8914  2.3029
  164SAPE  C31718518  -0.200   5.809   8.095 -0.1238 -0.7384  0.1041
  164SAPE  H17X18519  -0.166   5.707   8.121  1.4915 -0.1762  0.2660
  164SAPE  H17Y18520  -0.307   5.805   8.065  0.1941 -1.8366 -0.9265
  164SAPE  C31818521  -0.189   5.913   8.209 -0.0332 -0.0194 -0.3898
  164SAPE  H18X18522  -0.251   5.874   8.292  1.1539  0.3764  0.6953
  164SAPE  H18Y18523  -0.235   6.004   8.163  0.1062  0.5244  0.5268
  164SAPE  H18Z18524  -0.084   5.938   8.237 -0.2142  0.0095  0.2521
  165SAPE     N18525   0.671   1.713   6.283 -0.2636  0.1978  0.1607
  165SAPE   HN118526   0.632   1.788   6.223 -0.2353 -0.8082 -1.1440
  165SAPE   HN218527   0.705   1.629   6.231 -0.3188  0.1170  0.2557
  165SAPE   HN318528   0.593   1.664   6.331  1.6181 -3.3322 -0.1791
  165SAPE   C1218529   0.754   1.760   6.393 -0.3068  0.1595 -0.3831
  165SAPE  H12A18530   0.863   1.760   6.369  0.4245  1.1194  2.6866
  165SAPE  H12B18531   0.736   1.691   6.479 -0.2515 -0.4020 -0.8176
  165SAPE   C1118532   0.721   1.901   6.426  0.3803  0.1403 -0.1545
  165SAPE  H11A18533   0.766   1.935   6.522 -1.0446  0.3406  0.4523
  165SAPE  H11B18534   0.613   1.908   6.451 -0.3129  1.2735 -3.2781
  165SAPE     P18535   0.834   2.115   6.324  0.5857  0.4401 -0.2887
  165SAPE   O1318536   0.972   2.066   6.352  0.2516 -0.6615  0.1931
  165SAPE   O1418537   0.812   2.209   6.209 -0.4332 -0.2785 -0.7610
  165SAPE   O1218538   0.740   1.990   6.319  0.0964  0.4775  0.3229
  165SAPE   O1118539   0.790   2.188   6.456 -0.1248 -0.0184  0.0091
  165SAPE    C118540   0.661   2.236   6.478  0.2357 -0.1448 -0.2915
  165SAPE    HA18541   0.633   2.325   6.419  1.6579  0.2101 -0.4434
  165SAPE    HB18542   0.588   2.158   6.446 -0.8316 -1.2113  4.3536
  165SAPE    C218543   0.632   2.262   6.626  0.5011  0.2468 -0.3813
  165SAPE    HS18544   0.720   2.318   6.663  0.3132 -0.5511  1.3151
  165SAPE   O2118545   0.609   2.132   6.683 -0.6005 -0.7467  0.2466
  165SAPE   C2118546   0.713   2.085   6.750 -0.1101  0.5934 -0.7623
  165SAPE   O2218547   0.817   2.148   6.769  0.3854 -0.0742 -0.2298
  165SAPE   C2218548   0.695   1.938   6.794  0.9714 -0.1971  0.6344
  165SAPE   H2R18549   0.629   1.898   6.713 -0.6181  0.8742  1.3674
  165SAPE   H2S18550   0.792   1.887   6.778  0.3904 -1.4941  1.1737
  165SAPE    C318551   0.503   2.349   6.643  0.5439  0.1596  0.2335
  165SAPE    HX18552   0.418   2.303   6.589 -0.0831  2.7482 -1.0804
  165SAPE    HY18553   0.505   2.444   6.585 -1.4913  0.5746  0.8080
  165SAPE   O3118554   0.489   2.381   6.783 -0.5715  0.0904  0.1920
  165SAPE   C3118555   0.419   2.288   6.847  0.7603  0.3202  0.4908
  165SAPE   O3218556   0.339   2.206   6.803 -0.2803 -0.1905  0.4629
  165SAPE   C3218557   0.450   2.311   6.996 -0.2470 -0.7247 -0.3959
  165SAPE   H2X18558   0.446   2.416   7.031 -0.6597 -1.8229  2.9943
  165SAPE   H2Y18559   0.560   2.297   7.004 -0.1029  0.5258 -0.0301
  165SAPE   C2318560   0.634   1.919   6.933  0.0430 -0.3811  0.3470
  165SAPE   H3R18561   0.533   1.965   6.932 -0.3481 -1.2435 -0.0229
  165SAPE   H3S18562   0.702   1.959   7.011 -0.4301  2.6819 -0.7331
  165SAPE   C2418563   0.600   1.773   6.972 -0.2575 -0.1770 -0.0294
  165SAPE   H4R18564   0.521   1.731   6.905 -1.5911  1.8755  0.2085
  165SAPE   H4S18565   0.542   1.775   7.067  0.1442 -0.7985  0.2256
  165SAPE   C2518566   0.730   1.702   6.982  0.2032  0.1218  0.1270
  165SAPE   H5R18567   0.788   1.694   6.889 -0.3203 -1.1349 -0.0989
  165SAPE   C2618568   0.778   1.639   7.087  0.2672 -0.7151  0.1192
  165SAPE   H6R18569   0.879   1.599   7.067  1.3500  1.8099  0.3562
  165SAPE   C2718570   0.730   1.613   7.223  0.1030  0.5264 -0.0628
  165SAPE   H7R18571   0.755   1.509   7.254  1.3394  0.1130 -2.4127
  165SAPE   H7S18572   0.620   1.606   7.209  0.1137  0.0851  0.0365
  165SAPE   C2818573   0.755   1.706   7.351  0.3502  0.2808  0.1446
  165SAPE   H8R18574   0.777   1.812   7.329 -3.3590  1.1851  0.4427
  165SAPE   C2918575   0.738   1.661   7.478 -0.5397  0.2769  0.4688
  165SAPE   H9R18576   0.770   1.725   7.561 -1.5157  1.0527  0.2647
  165SAPE  C21018577   0.696   1.525   7.529  0.3477  0.4186 -0.4410
  165SAPE  H10R18578   0.635   1.474   7.452  2.0597 -1.1005 -0.8356
  165SAPE  H10S18579   0.620   1.556   7.603  1.3681 -0.7979  1.1290
  165SAPE  C21118580   0.816   1.442   7.567  0.1665  0.6354 -1.3743
  165SAPE  H11R18581   0.873   1.405   7.481  1.3709  0.3667 -0.4774
  165SAPE  C21218582   0.850   1.412   7.697  0.2563 -0.4755 -0.1087
  165SAPE  H12R18583   0.926   1.334   7.714 -0.1655 -0.4706  2.0387
  165SAPE  C21318584   0.773   1.457   7.820 -0.4530  0.7384 -0.0353
  165SAPE  H13R18585   0.714   1.549   7.801 -0.6133  0.7154  0.3391
  165SAPE  H13S18586   0.840   1.489   7.903 -0.4725  1.6979 -0.3789
  165SAPE  C21418587   0.686   1.339   7.875  0.6135 -1.2827 -0.4176
  165SAPE  H14R18588   0.635   1.277   7.800 -0.1281 -0.7995 -0.3185
  165SAPE  C21518589   0.707   1.278   7.998 -0.1976  0.2867  0.1291
  165SAPE  H15R18590   0.641   1.194   8.024  0.2811 -0.4156 -0.8724
  165SAPE  C21618591   0.808   1.323   8.090 -0.4178 -0.4481  0.2165
  165SAPE  H16R18592   0.837   1.429   8.107 -0.3800 -0.5996  1.0951
  165SAPE  H16S18593   0.903   1.267   8.076 -0.7861 -0.9725 -0.2478
  165SAPE  C21718594   0.758   1.268   8.228 -0.0954  0.1934  0.2744
  165SAPE  H17R18595   0.766   1.157   8.220  0.7467  0.2735 -0.0840
  165SAPE  H17S18596   0.654   1.296   8.252 -0.1075 -0.8095  1.4567
  165SAPE  C21818597   0.847   1.308   8.344  0.0045 -0.7561  0.3560
  165SAPE  H18R18598   0.839   1.418   8.352  0.8144 -0.6176 -0.6508
  165SAPE  H18S18599   0.956   1.288   8.332 -0.1664 -1.3121 -0.2650
  165SAPE  C21918600   0.803   1.237   8.470 -0.5502 -0.2514 -0.2146
  165SAPE  H19R18601   0.826   1.128   8.466 -2.1823 -0.6194  0.1714
  165SAPE  H19S18602   0.692   1.236   8.471 -0.6560 -3.1990 -3.9382
  165SAPE  C22018603   0.861   1.292   8.604 -0.3110  0.2675  0.4063
  165SAPE  H20R18604   0.968   1.261   8.613  0.4056  2.6550  0.2499
  165SAPE  H20S18605   0.803   1.247   8.688  0.7719  2.3620  2.3194
  165SAPE  H20T18606   0.851   1.402   8.596  1.5409  0.2924 -2.3434
  165SAPE   C3318607   0.377   2.199   7.082 -0.5865  0.8730  0.4037
  165SAPE   H3X18608   0.398   2.102   7.031  0.0186  0.6246  1.1267
  165SAPE   H3Y18609   0.267   2.218   7.078 -0.7488 -0.3020 -1.5255
  165SAPE   C3418610   0.411   2.195   7.227 -0.4802 -0.0538 -0.0331
  165SAPE   H4X18611   0.367   2.112   7.286  0.0086  0.7712  1.5008
  165SAPE   H4Y18612   0.382   2.290   7.276  2.3013 -0.3480  2.3051
  165SAPE   C3518613   0.564   2.182   7.264  0.5055  0.3195  0.2105
  165SAPE   H5X18614   0.623   2.253   7.202  0.0226  2.7534  2.4694
  165SAPE   H5Y18615   0.586   2.075   7.241 -1.3305  0.2731 -1.4122
  165SAPE   C3618616   0.610   2.224   7.407 -0.0508  0.2588 -0.3956
  165SAPE   H6X18617   0.571   2.325   7.434 -2.9078 -0.8095 -0.4065
  165SAPE   H6Y18618   0.720   2.235   7.410  0.1820 -2.1947  1.1880
  165SAPE   C3718619   0.562   2.135   7.530 -0.6519  0.3138 -0.2787
  165SAPE   H7X18620   0.600   2.032   7.511 -2.1253 -0.2241 -0.3049
  165SAPE   H7Y18621   0.451   2.132   7.530 -0.6804  0.7903  1.4813
  165SAPE   C3818622   0.618   2.182   7.669  0.6829 -0.5207  0.0963
  165SAPE   H8X18623   0.588   2.287   7.684 -1.0038 -0.8016 -1.2018
  165SAPE   H8Y18624   0.728   2.191   7.654  0.4339  1.6201 -0.5248
  165SAPE   C3918625   0.583   2.091   7.787  0.1528  0.5985 -0.3433
  165SAPE   H9X18626   0.610   1.985   7.771  3.2716  1.3530 -0.3853
  165SAPE   H9Y18627   0.472   2.098   7.792  0.1666  0.3572  0.3284
  165SAPE  C31018628   0.632   2.155   7.920 -0.0586 -0.7129  0.6406
  165SAPE  H10X18629   0.618   2.265   7.913  0.1465 -0.7361 -0.2018
  165SAPE  H10Y18630   0.742   2.147   7.929 -0.3027 -1.4755  3.1195
  165SAPE  C31118631   0.567   2.090   8.046  0.1159 -0.5648 -0.3009
  165SAPE  H11X18632   0.625   1.999   8.074  1.9867  0.1973 -1.6021
  165SAPE  H11Y18633   0.463   2.053   8.032  0.1799 -0.7042 -0.4106
  165SAPE  C31218634   0.567   2.194   8.165  0.7675  0.7347 -0.1142
  165SAPE  H12X18635   0.669   2.235   8.175  1.5570 -0.8485 -1.4342
  165SAPE  H12Y18636   0.547   2.138   8.259 -1.0641  1.1803 -0.2170
  165SAPE  C31318637   0.466   2.312   8.158  0.3979  0.4001 -0.1544
  165SAPE  H13X18638   0.477   2.369   8.064 -3.5899  0.4109 -0.7087
  165SAPE  H13Y18639   0.473   2.383   8.243 -1.5882 -0.0491  0.4293
  165SAPE  C31418640   0.312   2.275   8.169  0.6680 -0.0096  0.2511
  165SAPE  H14X18641   0.277   2.206   8.089 -0.3232  1.6530 -0.7985
  165SAPE  H14Y18642   0.250   2.367   8.156 -2.7882 -2.2774 -0.0045
  165SAPE  C31518643   0.285   2.214   8.307 -0.1993  0.1193  0.3529
  165SAPE  H15X18644   0.324   2.282   8.386 -3.7671 -0.5452  2.7958
  165SAPE  H15Y18645   0.358   2.130   8.316  0.3499  0.5862  0.3131
  165SAPE  C31618646   0.142   2.168   8.323 -0.2923  0.1733 -0.2441
  165SAPE  H16X18647   0.122   2.095   8.242  0.8735 -0.1808 -0.2243
  165SAPE  H16Y18648   0.082   2.259   8.304 -0.3444  0.1818 -0.0416
  165SAPE  C31718649   0.100   2.110   8.462  0.4527 -1.1484 -0.0519
  165SAPE  H17X18650   0.112   2.184   8.544  1.4162 -1.1304 -0.2049
  165SAPE  H17Y18651   0.158   2.016   8.476  1.9777 -0.0199  1.4006
  165SAPE  C31818652  -0.056   2.070   8.460 -0.0552 -0.5272 -0.1954
  165SAPE  H18X18653  -0.062   1.988   8.384  1.2656  0.1190 -1.0312
  165SAPE  H18Y18654  -0.119   2.155   8.427 -0.5807 -1.4140 -1.5420
  165SAPE  H18Z18655  -0.078   2.017   8.555  0.4491 -1.5737 -0.6583
  166SAPE     N18656   6.762   5.244   5.809 -0.1850  0.1231 -0.2821
  166SAPE   HN118657   6.726   5.155   5.770  0.2004 -0.2331  0.1597
  166SAPE   HN218658   6.864   5.237   5.831 -0.2452 -2.1509 -0.5854
  166SAPE   HN318659   6.720   5.249   5.904 -0.6308 -3.3997 -0.2123
  166SAPE   C1218660   6.722   5.358   5.719  0.7528  0.1755  0.5945
  166SAPE  H12A18661   6.640   5.418   5.765 -0.2069 -0.3751 -0.3858
  166SAPE  H12B18662   6.684   5.317   5.623 -0.7399  1.8158  0.4515
  166SAPE   C1118663   6.831   5.464   5.705 -0.5631 -0.0251  0.2169
  166SAPE  H11A18664   6.772   5.547   5.661 -0.6649 -0.3669 -0.2900
  166SAPE  H11B18665   6.908   5.444   5.628 -0.7538  1.1364 -0.2779
  166SAPE     P18666   6.922   5.645   5.874  0.1459 -0.1444 -0.1435
  166SAPE   O1318667   7.031   5.683   5.777 -0.2429 -0.5920  0.3717
  166SAPE   O1418668   6.802   5.731   5.890 -0.3297 -0.6076 -0.7939
  166SAPE   O1218669   6.879   5.498   5.830 -0.0021  0.0694  0.5639
  166SAPE   O1118670   6.978   5.629   6.018  0.9184 -0.1073  0.2853
  166SAPE    C118671   6.929   5.526   6.102 -0.3325  0.4016 -0.0220
  166SAPE    HA18672   6.828   5.497   6.067 -0.4673  2.6101 -1.5656
  166SAPE    HB18673   7.010   5.450   6.106 -0.8198 -0.1398 -0.3571
  166SAPE    C218674   6.917   5.592   6.246 -0.1375  0.6064  0.7658
  166SAPE    HS18675   6.958   5.695   6.240  0.4036  0.3200 -0.6076
  166SAPE   O2118676   6.979   5.509   6.343  0.1564  0.8952 -0.0189
  166SAPE   C2118677   7.114   5.508   6.350 -0.0994  0.3453  0.8856
  166SAPE   O2218678   7.189   5.574   6.276  0.5838 -0.2884  0.3677
  166SAPE   C2218679   7.165   5.406   6.448 -0.3476  0.2598  1.0519
  166SAPE   H2R18680   7.113   5.308   6.435  0.9459 -0.4747  1.3480
  166SAPE   H2S18681   7.272   5.397   6.423 -1.0587 -1.2817 -1.5688
  166SAPE    C318682   6.765   5.604   6.296  0.5646 -0.1082  0.2327
  166SAPE    HX18683   6.732   5.503   6.265  1.1887 -0.0100 -0.7709
  166SAPE    HY18684   6.719   5.688   6.240  1.9709 -0.1092 -0.9673
  166SAPE   O3118685   6.755   5.636   6.442 -0.5033 -0.0034  0.1442
  166SAPE   C3118686   6.718   5.531   6.514 -0.3232 -0.8083 -0.1938
  166SAPE   O3218687   6.698   5.416   6.480  0.4888  0.1938 -0.5492
  166SAPE   C3218688   6.714   5.586   6.660 -0.1870 -0.1216 -0.5362
  166SAPE   H2X18689   6.616   5.635   6.677 -0.7358 -1.1104 -0.7997
  166SAPE   H2Y18690   6.803   5.652   6.670 -1.1233  1.2599 -1.1928
  166SAPE   C2318691   7.163   5.461   6.591 -0.0372  0.2185  0.5600
  166SAPE   H3R18692   7.066   5.511   6.609  0.3129  1.0551  0.1379
  166SAPE   H3S18693   7.253   5.524   6.608 -0.3658  1.0532 -0.6761
  166SAPE   C2418694   7.173   5.347   6.696 -0.2779  0.6395  0.2996
  166SAPE   H4R18695   7.185   5.401   6.792 -0.4924  2.1086 -0.4852
  166SAPE   H4S18696   7.265   5.291   6.670 -0.6334 -0.0301  0.4911
  166SAPE   C2518697   7.043   5.262   6.702  0.1696  0.0813  0.3069
  166SAPE   H5R18698   6.977   5.267   6.614  0.4756  3.1707  0.1884
  166SAPE   C2618699   7.005   5.175   6.803 -0.3522  0.1409 -0.2126
  166SAPE   H6R18700   6.911   5.118   6.800 -0.0434 -0.3627 -0.3103
  166SAPE   C2718701   7.084   5.161   6.933 -0.0781  0.0739  0.1617
  166SAPE   H7R18702   7.045   5.233   7.007  3.1388 -0.1632  2.2137
  166SAPE   H7S18703   7.193   5.178   6.917  0.2566 -1.8649  0.1795
  166SAPE   C2818704   7.076   5.023   6.996 -0.3170 -0.1007 -0.0417
  166SAPE   H8R18705   7.029   4.942   6.938  0.4926 -0.2430 -0.5112
  166SAPE   C2918706   7.109   5.010   7.127  0.5295  0.4312  0.5789
  166SAPE   H9R18707   7.107   4.908   7.167 -2.9920 -0.0637 -0.6778
  166SAPE  C21018708   7.162   5.119   7.218  0.3610  0.4654  0.1504
  166SAPE  H10R18709   7.112   5.217   7.205  0.8367  1.0742  2.7645
  166SAPE  H10S18710   7.271   5.115   7.196  0.3037 -0.4446 -0.0071
  166SAPE  C21118711   7.161   5.073   7.364  0.1120  0.1055  0.5558
  166SAPE  H11R18712   7.182   4.968   7.390 -1.8756  0.3928  3.6405
  166SAPE  C21218713   7.146   5.165   7.464  0.3600 -0.1880 -0.3248
  166SAPE  H12R18714   7.151   5.141   7.571  0.6662 -1.4422 -0.6167
  166SAPE  C21318715   7.135   5.316   7.450 -0.4547 -0.0533 -0.0600
  166SAPE  H13R18716   7.063   5.367   7.517 -0.2534 -1.2775  1.0919
  166SAPE  H13S18717   7.090   5.354   7.355 -0.2413  0.3254 -0.0141
  166SAPE  C21418718   7.269   5.375   7.470 -0.1128 -0.1935 -0.2773
  166SAPE  H14R18719   7.353   5.306   7.478 -0.4961 -0.9037 -2.1503
  166SAPE  C21518720   7.297   5.507   7.472  0.1349  0.7735 -0.3370
  166SAPE  H15R18721   7.399   5.549   7.477 -0.0653  1.1160  1.3873
  166SAPE  C21618722   7.195   5.616   7.459 -0.2543  0.1218  1.1275
  166SAPE  H16R18723   7.202   5.683   7.547 -0.6284  0.1177  1.1606
  166SAPE  H16S18724   7.090   5.581   7.451 -0.0824 -0.1815  0.1510
  166SAPE  C21718725   7.223   5.707   7.340  0.1992 -0.2255 -0.4598
  166SAPE  H17R18726   7.332   5.726   7.340  0.1430  0.1222  0.2184
  166SAPE  H17S18727   7.173   5.806   7.351 -0.3946 -0.3511 -1.9475
  166SAPE  C21818728   7.189   5.645   7.207  0.1136 -0.1628 -0.5322
  166SAPE  H18R18729   7.087   5.602   7.218 -0.0888  0.6662  0.8606
  166SAPE  H18S18730   7.264   5.563   7.200 -0.4057 -0.8640  1.8074
  166SAPE  C21918731   7.216   5.747   7.097 -0.1618  0.7831  0.0359
  166SAPE  H19R18732   7.316   5.792   7.080  0.2910 -0.7382 -1.4943
  166SAPE  H19S18733   7.154   5.836   7.120 -0.2848  0.3338  1.4681
  166SAPE  C22018734   7.166   5.673   6.975 -0.1012  0.7008 -0.0145
  166SAPE  H20R18735   7.216   5.576   6.956 -0.6944  0.3273  0.3471
  166SAPE  H20S18736   7.168   5.726   6.877 -0.1281 -2.3121 -1.6876
  166SAPE  H20T18737   7.059   5.645   6.987  0.0761 -0.6437 -1.4242
  166SAPE   C3318738   6.717   5.468   6.772  0.3183  0.1589  0.5145
  166SAPE   H3X18739   6.793   5.392   6.745  1.0710  0.8590  0.6464
  166SAPE   H3Y18740   6.618   5.417   6.773 -0.8204  2.1534 -1.8224
  166SAPE   C3418741   6.745   5.519   6.911 -0.7771  0.4282 -0.0693
  166SAPE   H4X18742   6.661   5.585   6.942  1.0169  2.8139 -0.1436
  166SAPE   H4Y18743   6.840   5.577   6.912 -0.0175 -0.6729 -2.9413
  166SAPE   C3518744   6.747   5.402   7.004 -0.0847  0.2900 -0.0614
  166SAPE   H5X18745   6.821   5.322   6.981  1.5117  0.5121  3.8892
  166SAPE   H5Y18746   6.648   5.352   7.002 -0.2995  0.4778  3.1301
  166SAPE   C3618747   6.767   5.454   7.146 -0.5372  0.1022  0.0229
  166SAPE   H6X18748   6.681   5.517   7.177 -0.7362  0.3864 -1.0848
  166SAPE   H6Y18749   6.857   5.520   7.146 -0.0665 -0.5143 -0.6247
  166SAPE   C3718750   6.783   5.349   7.259  0.2118 -0.3904 -0.5674
  166SAPE   H7X18751   6.873   5.288   7.232 -1.0682 -1.3938 -2.7536
  166SAPE   H7Y18752   6.693   5.284   7.265  0.4520 -0.5896  1.0459
  166SAPE   C3818753   6.793   5.414   7.391  0.4016  1.0331 -0.8022
  166SAPE   H8X18754   6.702   5.476   7.401 -0.6068 -0.3566 -1.1965
  166SAPE   H8Y18755   6.889   5.470   7.400  0.6901  0.9169 -2.7918
  166SAPE   C3918756   6.775   5.323   7.511  0.2589  0.7589 -0.0089
  166SAPE   H9X18757   6.827   5.228   7.488  0.3295  1.0665 -1.1599
  166SAPE   H9Y18758   6.669   5.288   7.502  0.4352  0.3773 -0.6185
  166SAPE  C31018759   6.813   5.364   7.649  0.3788  0.0547  0.5302
  166SAPE  H10X18760   6.741   5.439   7.687 -0.7394 -0.5594 -0.3562
  166SAPE  H10Y18761   6.916   5.407   7.650  0.6571 -0.6074  1.8371
  166SAPE  C31118762   6.815   5.244   7.749 -0.4487  0.4430  0.0863
  166SAPE  H11X18763   6.772   5.155   7.697 -1.1873  1.2178 -0.6337
  166SAPE  H11Y18764   6.756   5.254   7.843  1.9145  1.8453  1.4706
  166SAPE  C31218765   6.960   5.214   7.797 -0.0102 -0.0906 -0.6011
  166SAPE  H12X18766   7.005   5.184   7.700 -2.1928 -2.1710 -1.0069
  166SAPE  H12Y18767   6.969   5.127   7.865  0.3681  0.3502 -0.0713
  166SAPE  C31318768   7.046   5.326   7.857  0.1616 -0.2184  0.0161
  166SAPE  H13X18769   7.065   5.406   7.782 -2.3106  2.2344  1.9011
  166SAPE  H13Y18770   7.139   5.275   7.890  0.8728  1.7322  1.1433
  166SAPE  C31418771   6.973   5.385   7.976 -0.0413  0.4877 -0.0271
  166SAPE  H14X18772   6.987   5.306   8.053 -0.1992 -2.1089 -2.5734
  166SAPE  H14Y18773   6.864   5.393   7.957 -0.5734 -0.7705  2.2972
  166SAPE  C31518774   7.040   5.520   8.027 -0.1086  0.5589  0.2627
  166SAPE  H15X18775   7.055   5.590   7.942 -1.0909  2.3298  1.5227
  166SAPE  H15Y18776   7.143   5.495   8.061 -0.7410 -1.4927  0.7167
  166SAPE  C31618777   6.958   5.581   8.143  0.5014  0.0416  0.2163
  166SAPE  H16X18778   6.956   5.507   8.226  1.1273  1.7576  1.7903
  166SAPE  H16Y18779   6.855   5.601   8.108 -0.8417 -2.9056  2.2694
  166SAPE  C31718780   7.020   5.706   8.194 -0.0014  0.7272  0.6993
  166SAPE  H17X18781   7.014   5.783   8.114 -2.5357 -1.5519 -1.3914
  166SAPE  H17Y18782   7.127   5.686   8.215  0.4670  0.1213 -2.0151
  166SAPE  C31818783   6.947   5.769   8.318  0.2959 -0.1733  0.6260
  166SAPE  H18X18784   6.838   5.783   8.302 -0.2662 -2.9926  1.8050
  166SAPE  H18Y18785   6.983   5.874   8.324 -1.1442  0.3621 -0.0102
  166SAPE  H18Z18786   6.977   5.710   8.407  1.8771  0.6608  0.6646
  167SAPE     N18787   1.303   4.898   6.103 -0.4442  0.0739 -0.1234
  167SAPE   HN118788   1.384   4.849   6.060  0.4092  1.1527  0.2049
  167SAPE   HN218789   1.234   4.910   6.026  0.0530  1.2969 -0.3916
  167SAPE   HN318790   1.335   4.991   6.138 -0.7695 -0.0283  0.4586
  167SAPE   C1218791   1.240   4.815   6.211 -0.1924  0.5232  0.4966
  167SAPE  H12A18792   1.139   4.859   6.225 -1.2672 -2.0427  0.9643
  167SAPE  H12B18793   1.302   4.809   6.303  0.3364 -0.8707  0.0642
  167SAPE   C1118794   1.212   4.677   6.147 -0.3923  0.7001 -0.2284
  167SAPE  H11A18795   1.167   4.618   6.229  0.4904 -0.3306 -0.4625
  167SAPE  H11B18796   1.303   4.624   6.111 -1.1898 -1.6624  1.1131
  167SAPE     P18797   1.007   4.587   6.017  0.0149 -0.0049 -0.5389
  167SAPE   O1318798   0.914   4.617   5.912  0.9665 -0.1768 -0.2957
  167SAPE   O1418799   1.082   4.460   6.008 -0.7542 -0.0981 -0.0326
  167SAPE   O1218800   1.119   4.701   6.037 -0.2594 -0.3088  0.2777
  167SAPE   O1118801   0.929   4.589   6.152 -0.4063  0.3546  0.1778
  167SAPE    C118802   0.863   4.708   6.195  0.4938 -0.0976  0.7319
  167SAPE    HA18803   0.946   4.781   6.201  0.8230 -0.3430 -0.6351
  167SAPE    HB18804   0.797   4.743   6.113  3.0551 -0.6757 -1.6516
  167SAPE    C218805   0.783   4.705   6.333 -0.0764 -0.6309  0.2617
  167SAPE    HS18806   0.778   4.812   6.363  1.1437 -1.1915  2.5934
  167SAPE   O2118807   0.862   4.633   6.431  0.5909 -0.2686  0.6744
  167SAPE   C2118808   0.977   4.689   6.471 -0.4498 -0.3272  0.1797
  167SAPE   O2218809   1.006   4.809   6.449 -0.7811 -0.2819 -0.5537
  167SAPE   C2218810   1.056   4.594   6.553 -0.2358  0.1528 -0.3185
  167SAPE   H2R18811   0.996   4.528   6.619 -0.4193  1.7945  1.1918
  167SAPE   H2S18812   1.113   4.532   6.480 -0.4710  0.5968 -0.8874
  167SAPE    C318813   0.641   4.647   6.327  0.5120  0.0262 -0.5660
  167SAPE    HX18814   0.661   4.543   6.291 -0.8757 -0.8335  1.1029
  167SAPE    HY18815   0.583   4.700   6.249 -0.9813 -0.0692  0.4619
  167SAPE   O3118816   0.569   4.653   6.450  0.6194  0.3880 -0.5415
  167SAPE   C3118817   0.556   4.542   6.526 -0.4533 -0.2922  0.0496
  167SAPE   O3218818   0.590   4.430   6.495  0.0731 -0.3219 -0.0173
  167SAPE   C3218819   0.467   4.575   6.646  0.4585 -0.2294  0.3849
  167SAPE   H2X18820   0.365   4.578   6.602  0.3899  2.6262  0.6502
  167SAPE   H2Y18821   0.482   4.680   6.678 -0.5254 -0.1759  0.7025
  167SAPE   C2318822   1.150   4.673   6.653 -0.4443  0.0971  0.7726
  167SAPE   H3R18823   1.217   4.746   6.604  1.9459 -1.0823  2.2050
  167SAPE   H3S18824   1.213   4.595   6.700 -1.2402 -1.5819 -0.9051
  167SAPE   C2418825   1.070   4.734   6.771  0.0547 -0.2309  0.1548
  167SAPE   H4R18826   0.995   4.666   6.818  0.3237 -0.1831  0.6500
  167SAPE   H4S18827   1.010   4.816   6.727  1.8058  1.3962  0.7671
  167SAPE   C2518828   1.168   4.791   6.872 -0.6029  0.0422 -0.2041
  167SAPE   H5R18829   1.252   4.842   6.822 -1.1129  2.6297  1.4977
  167SAPE   C2618830   1.157   4.788   7.010 -1.1925  0.5172 -0.0218
  167SAPE   H6R18831   1.244   4.816   7.071 -1.8448  0.1451  1.0896
  167SAPE   C2718832   1.053   4.734   7.104  0.2546 -0.1713 -0.3710
  167SAPE   H7R18833   1.083   4.635   7.143 -1.5697 -0.5516  0.1029
  167SAPE   H7S18834   0.956   4.720   7.052 -1.2273  0.1739  2.2177
  167SAPE   C2818835   1.036   4.846   7.206  0.1764  0.5166  0.0311
  167SAPE   H8R18836   0.986   4.934   7.162  0.5377  0.9920  0.5650
  167SAPE   C2918837   1.068   4.850   7.338 -0.7405 -0.0590 -0.3916
  167SAPE   H9R18838   1.031   4.937   7.394 -2.9235 -0.9660 -0.3697
  167SAPE  C21018839   1.135   4.743   7.421 -0.0609  1.0394 -0.1470
  167SAPE  H10R18840   1.181   4.666   7.355  0.3690 -2.0933  3.6762
  167SAPE  H10S18841   1.052   4.682   7.464  2.6542 -2.3644  0.4242
  167SAPE  C21118842   1.241   4.795   7.508 -0.3392  0.2371 -0.6922
  167SAPE  H11R18843   1.328   4.835   7.454 -0.3406 -1.7588 -2.2442
  167SAPE  C21218844   1.246   4.785   7.648  0.5648  0.6463 -0.1512
  167SAPE  H12R18845   1.322   4.841   7.705 -1.2143  1.1103  1.8482
  167SAPE  C21318846   1.146   4.720   7.737 -0.5204  0.1575 -0.6797
  167SAPE  H13R18847   1.199   4.717   7.834  2.8603  1.7282 -2.4044
  167SAPE  H13S18848   1.127   4.612   7.716 -2.2311 -0.0531  1.7511
  167SAPE  C21418849   1.013   4.789   7.744 -0.3313 -0.3238  0.8453
  167SAPE  H14R18850   0.968   4.824   7.650  0.2540  0.0483  0.7032
  167SAPE  C21518851   0.948   4.814   7.860  0.2761  0.2062  0.5373
  167SAPE  H15R18852   0.850   4.865   7.859  0.4400  0.5220  0.3032
  167SAPE  C21618853   0.991   4.787   8.004  0.6387  0.2225  0.2297
  167SAPE  H16R18854   1.044   4.690   8.014 -0.6000 -0.6600 -1.3804
  167SAPE  H16S18855   0.895   4.781   8.059  0.3240 -1.3466 -0.4731
  167SAPE  C21718856   1.074   4.906   8.053 -0.1827  0.9888  0.4422
  167SAPE  H17R18857   1.018   5.001   8.069 -2.9353 -0.3361 -0.9438
  167SAPE  H17S18858   1.164   4.934   7.994  1.1439  0.5522  2.1948
  167SAPE  C21818859   1.126   4.877   8.195  0.2136 -0.1970  0.4111
  167SAPE  H18R18860   1.172   4.968   8.238 -0.8386 -0.1972  1.5449
  167SAPE  H18S18861   1.199   4.793   8.199 -1.4489 -1.7752 -1.1195
  167SAPE  C21918862   1.006   4.831   8.290 -0.2573 -0.2339 -0.7979
  167SAPE  H19R18863   0.964   4.734   8.254 -2.3762  0.2793  0.2042
  167SAPE  H19S18864   0.925   4.905   8.273  1.3977  1.5919 -0.7842
  167SAPE  C22018865   1.053   4.805   8.429  0.6739  0.3916  0.0519
  167SAPE  H20R18866   0.994   4.739   8.495 -0.2495  0.3742 -0.7708
  167SAPE  H20S18867   1.053   4.907   8.473 -0.5880 -0.3212  1.7164
  167SAPE  H20T18868   1.160   4.776   8.432  0.2078 -1.4731 -0.6812
  167SAPE   C3318869   0.485   4.482   6.762  0.4560 -0.4889 -1.0583
  167SAPE   H3X18870   0.587   4.502   6.802  0.8239  0.0459 -2.2436
  167SAPE   H3Y18871   0.472   4.374   6.742 -0.3668 -0.8889  1.4107
  167SAPE   C3418872   0.382   4.518   6.876 -0.6791 -0.2003  0.4011
  167SAPE   H4X18873   0.276   4.486   6.869 -0.6928 -1.0289  3.3992
  167SAPE   H4Y18874   0.380   4.629   6.876  0.4725 -0.1674 -0.8946
  167SAPE   C3518875   0.434   4.462   7.007  0.9220  0.1697 -0.2630
  167SAPE   H5X18876   0.541   4.481   7.029  0.5103  3.4845 -0.9222
  167SAPE   H5Y18877   0.415   4.353   7.001  2.8396 -0.3429  2.0473
  167SAPE   C3618878   0.347   4.507   7.121  0.3308  0.1470 -0.0496
  167SAPE   H6X18879   0.244   4.500   7.081  0.8831 -3.3677 -1.0521
  167SAPE   H6Y18880   0.374   4.613   7.141 -1.5448  1.1195 -2.4321
  167SAPE   C3718881   0.358   4.427   7.254 -0.0894 -0.4320 -0.1504
  167SAPE   H7X18882   0.464   4.394   7.254  0.0094 -0.1104  0.5411
  167SAPE   H7Y18883   0.302   4.333   7.237 -0.2174 -0.3921  0.0551
  167SAPE   C3818884   0.290   4.504   7.370  0.7348  0.3164  0.4586
  167SAPE   H8X18885   0.182   4.504   7.344  0.9839  1.4044 -0.6115
  167SAPE   H8Y18886   0.321   4.610   7.378  1.1923  0.1760  0.5695
  167SAPE   C3918887   0.296   4.420   7.500 -1.2553 -0.3734 -0.1422
  167SAPE   H9X18888   0.400   4.382   7.502 -0.5187  1.2680 -3.3721
  167SAPE   H9Y18889   0.232   4.330   7.501 -2.5851  0.5484 -0.6650
  167SAPE  C31018890   0.278   4.492   7.633  0.1742 -0.0324 -0.5706
  167SAPE  H10X18891   0.194   4.559   7.605  0.7812  1.5284  1.2506
  167SAPE  H10Y18892   0.371   4.548   7.653  1.0913 -2.5620  2.7846
  167SAPE  C31118893   0.246   4.402   7.747 -0.1869  1.1183 -0.6996
  167SAPE  H11X18894   0.317   4.319   7.768  0.4608  1.6078 -0.9160
  167SAPE  H11Y18895   0.149   4.353   7.722 -0.1317  0.8795 -0.4400
  167SAPE  C31218896   0.231   4.483   7.886  0.1807  0.8937  0.9262
  167SAPE  H12X18897   0.145   4.552   7.873 -0.6546 -0.1259  0.8823
  167SAPE  H12Y18898   0.318   4.550   7.898  0.9632 -0.4749  3.0792
  167SAPE  C31318899   0.214   4.388   8.007 -0.4704 -0.4129  0.3736
  167SAPE  H13X18900   0.307   4.335   8.039 -0.1659 -0.2333 -0.2018
  167SAPE  H13Y18901   0.147   4.303   7.981  0.2664 -0.2345 -2.1956
  167SAPE  C31418902   0.155   4.443   8.135 -0.3192 -0.1146 -0.5290
  167SAPE  H14X18903   0.062   4.500   8.116 -1.0792 -0.2277  2.7077
  167SAPE  H14Y18904   0.228   4.519   8.171 -2.1173  1.5813 -0.4046
  167SAPE  C31518905   0.151   4.337   8.245  0.5468  0.3532 -0.4611
  167SAPE  H15X18906   0.208   4.247   8.215 -5.2809 -2.5781 -3.6394
  167SAPE  H15Y18907   0.040   4.326   8.248  0.6612 -0.5820  2.4135
  167SAPE  C31618908   0.209   4.389   8.383 -0.0985  0.7371 -1.0596
  167SAPE  H16X18909   0.144   4.468   8.427 -0.2627 -0.1118  0.2515
  167SAPE  H16Y18910   0.311   4.423   8.358 -0.2328  0.9183 -1.3530
  167SAPE  C31718911   0.231   4.277   8.488  0.2545  0.2063  0.7250
  167SAPE  H17X18912   0.284   4.192   8.441 -0.0965 -0.3365  1.2997
  167SAPE  H17Y18913   0.139   4.223   8.516  1.0218 -1.2627  0.4567
  167SAPE  C31818914   0.305   4.305   8.620 -0.3569 -0.0488 -0.3157
  167SAPE  H18X18915   0.379   4.385   8.596 -1.3847  0.3166 -2.4825
  167SAPE  H18Y18916   0.368   4.219   8.649  1.8697  1.3034 -1.0281
  167SAPE  H18Z18917   0.239   4.334   8.704  0.4429 -1.5038  0.8236
  168SAPE     N18918   1.973   6.658   6.652 -0.1938 -0.1281  0.2857
  168SAPE   HN118919   1.960   6.672   6.549 -1.5854 -2.4451  0.1096
  168SAPE   HN218920   1.906   6.719   6.702 -0.7809 -1.6844  1.4377
  168SAPE   HN318921   2.069   6.679   6.685 -0.4159 -1.4164  1.7748
  168SAPE   C1218922   1.950   6.510   6.688 -0.0687 -0.1104  0.2350
  168SAPE  H12A18923   1.852   6.471   6.653 -0.4372  0.3482  0.7410
  168SAPE  H12B18924   1.942   6.515   6.799  0.2520  2.0257  0.1746
  168SAPE   C1118925   2.065   6.422   6.637  0.3478 -0.6481 -0.3535
  168SAPE  H11A18926   2.047   6.328   6.694  0.0183 -1.0429 -1.0845
  168SAPE  H11B18927   2.158   6.473   6.668  0.0651  1.1169 -2.2509
  168SAPE     P18928   2.171   6.334   6.408 -0.0091  0.0521 -0.1409
  168SAPE   O1318929   2.118   6.254   6.297 -0.5796  0.1642 -0.0377
  168SAPE   O1418930   2.254   6.450   6.378  0.6311 -0.1847  0.4843
  168SAPE   O1218931   2.054   6.394   6.492  0.0009 -0.1327 -0.3511
  168SAPE   O1118932   2.250   6.242   6.507  0.0107  0.2901  0.4085
  168SAPE    C118933   2.390   6.203   6.507  0.6538  0.4962  0.0285
  168SAPE    HA18934   2.392   6.093   6.522  2.0460  0.3580 -1.0611
  168SAPE    HB18935   2.440   6.220   6.409 -1.2785  0.5549 -0.9706
  168SAPE    C218936   2.465   6.270   6.624 -0.1719  0.6738  0.8586
  168SAPE    HS18937   2.557   6.210   6.644 -2.5654 -2.7245  2.3012
  168SAPE   O2118938   2.387   6.279   6.747 -0.3492 -0.3090  0.1618
  168SAPE   C2118939   2.364   6.159   6.797  0.1747  0.3262 -0.8298
  168SAPE   O2218940   2.418   6.053   6.765 -0.6941 -0.2147 -0.5062
  168SAPE   C2218941   2.251   6.163   6.898  0.1119  0.4605  0.9901
  168SAPE   H2R18942   2.156   6.181   6.843  0.0888  2.9144  1.7540
  168SAPE   H2S18943   2.244   6.062   6.943  0.6313 -0.2225 -0.4332
  168SAPE    C318944   2.522   6.409   6.576  0.5406 -0.0667 -0.7716
  168SAPE    HX18945   2.449   6.484   6.611  1.8958 -1.5314  5.9375
  168SAPE    HY18946   2.530   6.419   6.466  2.1615  3.0629 -0.4219
  168SAPE   O3118947   2.655   6.428   6.624  0.3334  0.5446 -0.1283
  168SAPE   C3118948   2.681   6.556   6.654  0.7779  0.5338  0.0859
  168SAPE   O3218949   2.600   6.651   6.644  0.0261 -0.2151 -0.7644
  168SAPE   C3218950   2.822   6.585   6.695  0.1928  1.1298  1.2830
  168SAPE   H2X18951   2.879   6.605   6.601 -0.2325  0.5603  0.8931
  168SAPE   H2Y18952   2.865   6.493   6.741  0.1619  1.6174  2.2903
  168SAPE   C2318953   2.259   6.270   7.009 -0.1634 -0.2816 -0.1186
  168SAPE   H3R18954   2.219   6.365   6.967 -1.3596 -0.9844 -0.5940
  168SAPE   H3S18955   2.361   6.286   7.050 -0.5260  0.8435  0.3662
  168SAPE   C2418956   2.157   6.242   7.121 -0.6179 -0.1944  0.5935
  168SAPE   H4R18957   2.062   6.209   7.074 -0.8482 -0.9624  1.5897
  168SAPE   H4S18958   2.144   6.340   7.173  0.8107  0.0999  0.4243
  168SAPE   C2518959   2.198   6.130   7.214  0.0005  0.7037 -0.2278
  168SAPE   H5R18960   2.180   6.030   7.171  0.5350  0.8025 -0.6985
  168SAPE   C2618961   2.274   6.148   7.322 -0.3629  1.6442  0.3545
  168SAPE   H6R18962   2.275   6.070   7.400 -3.7472 -0.4442 -1.5620
  168SAPE   C2718963   2.328   6.271   7.383  0.6073 -0.3652  0.2427
  168SAPE   H7R18964   2.318   6.270   7.494 -1.2052 -1.8127  0.0754
  168SAPE   H7S18965   2.279   6.368   7.358  1.0424 -0.2828 -0.2818
  168SAPE   C2818966   2.469   6.283   7.327 -0.0046 -0.5940  0.4166
  168SAPE   H8R18967   2.484   6.254   7.222 -0.3375 -0.2909  0.2828
  168SAPE   C2918968   2.567   6.345   7.408  0.3166 -0.3854  0.1417
  168SAPE   H9R18969   2.670   6.346   7.370 -0.0853 -0.0673 -0.9653
  168SAPE  C21018970   2.550   6.399   7.550 -0.2124  0.1740 -0.3556
  168SAPE  H10R18971   2.459   6.463   7.546  0.4014  1.0509 -0.3763
  168SAPE  H10S18972   2.643   6.456   7.569 -0.2484  0.5669 -1.3271
  168SAPE  C21118973   2.535   6.300   7.658 -0.3899 -0.0547 -0.7890
  168SAPE  H11R18974   2.540   6.198   7.616  0.8056 -0.5851  0.6144
  168SAPE  C21218975   2.518   6.316   7.792  0.1182 -0.1314  0.6308
  168SAPE  H12R18976   2.531   6.230   7.861  1.0150 -0.3099  0.2489
  168SAPE  C21318977   2.516   6.446   7.872 -0.1363 -0.5273  0.3877
  168SAPE  H13R18978   2.413   6.477   7.902  0.1358 -0.2542  1.0370
  168SAPE  H13S18979   2.542   6.525   7.799 -0.6543 -0.8065 -0.1030
  168SAPE  C21418980   2.609   6.458   7.981  0.3519 -0.5612 -0.3041
  168SAPE  H14R18981   2.714   6.482   7.959  0.7298  0.0896  2.0681
  168SAPE  C21518982   2.586   6.428   8.112  0.3829  0.0791 -1.1952
  168SAPE  H15R18983   2.664   6.438   8.189 -1.9082  0.2197  1.1552
  168SAPE  C21618984   2.464   6.369   8.175 -0.1901 -0.0064  0.6881
  168SAPE  H16R18985   2.491   6.269   8.215 -0.1021 -0.2773 -0.0355
  168SAPE  H16S18986   2.390   6.350   8.094  1.7289  0.8064 -1.3245
  168SAPE  C21718987   2.417   6.470   8.277  0.7949 -0.1109  0.1813
  168SAPE  H17R18988   2.389   6.561   8.220  2.0317 -0.0342 -0.3253
  168SAPE  H17S18989   2.491   6.509   8.350 -0.1019 -0.6532  1.3992
  168SAPE  C21818990   2.303   6.400   8.349 -0.4264  0.2407  0.2733
  168SAPE  H18R18991   2.347   6.318   8.411 -0.7673  0.8338  1.3101
  168SAPE  H18S18992   2.236   6.349   8.277  0.5613 -0.4247 -0.1953
  168SAPE  C21918993   2.226   6.491   8.438  0.5193  0.8591  0.1928
  168SAPE  H19R18994   2.297   6.537   8.510  1.6974  0.0672 -0.4477
  168SAPE  H19S18995   2.169   6.416   8.497  1.8146 -0.6824 -0.4665
  168SAPE  C22018996   2.125   6.584   8.373 -0.3943  0.0827  0.7463
  168SAPE  H20R18997   2.171   6.661   8.307 -1.4969  1.5166  1.6117
  168SAPE  H20S18998   2.066   6.639   8.449 -0.8805 -0.6551  0.9066
  168SAPE  H20T18999   2.047   6.523   8.322 -0.4457  1.6005 -1.0661
  168SAPE   C3319000   2.830   6.687   6.802  0.6935  0.3843  0.1841
  168SAPE   H3X19001   2.772   6.773   6.765 -1.2798 -0.5715  0.9842
  168SAPE   H3Y19002   2.936   6.720   6.809  0.8006  0.4022 -1.4930
  168SAPE   C3419003   2.764   6.634   6.927 -0.1325 -0.1308  0.0571
  168SAPE   H4X19004   2.815   6.540   6.956  1.5775  1.0498  1.0071
  168SAPE   H4Y19005   2.659   6.604   6.909 -1.2709  2.3341  2.1448
  168SAPE   C3519006   2.769   6.736   7.045 -0.0166  0.3642  0.4876
  168SAPE   H5X19007   2.686   6.715   7.116  1.5023 -2.1776  1.5950
  168SAPE   H5Y19008   2.745   6.829   6.989  0.3799  0.7095  0.8945
  168SAPE   C3619009   2.886   6.738   7.133 -0.3777  0.6897  0.1707
  168SAPE   H6X19010   2.977   6.784   7.089 -2.3788  3.9728 -0.7482
  168SAPE   H6Y19011   2.924   6.636   7.153 -0.2867  0.2570 -2.0927
  168SAPE   C3719012   2.851   6.789   7.271 -0.3850  0.2490 -0.1723
  168SAPE   H7X19013   2.780   6.737   7.338  0.1625  1.2586  1.2293
  168SAPE   H7Y19014   2.792   6.879   7.244  0.2203  1.0331  1.0834
  168SAPE   C3819015   2.970   6.830   7.367  0.0295 -0.6847  0.3768
  168SAPE   H8X19016   2.926   6.863   7.463 -0.1396  0.2943 -0.0292
  168SAPE   H8Y19017   3.020   6.919   7.322  0.1273 -0.2707  1.3109
  168SAPE   C3919018   3.072   6.722   7.396 -0.1555 -0.3175  0.4735
  168SAPE   H9X19019   3.157   6.763   7.455 -1.3328  0.7749  1.4407
  168SAPE   H9Y19020   3.125   6.690   7.304  0.8749  0.1817  0.8811
  168SAPE  C31019021   3.012   6.602   7.465 -0.3947  0.1103 -0.4008
  168SAPE  H10X19022   3.062   6.509   7.429  0.2114  0.9543 -1.7827
  168SAPE  H10Y19023   2.904   6.590   7.439 -0.4741 -0.0592  0.0036
  168SAPE  C31119024   3.018   6.622   7.618  0.1576  0.1208  0.6326
  168SAPE  H11X19025   2.943   6.698   7.647 -0.7554 -0.7258  0.5227
  168SAPE  H11Y19026   3.114   6.662   7.656  0.8071 -0.6444 -0.1643
  168SAPE  C31219027   2.989   6.497   7.697 -0.4884 -0.2114 -0.4522
  168SAPE  H12X19028   3.049   6.417   7.649 -1.3918 -0.7928 -0.6198
  168SAPE  H12Y19029   2.881   6.471   7.694 -0.7055  0.8141 -2.5183
  168SAPE  C31319030   3.031   6.509   7.846  0.0165  0.0063 -0.1946
  168SAPE  H13X19031   2.977   6.582   7.910  0.2518  0.5866 -0.6473
  168SAPE  H13Y19032   3.141   6.525   7.850 -0.1146  1.2320 -1.1158
  168SAPE  C31419033   2.996   6.381   7.922  0.1445 -0.6768  0.6369
  168SAPE  H14X19034   3.037   6.296   7.864  2.5146  0.0897  1.1088
  168SAPE  H14Y19035   2.887   6.366   7.914 -0.0205  1.1677 -0.6737
  168SAPE  C31519036   3.050   6.383   8.068 -0.3334 -0.0401  0.4403
  168SAPE  H15X19037   3.160   6.378   8.056 -0.2101  2.0475  0.5909
  168SAPE  H15Y19038   3.011   6.292   8.118 -1.5957 -0.7100 -1.6940
  168SAPE  C31619039   3.024   6.517   8.154 -0.1425 -0.0380  0.0127
  168SAPE  H16X19040   2.920   6.536   8.190 -0.5217 -1.9527 -0.0674
  168SAPE  H16Y19041   3.059   6.602   8.092  1.8874 -0.7448  0.1581
  168SAPE  C31719042   3.103   6.516   8.293  0.8226 -0.1650 -0.1375
  168SAPE  H17X19043   3.212   6.527   8.278  1.5319 -1.1150  3.6832
  168SAPE  H17Y19044   3.092   6.416   8.340  3.3698 -0.0565  0.7746
  168SAPE  C31819045   3.071   6.637   8.396 -0.1360  0.4471 -0.2211
  168SAPE  H18X19046   2.968   6.657   8.432 -0.0177 -0.2960  0.5639
  168SAPE  H18Y19047   3.113   6.733   8.359  2.5327 -0.1824  1.0359
  168SAPE  H18Z19048   3.117   6.620   8.496 -0.2900  1.3320  0.0011
  169SAPE     N19049   1.876   1.748   6.015  0.4800  0.6029 -0.6114
  169SAPE   HN119050   1.879   1.752   5.911 -0.5527 -0.7900 -0.7018
  169SAPE   HN219051   1.876   1.846   6.051  0.2209  0.0454  0.9151
  169SAPE   HN319052   1.966   1.710   6.050  0.5134 -0.0821 -1.4146
  169SAPE   C1219053   1.756   1.679   6.067 -0.2331  0.2540  0.0171
  169SAPE  H12A19054   1.758   1.570   6.047 -2.1495 -0.0724  1.3931
  169SAPE  H12B19055   1.660   1.708   6.019  1.4478  1.7564 -2.5694
  169SAPE   C1119056   1.749   1.692   6.221  0.1007 -0.1678  0.6625
  169SAPE  H11A19057   1.838   1.637   6.257 -0.3823 -1.2968  0.1551
  169SAPE  H11B19058   1.657   1.645   6.262  0.3655 -0.3125  1.0881
  169SAPE     P19059   1.656   1.929   6.285  0.0689 -0.0625 -0.1568
  169SAPE   O1319060   1.692   2.055   6.229  0.4019  0.4028 -0.0749
  169SAPE   O1419061   1.531   1.869   6.241 -0.5241 -0.1627 -0.3893
  169SAPE   O1219062   1.771   1.830   6.269 -0.4963  0.5697  0.6447
  169SAPE   O1119063   1.654   1.960   6.437 -0.0078 -0.1463  0.2116
  169SAPE    C119064   1.665   1.847   6.529 -0.5256  0.0368  0.0895
  169SAPE    HA19065   1.636   1.750   6.485 -2.4804  1.3914 -1.7277
  169SAPE    HB19066   1.764   1.845   6.579 -0.8876 -0.7208  0.7745
  169SAPE    C219067   1.579   1.871   6.652  0.2055  0.2637 -0.3363
  169SAPE    HS19068   1.472   1.871   6.623 -0.2486 -1.4368  1.2811
  169SAPE   O2119069   1.619   1.994   6.726  0.0956 -0.1332  0.2679
  169SAPE   C2119070   1.555   2.095   6.679 -0.4004  0.3884 -0.4186
  169SAPE   O2219071   1.461   2.099   6.601  0.0390  0.0937  0.1342
  169SAPE   C2219072   1.621   2.219   6.741  0.0391  0.0169 -0.5178
  169SAPE   H2R19073   1.730   2.213   6.718  0.5130  1.3243  1.2652
  169SAPE   H2S19074   1.573   2.304   6.687 -0.9382  0.8765  1.6655
  169SAPE    C319075   1.597   1.755   6.752 -0.2608  0.9094 -0.2164
  169SAPE    HX19076   1.705   1.745   6.776 -0.1719 -0.0319 -1.0059
  169SAPE    HY19077   1.567   1.659   6.705 -2.3643  0.6119  1.6297
  169SAPE   O3119078   1.512   1.782   6.865  0.2671  0.4796  0.1290
  169SAPE   C3119079   1.583   1.816   6.977 -0.1131  0.2238 -0.4858
  169SAPE   O3219080   1.703   1.806   6.983  0.3780 -0.4016  0.3966
  169SAPE   C3219081   1.475   1.853   7.082  0.1030  0.3925  0.4822
  169SAPE   H2X19082   1.390   1.781   7.071  1.0160 -0.5772 -0.2901
  169SAPE   H2Y19083   1.435   1.951   7.046  1.0482  0.8680  0.7271
  169SAPE   C2319084   1.616   2.234   6.899 -0.4317  0.9683 -0.2124
  169SAPE   H3R19085   1.684   2.319   6.922  0.9568  0.9894 -3.9115
  169SAPE   H3S19086   1.669   2.144   6.939  0.7365  2.6581  2.1870
  169SAPE   C2419087   1.477   2.228   6.947  0.3005  0.3487  0.4827
  169SAPE   H4R19088   1.491   2.213   7.056  2.6508 -2.2663 -0.1344
  169SAPE   H4S19089   1.442   2.126   6.920  2.2807 -0.2670  0.2028
  169SAPE   C2519090   1.375   2.332   6.900  0.3212 -0.4619  0.3946
  169SAPE   H5R19091   1.355   2.328   6.792  1.8140  1.4925  0.0249
  169SAPE   C2619092   1.293   2.391   6.989 -0.1894  0.4053  0.9562
  169SAPE   H6R19093   1.222   2.468   6.956  1.0142  1.2411  0.2897
  169SAPE   C2719094   1.288   2.381   7.139 -0.3452  0.0973 -0.1137
  169SAPE   H7R19095   1.308   2.274   7.161  0.2154  0.2062 -0.0759
  169SAPE   H7S19096   1.188   2.407   7.180 -0.4142 -0.1662 -0.1132
  169SAPE   C2819097   1.394   2.469   7.205 -0.4451 -0.8633 -0.0940
  169SAPE   H8R19098   1.457   2.521   7.131 -1.5784  2.0528  0.9045
  169SAPE   C2919099   1.414   2.497   7.335 -0.1810  0.4698 -0.5588
  169SAPE   H9R19100   1.496   2.561   7.370 -0.2037 -0.1404  0.6416
  169SAPE  C21019101   1.360   2.431   7.459  0.1342  0.0913 -0.0831
  169SAPE  H10R19102   1.259   2.386   7.442  0.0662  0.7719 -1.4701
  169SAPE  H10S19103   1.339   2.510   7.534  0.9782  0.1029  0.1409
  169SAPE  C21119104   1.430   2.316   7.527  0.3987 -0.3772 -0.1350
  169SAPE  H11R19105   1.444   2.225   7.467 -1.9176  0.1793 -1.5891
  169SAPE  C21219106   1.478   2.315   7.659 -0.1595  0.1067 -0.1165
  169SAPE  H12R19107   1.543   2.229   7.677  0.5387  0.2601 -1.7650
  169SAPE  C21319108   1.477   2.435   7.760  0.6445 -0.1166 -0.1440
  169SAPE  H13R19109   1.448   2.398   7.861 -0.8661 -0.2646 -0.6125
  169SAPE  H13S19110   1.386   2.493   7.732  0.7199  1.2638  2.3372
  169SAPE  C21419111   1.604   2.514   7.756  0.1715 -0.2547  0.9989
  169SAPE  H14R19112   1.619   2.536   7.649 -1.4313 -0.8578  0.6396
  169SAPE  C21519113   1.676   2.579   7.847 -0.1701  0.9744 -0.0278
  169SAPE  H15R19114   1.771   2.626   7.816  1.6327 -1.6047  1.4285
  169SAPE  C21619115   1.655   2.579   8.000  0.0671  0.6468  1.0357
  169SAPE  H16R19116   1.729   2.514   8.052  1.3039  1.1041 -0.1016
  169SAPE  H16S19117   1.565   2.522   8.031 -0.8240  1.4705  0.0074
  169SAPE  C21719118   1.641   2.721   8.065 -0.1956  0.5162  0.0078
  169SAPE  H17R19119   1.592   2.708   8.164  2.6813 -1.0236  1.3292
  169SAPE  H17S19120   1.573   2.784   8.005 -1.0312 -0.1265  0.2790
  169SAPE  C21819121   1.768   2.798   8.089 -0.3797 -0.1005  0.7037
  169SAPE  H18R19122   1.742   2.893   8.142 -0.2746  0.9079 -1.0124
  169SAPE  H18S19123   1.810   2.812   7.987 -1.6003 -1.5601 -0.0068
  169SAPE  C21919124   1.868   2.717   8.177 -0.3771 -0.6340  0.4263
  169SAPE  H19R19125   1.916   2.643   8.109 -0.4653  0.7030 -1.1181
  169SAPE  H19S19126   1.813   2.662   8.256 -0.7418 -0.7602  0.0854
  169SAPE  C22019127   1.974   2.805   8.241 -0.0998 -0.2612  0.3246
  169SAPE  H20R19128   2.034   2.856   8.162  1.7803 -0.4237  1.6041
  169SAPE  H20S19129   2.037   2.742   8.307 -1.3297 -2.9600 -1.0173
  169SAPE  H20T19130   1.926   2.892   8.290 -2.7313 -0.4203 -1.8621
  169SAPE   C3319131   1.529   1.866   7.223 -1.0204 -0.5886 -0.6017
  169SAPE   H3X19132   1.456   1.918   7.289 -1.6193 -1.4375 -0.5875
  169SAPE   H3Y19133   1.615   1.936   7.216 -1.1731 -0.1198  1.7837
  169SAPE   C3419134   1.582   1.743   7.297  0.2661 -0.1674  0.1201
  169SAPE   H4X19135   1.654   1.700   7.224 -1.7737  0.5201 -2.3852
  169SAPE   H4Y19136   1.499   1.670   7.306 -1.1034  1.4247  0.7357
  169SAPE   C3519137   1.637   1.788   7.435 -0.7919  0.0905  0.4583
  169SAPE   H5X19138   1.696   1.881   7.422  0.0111 -0.3943  0.6272
  169SAPE   H5Y19139   1.705   1.705   7.465 -0.6970 -0.1332 -0.3652
  169SAPE   C3619140   1.525   1.797   7.541 -0.1051 -0.7105  0.2243
  169SAPE   H6X19141   1.524   1.693   7.579  0.5135 -0.7169  0.2179
  169SAPE   H6Y19142   1.437   1.834   7.484  0.4147 -1.5726 -1.1441
  169SAPE   C3719143   1.561   1.881   7.666 -0.1813  0.5079 -0.0787
  169SAPE   H7X19144   1.575   1.988   7.639 -0.2791  0.6363  0.3772
  169SAPE   H7Y19145   1.658   1.843   7.704 -0.2302  0.4335 -0.0280
  169SAPE   C3819146   1.447   1.871   7.768  0.0465 -0.6660  0.2766
  169SAPE   H8X19147   1.425   1.774   7.816 -0.1677  0.5908  2.7919
  169SAPE   H8Y19148   1.352   1.887   7.712  0.5266 -1.7019 -0.8498
  169SAPE   C3919149   1.459   1.981   7.874  0.5097  0.2072 -0.1835
  169SAPE   H9X19150   1.477   2.073   7.815  2.4277 -0.1491 -0.1730
  169SAPE   H9Y19151   1.550   1.957   7.933  1.2819  0.7226 -1.1652
  169SAPE  C31019152   1.346   2.002   7.977 -0.1894  1.1211 -0.0152
  169SAPE  H10X19153   1.330   1.908   8.035  0.2888  1.5097  0.7558
  169SAPE  H10Y19154   1.249   2.032   7.931 -1.5516  0.7554  2.4772
  169SAPE  C31119155   1.379   2.128   8.062  0.1075  0.2359 -0.1063
  169SAPE  H11X19156   1.296   2.181   8.113  0.6560  2.6447 -1.6072
  169SAPE  H11Y19157   1.397   2.207   7.986  1.6014  3.0758  3.0411
  169SAPE  C31219158   1.498   2.110   8.157  1.1187 -0.6348  0.4819
  169SAPE  H12X19159   1.586   2.077   8.098  0.3026 -0.0114 -1.1031
  169SAPE  H12Y19160   1.460   2.029   8.223  2.1466 -1.6216 -0.1232
  169SAPE  C31319161   1.539   2.239   8.238 -0.6787  0.6150  0.4763
  169SAPE  H13X19162   1.451   2.293   8.280 -3.5401 -2.4411 -1.2901
  169SAPE  H13Y19163   1.562   2.322   8.168 -1.2507  1.1998  0.9746
  169SAPE  C31419164   1.656   2.205   8.325  0.4802  0.2725 -0.0020
  169SAPE  H14X19165   1.695   2.106   8.292 -2.3319 -0.8634 -0.0656
  169SAPE  H14Y19166   1.621   2.186   8.429 -0.4693  1.8322 -0.0130
  169SAPE  C31519167   1.764   2.311   8.334 -0.3333  0.4641  0.4854
  169SAPE  H15X19168   1.725   2.414   8.322  0.8759  1.2326  2.8015
  169SAPE  H15Y19169   1.841   2.286   8.257 -1.2183 -2.3906  0.4572
  169SAPE  C31619170   1.826   2.314   8.472  0.1878 -0.3132 -0.4024
  169SAPE  H16X19171   1.870   2.213   8.475 -1.0756 -0.8442  0.5640
  169SAPE  H16Y19172   1.745   2.319   8.548 -1.3799  1.3651 -2.0979
  169SAPE  C31719173   1.918   2.426   8.493  0.4804  0.0155  0.1560
  169SAPE  H17X19174   1.933   2.440   8.603  0.7028  2.5839 -0.1636
  169SAPE  H17Y19175   1.870   2.518   8.454  2.9943  0.7584 -1.3021
  169SAPE  C31819176   2.060   2.409   8.430 -0.8123 -0.9638 -0.2798
  169SAPE  H18X19177   2.115   2.504   8.448 -3.4803  0.5450  0.0521
  169SAPE  H18Y19178   2.052   2.373   8.326  2.9834 -0.8294 -0.6969
  169SAPE  H18Z19179   2.108   2.324   8.484 -1.3602 -0.8676  0.3665
  170SAPE     N19180   2.311   5.006   6.168  0.2817 -0.0315 -0.7045
  170SAPE   HN119181   2.224   4.982   6.116 -0.6807 -0.0524  0.8636
  170SAPE   HN219182   2.362   4.926   6.209  0.0967  0.0278 -0.3583
  170SAPE   HN319183   2.275   5.071   6.241  0.9350 -1.3445  0.8167
  170SAPE   C1219184   2.400   5.067   6.062  0.0929  0.4023 -0.4872
  170SAPE  H12A19185   2.452   4.982   6.013 -1.9743 -0.6122 -0.9366
  170SAPE  H12B19186   2.485   5.121   6.111 -0.5276  1.1734 -0.2576
  170SAPE   C1119187   2.328   5.179   5.983 -0.1926  0.0283  0.2725
  170SAPE  H11A19188   2.272   5.129   5.901  1.5719 -0.8110 -0.4439
  170SAPE  H11B19189   2.412   5.231   5.932  1.3905 -2.8194 -0.1214
  170SAPE     P19190   2.282   5.418   6.086  0.1222  0.3883 -0.3350
  170SAPE   O1319191   2.280   5.474   5.946 -0.3827  0.0562  0.4146
  170SAPE   O1419192   2.184   5.479   6.174 -0.2197  0.0240 -0.8997
  170SAPE   O1219193   2.244   5.264   6.065 -0.0925 -0.8609 -0.1424
  170SAPE   O1119194   2.428   5.427   6.147 -0.3560 -1.0510 -0.5487
  170SAPE    C119195   2.455   5.391   6.277 -0.4295  0.3784 -0.3760
  170SAPE    HA19196   2.385   5.316   6.320  1.7908 -1.2293  0.5561
  170SAPE    HB19197   2.549   5.332   6.276  0.1237  1.1935  1.1258
  170SAPE    C219198   2.461   5.504   6.373  0.2324 -0.9670  0.0837
  170SAPE    HS19199   2.362   5.550   6.354 -0.9881 -1.7445  4.0694
  170SAPE   O2119200   2.579   5.584   6.342 -0.2912 -0.1639 -0.0548
  170SAPE   C2119201   2.563   5.715   6.347 -0.3543 -0.6337 -0.8542
  170SAPE   O2219202   2.461   5.778   6.383  0.2237 -0.0465  0.4154
  170SAPE   C2219203   2.699   5.774   6.312  0.2535 -0.1550 -0.3253
  170SAPE   H2R19204   2.771   5.715   6.373  1.0571  0.6748 -0.4672
  170SAPE   H2S19205   2.717   5.755   6.204  4.1234 -0.7112  0.3275
  170SAPE    C319206   2.458   5.454   6.517 -0.6684 -0.7823 -0.2584
  170SAPE    HX19207   2.555   5.404   6.541  1.0768  3.1234  1.3191
  170SAPE    HY19208   2.367   5.390   6.520  0.0306 -1.8583 -1.4429
  170SAPE   O3119209   2.454   5.562   6.611 -0.1426 -0.2579 -0.2608
  170SAPE   C3119210   2.342   5.605   6.654 -0.9516  1.4344  0.7613
  170SAPE   O3219211   2.230   5.565   6.630 -0.4913 -0.3606  0.1234
  170SAPE   C3219212   2.371   5.723   6.746  0.7288 -0.5444 -0.0395
  170SAPE   H2X19213   2.271   5.770   6.762  1.2834  0.1766  1.4671
  170SAPE   H2Y19214   2.440   5.797   6.700 -0.3760  0.7747  0.3884
  170SAPE   C2319215   2.717   5.926   6.338 -0.2125 -0.3118  0.3372
  170SAPE   H3R19216   2.632   5.974   6.285  1.1499  0.1131 -1.5054
  170SAPE   H3S19217   2.813   5.955   6.290 -0.1581  1.2769  1.3362
  170SAPE   C2419218   2.712   5.964   6.478 -0.0945  0.3933  0.5130
  170SAPE   H4R19219   2.739   5.882   6.548 -2.6097 -0.3916  0.6337
  170SAPE   H4S19220   2.607   5.982   6.511 -0.6561 -1.8746  0.0433
  170SAPE   C2519221   2.790   6.094   6.497  0.0911  0.2650 -0.1980
  170SAPE   H5R19222   2.792   6.154   6.405  1.3322 -1.8749 -1.6121
  170SAPE   C2619223   2.850   6.137   6.605 -0.0208 -0.7499 -0.8543
  170SAPE   H6R19224   2.898   6.236   6.602  0.4801 -0.9347  0.8126
  170SAPE   C2719225   2.852   6.069   6.737  0.0429  0.6398  0.0309
  170SAPE   H7R19226   2.950   6.080   6.789 -1.1015 -1.0927  2.6820
  170SAPE   H7S19227   2.857   5.960   6.719  2.3889  0.7584 -0.2630
  170SAPE   C2819228   2.741   6.079   6.839  0.9779 -0.0643  0.3121
  170SAPE   H8R19229   2.642   6.049   6.799  1.0486 -1.3891  1.1157
  170SAPE   C2919230   2.749   6.106   6.969 -0.4042 -0.0054 -1.2869
  170SAPE   H9R19231   2.656   6.083   7.023  0.6295 -0.1346  0.4839
  170SAPE  C21019232   2.869   6.128   7.054 -0.1641  0.1548  0.9917
  170SAPE  H10R19233   2.959   6.147   6.992  0.0960  1.8442  1.8520
  170SAPE  H10S19234   2.896   6.035   7.108  1.2418  1.1412  2.0432
  170SAPE  C21119235   2.844   6.239   7.148  0.4978 -0.0881  0.3019
  170SAPE  H11R19236   2.759   6.308   7.133 -0.5701 -1.5479 -0.4490
  170SAPE  C21219237   2.914   6.249   7.262  0.3403 -0.2716  0.2280
  170SAPE  H12R19238   2.885   6.330   7.331 -1.6329 -0.8496  0.1138
  170SAPE  C21319239   3.023   6.162   7.307 -0.4477 -0.5458 -0.5804
  170SAPE  H13R19240   3.110   6.183   7.241 -0.3130 -0.1248 -0.2666
  170SAPE  H13S19241   2.985   6.058   7.296 -0.0742 -0.4444 -3.1871
  170SAPE  C21419242   3.067   6.185   7.446 -1.0554  0.4394 -0.0271
  170SAPE  H14R19243   3.170   6.223   7.457 -0.4584 -1.5413  1.4757
  170SAPE  C21519244   3.008   6.151   7.561  0.4837  0.3391  0.3046
  170SAPE  H15R19245   3.058   6.160   7.659  2.5566 -2.0653 -0.4627
  170SAPE  C21619246   2.863   6.103   7.572 -0.2586  0.4907  0.1991
  170SAPE  H16R19247   2.823   6.051   7.482  0.4826  0.0117  0.1498
  170SAPE  H16S19248   2.795   6.183   7.609 -1.7666 -0.3574 -0.6673
  170SAPE  C21719249   2.860   5.991   7.685  0.8036 -0.3197 -0.5014
  170SAPE  H17R19250   2.945   5.920   7.685  1.3621  0.3315  1.5228
  170SAPE  H17S19251   2.758   5.948   7.668 -0.9309  2.7765  1.7203
  170SAPE  C21819252   2.856   6.050   7.825 -0.4754 -0.4388 -0.3268
  170SAPE  H18R19253   2.769   6.117   7.811 -0.8663 -0.9070 -0.1197
  170SAPE  H18S19254   2.949   6.102   7.858 -1.0996  0.0340  0.6910
  170SAPE  C21919255   2.812   5.951   7.938 -0.0723  0.7166 -0.5107
  170SAPE  H19R19256   2.886   5.869   7.944 -1.7901 -0.8569 -0.4235
  170SAPE  H19S19257   2.723   5.895   7.902  0.2967 -0.2842  0.1311
  170SAPE  C22019258   2.792   6.021   8.073 -0.1820 -0.4931  0.1769
  170SAPE  H20R19259   2.699   6.082   8.082 -1.6416 -2.3122 -1.9876
  170SAPE  H20S19260   2.874   6.085   8.112 -1.9290  1.4305  0.7764
  170SAPE  H20T19261   2.780   5.936   8.143 -1.1529 -2.3938 -2.2238
  170SAPE   C3319262   2.422   5.671   6.883  0.2877 -0.0663  0.2448
  170SAPE   H3X19263   2.517   5.614   6.882 -0.1168 -0.7887  1.5041
  170SAPE   H3Y19264   2.341   5.608   6.925  1.0886 -1.1602  0.1575
  170SAPE   C3419265   2.452   5.781   6.991  0.1196  1.1317  0.0693
  170SAPE   H4X19266   2.393   5.870   6.961 -1.5989  0.0291  0.0787
  170SAPE   H4Y19267   2.558   5.812   6.985  0.1421  0.7441 -2.6219
  170SAPE   C3519268   2.406   5.727   7.127 -0.6463  0.3688 -0.3191
  170SAPE   H5X19269   2.473   5.640   7.139  1.1034  1.7378 -0.0622
  170SAPE   H5Y19270   2.297   5.702   7.129  0.0019 -2.5591  1.1721
  170SAPE   C3619271   2.427   5.823   7.242 -0.4629  0.5699  0.3248
  170SAPE   H6X19272   2.336   5.886   7.253 -0.3397  0.7802  0.1290
  170SAPE   H6Y19273   2.509   5.898   7.235  0.8977 -0.9271 -0.0801
  170SAPE   C3719274   2.432   5.744   7.375  0.8794 -0.0945  0.5105
  170SAPE   H7X19275   2.493   5.652   7.358  1.5880  0.9281 -3.0687
  170SAPE   H7Y19276   2.333   5.713   7.414 -1.1380  1.2969 -3.2291
  170SAPE   C3819277   2.478   5.837   7.489  0.1428  0.8036  0.6668
  170SAPE   H8X19278   2.430   5.935   7.473 -0.1293  0.4264 -0.9481
  170SAPE   H8Y19279   2.585   5.862   7.477  0.2394  0.1072  0.0470
  170SAPE   C3919280   2.441   5.789   7.630  0.1422  0.6091 -0.3004
  170SAPE   H9X19281   2.514   5.713   7.664 -1.1763 -0.7014 -0.3247
  170SAPE   H9Y19282   2.343   5.736   7.623  1.0069 -0.9369 -0.8658
  170SAPE  C31019283   2.432   5.908   7.728 -0.0598  1.1509 -0.4400
  170SAPE  H10X19284   2.333   5.956   7.715 -0.4603  0.8772  1.4605
  170SAPE  H10Y19285   2.515   5.978   7.705  0.3924  1.1039  0.9926
  170SAPE  C31119286   2.433   5.854   7.874 -0.2399 -0.2582  0.1006
  170SAPE  H11X19287   2.518   5.787   7.897  0.4806  1.1007  1.4802
  170SAPE  H11Y19288   2.340   5.796   7.895 -1.1600  1.9241  2.3729
  170SAPE  C31219289   2.438   5.976   7.978 -0.1594  0.1432 -0.1067
  170SAPE  H12X19290   2.356   6.051   7.973  0.0077  0.4551  1.5524
  170SAPE  H12Y19291   2.529   6.031   7.946 -0.7344  1.1238 -0.0525
  170SAPE  C31319292   2.464   5.927   8.124 -0.1977  0.1129  0.2486
  170SAPE  H13X19293   2.479   6.022   8.179  0.1550  1.5078 -2.1774
  170SAPE  H13Y19294   2.559   5.868   8.124 -0.5649 -0.5135 -1.2031
  170SAPE  C31419295   2.354   5.845   8.189  0.1586  0.5585  0.3564
  170SAPE  H14X19296   2.362   5.743   8.146 -0.1943  0.8668 -0.4326
  170SAPE  H14Y19297   2.251   5.875   8.160 -0.5647 -1.1780  1.0242
  170SAPE  C31519298   2.359   5.817   8.343 -0.9353 -0.0678  0.5797
  170SAPE  H15X19299   2.297   5.730   8.373 -1.2487  0.2683  0.9135
  170SAPE  H15Y19300   2.316   5.903   8.398  0.0963  1.8212 -1.4931
  170SAPE  C31619301   2.500   5.792   8.401 -0.1536  0.5119  0.6014
  170SAPE  H16X19302   2.569   5.873   8.371  0.3786  0.2977  1.2518
  170SAPE  H16Y19303   2.542   5.701   8.351 -0.5819  1.0330 -0.7333
  170SAPE  C31719304   2.473   5.765   8.549 -0.3813 -0.2210 -0.1743
  170SAPE  H17X19305   2.414   5.671   8.556 -0.5646 -0.0020  1.5888
  170SAPE  H17Y19306   2.424   5.857   8.588  1.1408  0.8929 -0.8773
  170SAPE  C31819307   2.606   5.749   8.626 -0.0759 -0.1351 -0.3187
  170SAPE  H18X19308   2.663   5.842   8.606  0.0021  0.2733  1.6693
  170SAPE  H18Y19309   2.655   5.661   8.578  0.2594 -1.1519  1.8022
  170SAPE  H18Z19310   2.595   5.743   8.737  3.6926 -2.7568  0.0267
  171SAPE     N19311   4.233   0.405   6.246 -0.1046 -0.1658 -0.8081
  171SAPE   HN119312   4.139   0.429   6.283 -0.5894 -4.0949  0.8034
  171SAPE   HN219313   4.275   0.494   6.213 -1.3925  0.5679 -0.4689
  171SAPE   HN319314   4.218   0.345   6.162 -2.1175 -0.3406 -0.3493
  171SAPE   C1219315   4.298   0.330   6.356 -0.4039  0.0712  0.3892
  171SAPE  H12A19316   4.301   0.404   6.439  0.0759 -0.9314  1.2804
  171SAPE  H12B19317   4.401   0.300   6.330  0.2546  2.5663 -0.0033
  171SAPE   C1119318   4.211   0.211   6.395  0.1251 -0.6309 -0.1256
  171SAPE  H11A19319   4.114   0.254   6.427  0.3403  0.8124 -1.3660
  171SAPE  H11B19320   4.248   0.157   6.484 -1.9815 -2.1486 -0.1206
  171SAPE     P19321   4.055   0.042   6.255  0.0507  0.2915  0.2640
  171SAPE   O1319322   3.948   0.141   6.217 -0.4080  0.3155  0.1334
  171SAPE   O1419323   4.076  -0.081   6.170 -0.4373 -0.4393  0.0973
  171SAPE   O1219324   4.192   0.120   6.283  1.0052 -0.2009 -0.2607
  171SAPE   O1119325   4.019  -0.023   6.389  0.1355 -0.2351 -0.6224
  171SAPE    C119326   4.115  -0.083   6.477  0.2636 -0.1651 -0.1733
  171SAPE    HA19327   4.112  -0.193   6.462  0.7437 -0.0339 -1.2993
  171SAPE    HB19328   4.219  -0.047   6.461  0.0669  0.9761  1.0982
  171SAPE    C219329   4.078  -0.061   6.623  0.0611 -0.2299  0.0470
  171SAPE    HS19330   3.980  -0.107   6.646  0.1414  0.4861  1.9095
  171SAPE   O2119331   4.084   0.077   6.651  0.2171  0.1871  0.3800
  171SAPE   C2119332   3.979   0.119   6.719  0.2041  0.1269 -0.5645
  171SAPE   O2219333   3.886   0.044   6.750 -0.1264  0.1692 -0.0994
  171SAPE   C2219334   3.986   0.263   6.765 -0.0442 -0.2832  0.3290
  171SAPE   H2R19335   4.057   0.283   6.848  0.3366 -0.0315 -0.0507
  171SAPE   H2S19336   4.039   0.312   6.680  0.7641 -1.4402  0.1535
  171SAPE    C319337   4.179  -0.141   6.707  1.0915 -0.7399  0.3495
  171SAPE    HX19338   4.285  -0.107   6.700  0.6858  1.0699  2.5414
  171SAPE    HY19339   4.181  -0.247   6.673  0.0820  0.0830 -2.4294
  171SAPE   O3119340   4.151  -0.131   6.849  0.1440  0.3643 -0.0829
  171SAPE   C3119341   4.044  -0.195   6.896 -0.1124  0.0582 -0.1928
  171SAPE   O3219342   3.962  -0.260   6.832  0.4151  0.0520  0.2200
  171SAPE   C3219343   4.033  -0.161   7.040 -0.1270  0.1024 -0.4704
  171SAPE   H2X19344   3.992  -0.058   7.048 -1.2832 -0.4703  1.1036
  171SAPE   H2Y19345   4.137  -0.168   7.080  0.9650  0.8191 -3.0672
  171SAPE   C2319346   3.858   0.347   6.786 -0.0089  0.4379  0.6872
  171SAPE   H3R19347   3.762   0.307   6.747  1.1138 -0.3394 -1.3345
  171SAPE   H3S19348   3.875   0.442   6.730  1.9849 -0.6261 -0.5682
  171SAPE   C2419349   3.820   0.389   6.931 -0.1273  0.0407 -0.0076
  171SAPE   H4R19350   3.734   0.458   6.921 -0.0607  0.1740  0.3415
  171SAPE   H4S19351   3.909   0.442   6.973  1.5724 -2.0216 -0.9035
  171SAPE   C2519352   3.801   0.265   7.016  0.1368 -0.2754 -0.1216
  171SAPE   H5R19353   3.744   0.186   6.965 -2.0529  3.1076 -3.0713
  171SAPE   C2619354   3.852   0.248   7.145 -0.0640 -0.8816 -0.4798
  171SAPE   H6R19355   3.847   0.149   7.193 -0.4100 -1.2500 -1.2734
  171SAPE   C2719356   3.936   0.345   7.221 -0.2212 -0.0028 -0.3273
  171SAPE   H7R19357   3.967   0.438   7.169 -2.4042  0.6412 -0.5356
  171SAPE   H7S19358   4.034   0.295   7.240 -0.9616 -1.2151  0.3747
  171SAPE   C2819359   3.858   0.376   7.344  0.0391  0.0380  0.2517
  171SAPE   H8R19360   3.767   0.438   7.345  0.9357  1.3715  0.0218
  171SAPE   C2919361   3.908   0.340   7.463 -0.0909 -0.3051 -0.3121
  171SAPE   H9R19362   3.855   0.362   7.556 -0.8074 -0.7603 -0.6108
  171SAPE  C21019363   4.033   0.263   7.495  0.0304  0.7454 -0.2853
  171SAPE  H10R19364   4.078   0.299   7.590  0.2350 -0.4814  0.0873
  171SAPE  H10S19365   4.109   0.293   7.419 -0.1249  3.5502  0.5774
  171SAPE  C21119366   4.016   0.118   7.484  0.5650 -0.5498  0.0390
  171SAPE  H11R19367   3.989   0.087   7.382 -1.9903  1.2800  0.1131
  171SAPE  C21219368   4.001   0.028   7.577  0.4384  0.7034  0.0139
  171SAPE  H12R19369   3.981  -0.076   7.551  1.3006  0.1521  1.4605
  171SAPE  C21319370   4.013   0.056   7.726 -0.7548  0.7968 -0.3831
  171SAPE  H13R19371   3.986   0.162   7.745 -0.5677  0.3873  2.3648
  171SAPE  H13S19372   4.121   0.042   7.746 -0.7378 -2.1670 -2.1381
  171SAPE  C21419373   3.927  -0.034   7.805 -0.2100  0.5585 -0.2292
  171SAPE  H14R19374   3.818  -0.023   7.792 -0.2925  1.5782  1.2190
  171SAPE  C21519375   3.967  -0.121   7.899  0.0549  0.0570 -0.0493
  171SAPE  H15R19376   3.890  -0.181   7.949  2.1642 -0.8479  2.2451
  171SAPE  C21619377   4.114  -0.151   7.941 -0.1986 -0.4994  0.3515
  171SAPE  H16R19378   4.185  -0.070   7.915 -0.5812 -0.3063 -0.1050
  171SAPE  H16S19379   4.151  -0.245   7.896  0.4825  1.1887 -2.7410
  171SAPE  C21719380   4.137  -0.172   8.089 -0.6783 -0.0045  0.4619
  171SAPE  H17R19381   4.246  -0.192   8.099  0.0251  1.3946 -3.7012
  171SAPE  H17S19382   4.109  -0.275   8.121  0.4079 -0.3080  0.4728
  171SAPE  C21819383   4.109  -0.049   8.174  0.6329  0.3889  0.5144
  171SAPE  H18R19384   3.999  -0.035   8.168  0.6905  0.3885 -0.6330
  171SAPE  H18S19385   4.165   0.044   8.151 -1.3381  1.4118 -0.2719
  171SAPE  C21919386   4.155  -0.079   8.319 -0.1520  0.1287 -0.1693
  171SAPE  H19R19387   4.242  -0.148   8.313  0.4769  0.8390  0.5950
  171SAPE  H19S19388   4.070  -0.137   8.361 -0.9456  1.1271 -0.3831
  171SAPE  C22019389   4.199   0.038   8.401  0.1834  0.5264  0.9578
  171SAPE  H20R19390   4.129   0.121   8.376  0.6530  0.8914  0.8471
  171SAPE  H20S19391   4.304   0.067   8.380 -0.3595  0.6775 -1.7075
  171SAPE  H20T19392   4.189   0.020   8.510 -1.3396 -3.6289  0.2015
  171SAPE   C3319393   3.941  -0.253   7.125  0.8476 -0.5587 -0.7191
  171SAPE   H3X19394   3.946  -0.357   7.088 -1.8674 -1.2902  0.7886
  171SAPE   H3Y19395   3.834  -0.229   7.107  0.9946 -0.3207 -1.2846
  171SAPE   C3419396   3.977  -0.256   7.271 -0.4628 -0.7791 -0.3482
  171SAPE   H4X19397   3.941  -0.166   7.325 -0.3326 -2.1998  2.2283
  171SAPE   H4Y19398   4.085  -0.268   7.290 -0.7767 -1.4812  1.0673
  171SAPE   C3519399   3.896  -0.367   7.343 -0.3125 -0.3023  0.8026
  171SAPE   H5X19400   3.939  -0.462   7.306  2.0017  0.3435  1.7485
  171SAPE   H5Y19401   3.790  -0.358   7.309 -0.3102 -2.0532  0.2986
  171SAPE   C3619402   3.921  -0.382   7.490  0.2336  0.9058 -0.5602
  171SAPE   H6X19403   3.867  -0.301   7.544 -0.3844  0.7336 -0.9077
  171SAPE   H6Y19404   4.029  -0.387   7.513 -0.4058 -2.7287  2.1536
  171SAPE   C3719405   3.878  -0.515   7.554 -0.4714 -0.3382 -0.3231
  171SAPE   H7X19406   3.924  -0.607   7.512 -0.0605  0.3531 -1.4158
  171SAPE   H7Y19407   3.768  -0.526   7.545 -0.8786  0.8372  2.5573
  171SAPE   C3819408   3.913  -0.512   7.707 -0.0717  0.1780  0.1326
  171SAPE   H8X19409   3.861  -0.423   7.748 -1.2154 -0.5796  0.3449
  171SAPE   H8Y19410   4.023  -0.502   7.718  0.0087  0.8116 -1.1359
  171SAPE   C3919411   3.872  -0.644   7.782 -0.1364  0.6544 -0.1722
  171SAPE   H9X19412   3.927  -0.732   7.743 -2.1666 -1.1732  0.9787
  171SAPE   H9Y19413   3.763  -0.662   7.778  0.2170 -1.3846 -0.7058
  171SAPE  C31019414   3.914  -0.641   7.940 -0.1695  0.0305  0.5509
  171SAPE  H10X19415   3.893  -0.537   7.973 -1.7225  1.2899 -4.0872
  171SAPE  H10Y19416   4.024  -0.655   7.950 -0.2124 -0.1829  0.7232
  171SAPE  C31119417   3.831  -0.744   8.017  0.3840 -0.3442  0.3873
  171SAPE  H11X19418   3.861  -0.846   7.984 -1.4043 -0.4089 -1.1297
  171SAPE  H11Y19419   3.723  -0.733   7.995  0.4193  0.6351  0.6886
  171SAPE  C31219420   3.853  -0.727   8.173 -0.3631 -0.0982  0.6254
  171SAPE  H12X19421   3.815  -0.809   8.238 -0.9273 -0.7431 -0.4956
  171SAPE  H12Y19422   3.794  -0.640   8.209  0.2704  0.0003  1.4283
  171SAPE  C31319423   3.997  -0.715   8.209 -0.8801  0.0127 -0.1173
  171SAPE  H13X19424   4.033  -0.619   8.167  0.4685  0.3957  1.8664
  171SAPE  H13Y19425   4.060  -0.787   8.153 -0.6085  0.1456  0.0150
  171SAPE  C31419426   4.024  -0.725   8.365  0.0384 -0.0469 -0.7515
  171SAPE  H14X19427   4.010  -0.832   8.394 -1.6899 -0.0762 -1.6184
  171SAPE  H14Y19428   3.942  -0.663   8.408  0.0433 -0.4288 -0.1742
  171SAPE  C31519429   4.159  -0.687   8.421 -0.1507  0.5931  0.2894
  171SAPE  H15X19430   4.247  -0.738   8.376 -1.5443 -2.9571  1.4203
  171SAPE  H15Y19431   4.164  -0.723   8.526 -0.0706 -0.2679 -0.0084
  171SAPE  C31619432   4.184  -0.532   8.416  0.5988 -0.5835 -0.4553
  171SAPE  H16X19433   4.169  -0.486   8.316  1.2683  0.4186 -0.0957
  171SAPE  H16Y19434   4.292  -0.521   8.436  0.2294  1.2746  0.6593
  171SAPE  C31719435   4.110  -0.452   8.535  0.2634 -0.0979  0.0890
  171SAPE  H17X19436   4.013  -0.503   8.551 -0.9881  1.8162 -1.2041
  171SAPE  H17Y19437   4.103  -0.344   8.508 -0.2252 -0.3463 -0.7868
  171SAPE  C31819438   4.172  -0.458   8.677 -0.2922 -0.1193 -0.4666
  171SAPE  H18X19439   4.110  -0.389   8.738  0.9581 -1.0269  1.8884
  171SAPE  H18Y19440   4.277  -0.420   8.674 -1.2876  2.7474 -0.9858
  171SAPE  H18Z19441   4.165  -0.561   8.716 -0.9762  0.0479 -0.1400
  172SAPE     N19442   3.095   4.787   6.469 -0.5138 -0.1199 -0.2677
  172SAPE   HN119443   3.198   4.774   6.476 -0.2397  0.4529 -2.5762
  172SAPE   HN219444   3.063   4.747   6.559  1.7248 -2.1675 -0.3110
  172SAPE   HN319445   3.053   4.730   6.392 -1.1341  2.1925 -1.6702
  172SAPE   C1219446   3.052   4.932   6.456 -0.0548 -0.6735  0.2556
  172SAPE  H12A19447   3.098   4.993   6.536 -3.7288  1.2523  0.9611
  172SAPE  H12B19448   2.943   4.934   6.475 -0.0895  4.0785  0.1531
  172SAPE   C1119449   3.091   4.985   6.313 -0.2528  0.0441  0.8048
  172SAPE  H11A19450   3.069   5.094   6.312 -0.1848  0.0738  2.2325
  172SAPE  H11B19451   3.030   4.935   6.234  1.2974  0.1161 -0.4652
  172SAPE     P19452   3.349   5.053   6.353 -0.4143 -0.1711  0.1591
  172SAPE   O1319453   3.403   4.961   6.459 -0.1195  0.4573  0.3583
  172SAPE   O1419454   3.438   5.108   6.242 -0.2129 -0.0187  0.3168
  172SAPE   O1219455   3.230   4.971   6.276  0.5635  0.4673  0.2743
  172SAPE   O1119456   3.272   5.165   6.427 -0.0326 -0.0232  0.4962
  172SAPE    C119457   3.328   5.291   6.479  0.3603 -0.6880 -0.4659
  172SAPE    HA19458   3.429   5.302   6.433  0.4471  0.4165 -0.0161
  172SAPE    HB19459   3.261   5.373   6.447 -2.0527 -2.7747 -0.9287
  172SAPE    C219460   3.333   5.300   6.637  0.4581 -0.4395 -0.3708
  172SAPE    HS19461   3.381   5.390   6.680 -1.1286  0.0554  0.3624
  172SAPE   O2119462   3.387   5.179   6.698 -0.6235 -0.2229 -0.2690
  172SAPE   C2119463   3.513   5.161   6.677 -0.4697  0.6982 -0.1167
  172SAPE   O2219464   3.580   5.236   6.610  0.1675  1.3327 -0.6047
  172SAPE   C2219465   3.558   5.036   6.761  0.1801  0.3314  0.5610
  172SAPE   H2R19466   3.497   5.017   6.852  0.7141 -2.9322  0.3093
  172SAPE   H2S19467   3.558   4.952   6.688  3.1732  0.7069  0.0541
  172SAPE    C319468   3.188   5.316   6.681  0.2623  0.2203  0.2069
  172SAPE    HX19469   3.122   5.247   6.625  0.2704  0.8595 -0.5916
  172SAPE    HY19470   3.147   5.414   6.647 -0.3518 -0.1662 -0.1742
  172SAPE   O3119471   3.176   5.305   6.826 -0.5186  0.2256 -0.2802
  172SAPE   C3119472   3.072   5.240   6.870 -0.2403 -0.1493  0.0617
  172SAPE   O3219473   2.994   5.179   6.800 -0.3155  0.0471 -0.2892
  172SAPE   C3219474   3.076   5.242   7.022 -0.5995  0.1907  0.4536
  172SAPE   H2X19475   3.060   5.347   7.054  0.0188  0.1534  0.8834
  172SAPE   H2Y19476   3.179   5.212   7.051 -0.7982 -1.6659 -0.6737
  172SAPE   C2319477   3.702   5.057   6.817 -0.0595  0.6964 -0.1482
  172SAPE   H3R19478   3.712   5.143   6.886  0.2043  1.7988 -1.5303
  172SAPE   H3S19479   3.767   5.068   6.727  0.9443  3.7418  0.9148
  172SAPE   C2419480   3.741   4.927   6.889 -0.0774  0.1895 -0.1566
  172SAPE   H4R19481   3.699   4.844   6.827 -1.2892  0.1903  0.6374
  172SAPE   H4S19482   3.671   4.929   6.975 -0.2298  0.1802 -0.2775
  172SAPE   C2519483   3.886   4.898   6.922  0.0454 -0.6267 -0.4261
  172SAPE   H5R19484   3.962   4.899   6.843 -0.0296  1.4105 -0.4975
  172SAPE   C2619485   3.942   4.886   7.046 -0.3335 -0.0191 -0.2420
  172SAPE   H6R19486   4.051   4.878   7.059 -0.7325 -1.1248  2.7173
  172SAPE   C2719487   3.871   4.893   7.177  0.5768  0.9750 -0.4435
  172SAPE   H7R19488   3.903   4.811   7.244  1.7210  1.6231 -0.1901
  172SAPE   H7S19489   3.760   4.883   7.169  0.6559 -0.7089  0.3691
  172SAPE   C2819490   3.896   5.018   7.253 -0.2916  0.5444 -0.1624
  172SAPE   H8R19491   3.908   5.108   7.190 -1.1800  0.1729 -0.8807
  172SAPE   C2919492   3.926   5.020   7.385  0.0407 -0.5468 -0.2096
  172SAPE   H9R19493   3.940   5.118   7.432 -2.0380 -0.2999 -0.0241
  172SAPE  C21019494   3.931   4.900   7.476 -0.8087  0.2641 -0.0942
  172SAPE  H10R19495   4.027   4.851   7.447 -0.7170 -1.3525  2.7329
  172SAPE  H10S19496   3.843   4.836   7.459 -0.7669  0.8211 -2.6739
  172SAPE  C21119497   3.930   4.960   7.614 -0.1081 -0.2164 -0.3993
  172SAPE  H11R19498   3.827   4.969   7.651  0.5754  1.2821  1.2008
  172SAPE  C21219499   4.034   5.001   7.685  0.0544 -0.1452  0.2605
  172SAPE  H12R19500   4.010   5.054   7.779  0.3530 -0.2843  0.4170
  172SAPE  C21319501   4.179   5.000   7.651 -0.1869 -0.3432 -0.1018
  172SAPE  H13R19502   4.191   5.035   7.547 -1.2521 -2.7811 -1.0799
  172SAPE  H13S19503   4.215   4.895   7.658  1.1457  0.0410 -0.8828
  172SAPE  C21419504   4.265   5.081   7.742 -0.5367 -0.7341 -0.6224
  172SAPE  H14R19505   4.347   5.024   7.787  0.8494  0.2739 -1.7915
  172SAPE  C21519506   4.256   5.218   7.779  0.9310 -0.0758 -0.4685
  172SAPE  H15R19507   4.321   5.249   7.862  0.9849  1.3829 -1.0525
  172SAPE  C21619508   4.155   5.315   7.730  0.0708 -0.0356  1.0750
  172SAPE  H16R19509   4.079   5.330   7.809 -1.4589 -0.1001 -0.3497
  172SAPE  H16S19510   4.107   5.278   7.637  2.7805 -0.0846 -0.3473
  172SAPE  C21719511   4.223   5.449   7.714 -0.0958 -0.4093  0.3457
  172SAPE  H17R19512   4.144   5.519   7.678 -0.7657 -1.9003 -1.1530
  172SAPE  H17S19513   4.306   5.456   7.641 -0.4598  0.7822  0.0297
  172SAPE  C21819514   4.259   5.517   7.849  0.4352  0.7032  0.6971
  172SAPE  H18R19515   4.357   5.481   7.887  1.3799  2.5274  0.0328
  172SAPE  H18S19516   4.178   5.478   7.915 -0.0859 -0.1581 -0.4372
  172SAPE  C21919517   4.264   5.672   7.856  0.3358 -0.4777  1.2243
  172SAPE  H19R19518   4.168   5.706   7.811  0.6118 -1.5040 -0.1654
  172SAPE  H19S19519   4.342   5.708   7.785 -0.4492  1.0072  1.0977
  172SAPE  C22019520   4.280   5.732   7.997  0.3866  0.2399  0.2962
  172SAPE  H20R19521   4.377   5.701   8.043 -0.2033 -2.7097 -0.3166
  172SAPE  H20S19522   4.192   5.696   8.054  0.5985 -0.3799  0.2382
  172SAPE  H20T19523   4.276   5.842   7.988 -0.8823  0.2078  0.4449
  172SAPE   C3319524   2.968   5.163   7.095 -0.3477 -0.1858  0.3863
  172SAPE   H3X19525   2.990   5.056   7.075 -0.4661  0.2085 -2.0153
  172SAPE   H3Y19526   2.863   5.176   7.060 -0.0419 -1.0707 -0.8912
  172SAPE   C3419527   2.958   5.189   7.245  0.6535 -0.4915 -0.6100
  172SAPE   H4X19528   2.861   5.149   7.282 -1.1737  2.0777 -2.4067
  172SAPE   H4Y19529   2.958   5.299   7.263 -0.9373 -0.3960 -1.0999
  172SAPE   C3519530   3.082   5.138   7.326 -0.2127 -0.4513  1.0032
  172SAPE   H5X19531   3.174   5.183   7.283 -1.9367 -0.7624 -3.2030
  172SAPE   H5Y19532   3.088   5.027   7.321 -1.0897 -0.5142  1.1775
  172SAPE   C3619533   3.079   5.164   7.477  0.0986 -0.2299 -0.4197
  172SAPE   H6X19534   3.085   5.270   7.509  1.4602 -0.3408 -0.2732
  172SAPE   H6Y19535   3.168   5.110   7.514 -0.0387 -0.6368 -0.6779
  172SAPE   C3719536   2.958   5.111   7.557 -0.2096 -0.2057 -0.3204
  172SAPE   H7X19537   2.958   5.000   7.550  0.7740 -0.1188 -1.9886
  172SAPE   H7Y19538   2.860   5.151   7.523 -0.6348  0.0264  1.1330
  172SAPE   C3819539   2.973   5.132   7.707 -0.5467  0.3127  0.3174
  172SAPE   H8X19540   2.952   5.240   7.727 -1.0975  0.2847 -0.0988
  172SAPE   H8Y19541   3.077   5.095   7.720 -0.0658  0.8990 -1.6959
  172SAPE   C3919542   2.876   5.043   7.793 -0.4796  0.3517  0.0671
  172SAPE   H9X19543   2.885   4.938   7.757  3.1750  0.6350 -0.0892
  172SAPE   H9Y19544   2.769   5.070   7.778 -0.1517  2.3307  1.1676
  172SAPE  C31019545   2.911   5.050   7.939 -0.1710 -0.3039 -0.0902
  172SAPE  H10X19546   3.014   5.083   7.963 -1.1540  2.0314  0.9934
  172SAPE  H10Y19547   2.900   4.949   7.985 -1.3968  0.2033  0.7489
  172SAPE  C31119548   2.835   5.164   8.014 -0.0382  0.6285 -0.4245
  172SAPE  H11X19549   2.724   5.157   8.010 -0.1087  0.4705  1.5841
  172SAPE  H11Y19550   2.871   5.250   7.953  2.0595  0.8900  1.1433
  172SAPE  C31219551   2.887   5.177   8.157 -0.1484  0.2373  0.2189
  172SAPE  H12X19552   2.895   5.286   8.177  1.3886 -0.1831  1.9963
  172SAPE  H12Y19553   2.981   5.122   8.177 -1.4943 -1.2575  2.7452
  172SAPE  C31319554   2.780   5.120   8.253  0.0165  0.2198  0.5513
  172SAPE  H13X19555   2.760   5.012   8.233 -0.4132  0.2002  1.0787
  172SAPE  H13Y19556   2.688   5.181   8.241 -1.0968 -1.2868  1.0911
  172SAPE  C31419557   2.823   5.129   8.401  0.0005 -0.6316  0.3865
  172SAPE  H14X19558   2.933   5.115   8.397  0.0941  0.4278 -1.0514
  172SAPE  H14Y19559   2.782   5.033   8.439  3.1667 -2.5316 -0.8602
  172SAPE  C31519560   2.777   5.253   8.475 -0.1344  0.0868 -0.1662
  172SAPE  H15X19561   2.668   5.273   8.461 -0.8488 -2.3973  1.5979
  172SAPE  H15Y19562   2.837   5.335   8.429  0.5505 -1.3391 -1.8650
  172SAPE  C31619563   2.815   5.258   8.623  0.2219 -0.7903 -0.6644
  172SAPE  H16X19564   2.925   5.249   8.634 -0.0322 -0.7306  2.5943
  172SAPE  H16Y19565   2.754   5.181   8.675 -1.4201  1.5147  0.9531
  172SAPE  C31719566   2.793   5.387   8.700 -0.1197 -0.3463 -0.5361
  172SAPE  H17X19567   2.686   5.417   8.692 -0.0577 -0.4674 -2.1210
  172SAPE  H17Y19568   2.846   5.468   8.646  0.6849  0.3879  1.3230
  172SAPE  C31819569   2.848   5.384   8.844 -0.5522 -0.7029 -1.3778
  172SAPE  H18X19570   2.830   5.476   8.903  0.4882 -1.3087 -0.0820
  172SAPE  H18Y19571   2.958   5.370   8.844 -0.2367  1.5778 -0.8427
  172SAPE  H18Z19572   2.801   5.303   8.904 -0.3928 -0.7876 -1.3676
  173SOPE     N19573   2.424   3.422  11.070 -0.1424  0.0431 -0.9315
  173SOPE   HN119574   2.403   3.471  11.159 -0.1987 -2.3835  0.4107
  173SOPE   HN219575   2.331   3.392  11.034 -1.5430  2.4848  0.4945
  173SOPE   HN319576   2.478   3.337  11.095  1.0449  0.1555 -2.9933
  173SOPE   C1219577   2.498   3.502  10.966  0.4917  0.3581 -0.5620
  173SOPE  H12A19578   2.561   3.576  11.020  2.6943 -1.0365 -1.1339
  173SOPE  H12B19579   2.422   3.563  10.913 -0.1748  1.0589  1.1447
  173SOPE   C1119580   2.577   3.414  10.879  0.0987  0.4378  0.4885
  173SOPE  H11A19581   2.622   3.481  10.802  0.0199  1.3056  1.1856
  173SOPE  H11B19582   2.508   3.341  10.832 -0.4114  0.7559  0.7493
  173SOPE     P19583   2.741   3.213  10.898  0.0390  0.0799  0.3803
  173SOPE   O1319584   2.641   3.125  10.832 -0.0282  0.8710 -0.5106
  173SOPE   O1419585   2.822   3.147  11.011 -0.0609 -0.5328 -0.2174
  173SOPE   O1219586   2.668   3.344  10.964 -0.1516  0.5773  0.7407
  173SOPE   O1119587   2.847   3.273  10.792 -0.5413 -0.1598  0.5222
  173SOPE    C119588   2.832   3.241  10.651 -0.3858  0.0403  0.4770
  173SOPE    HA19589   2.746   3.298  10.608  1.7895  3.0170 -0.0661
  173SOPE    HB19590   2.813   3.132  10.634  0.3735 -0.1083  0.5837
  173SOPE    C219591   2.959   3.272  10.566  0.5350  0.3997  0.9545
  173SOPE    HS19592   2.989   3.376  10.588  0.3034  0.5285  0.6514
  173SOPE   O2119593   2.940   3.256  10.425  0.1853  0.1338 -0.3675
  173SOPE   C2119594   3.020   3.336  10.350 -0.8220 -0.4411  0.4879
  173SOPE   O2219595   3.097   3.418  10.391 -0.0410  0.5703 -0.0639
  173SOPE   C2219596   2.993   3.303  10.200 -0.5417  0.1446  1.2610
  173SOPE   H2R19597   2.888   3.331  10.177 -0.7756 -1.6844  0.0004
  173SOPE   H2S19598   3.009   3.193  10.188 -1.8690 -0.0251  0.9136
  173SOPE    C319599   3.077   3.179  10.623  0.2155  0.0991 -0.4010
  173SOPE    HX19600   3.038   3.075  10.617 -2.3175  1.0449 -0.8699
  173SOPE    HY19601   3.100   3.217  10.724 -0.0955 -0.6077 -0.0606
  173SOPE   O3119602   3.197   3.182  10.539 -0.1752 -0.1834  0.3777
  173SOPE   C3119603   3.307   3.153  10.596 -0.2476 -0.8998  0.3033
  173SOPE   O3219604   3.322   3.121  10.714 -0.1158  0.1197 -0.1095
  173SOPE   C3219605   3.417   3.166  10.496 -0.0398  0.2818  0.1105
  173SOPE   H2X19606   3.515   3.174  10.548  0.4085  0.7255 -0.7927
  173SOPE   H2Y19607   3.399   3.261  10.442 -0.1135  0.4179  0.3722
  173SOPE   C2319608   3.075   3.369  10.085 -0.4822 -0.0324 -0.5699
  173SOPE   H3R19609   3.184   3.380  10.102 -1.1280  1.8118  2.9609
  173SOPE   H3S19610   3.038   3.473  10.072 -0.7377 -0.1304 -0.6477
  173SOPE   C2419611   3.060   3.290   9.956 -0.3472 -0.2568  0.1563
  173SOPE   H4R19612   3.070   3.183   9.987 -1.2613  0.3131  2.5143
  173SOPE   H4S19613   2.958   3.301   9.914 -0.4892  1.1270  0.8252
  173SOPE   C2519614   3.172   3.328   9.859 -0.6363  0.7199 -0.2394
  173SOPE   H5R19615   3.187   3.438   9.852 -1.1396  0.7751 -0.5160
  173SOPE   H5S19616   3.257   3.286   9.916 -0.4116  0.4099 -0.8027
  173SOPE   C2619617   3.142   3.278   9.720  0.0786 -0.1530  0.0269
  173SOPE   H6R19618   3.239   3.261   9.669 -0.6670 -0.0357 -1.4477
  173SOPE   H6S19619   3.097   3.177   9.734 -0.6846  0.3224  1.0565
  173SOPE   C2719620   3.030   3.361   9.648 -0.4646  0.6039  0.4270
  173SOPE   H7R19621   2.941   3.361   9.715 -1.7525  2.4305 -1.2535
  173SOPE   H7S19622   3.058   3.463   9.616  1.5537 -0.3063 -0.8618
  173SOPE   C2819623   2.985   3.275   9.523  0.7241 -1.3097  0.1256
  173SOPE   H8R19624   2.955   3.171   9.549 -0.7541 -0.2815  2.6699
  173SOPE   H8S19625   2.898   3.329   9.480  0.1963 -2.6943 -0.5707
  173SOPE   C2919626   3.088   3.273   9.409  0.5429 -0.3326 -0.5006
  173SOPE   H9119627   3.191   3.253   9.442  0.2627 -1.1078 -0.0792
  173SOPE  C21019628   3.063   3.285   9.276  1.0359 -0.7848 -0.2379
  173SOPE  H10119629   3.146   3.265   9.206  1.6587 -0.6026  0.4341
  173SOPE  C21119630   2.929   3.306   9.212 -0.2410 -0.5924  0.2353
  173SOPE  H11R19631   2.864   3.373   9.273 -0.3070 -0.4679  0.0279
  173SOPE  H11S19632   2.864   3.216   9.206  0.2338 -0.9336  0.1838
  173SOPE  C21219633   2.937   3.366   9.079 -0.0506 -0.5910  0.2376
  173SOPE  H12R19634   3.001   3.456   9.082  2.4169 -2.0629 -3.6986
  173SOPE  H12S19635   2.847   3.420   9.041 -0.0057 -1.1106 -0.6238
  173SOPE  C21319636   2.992   3.268   8.966  0.5380  0.2093  0.2130
  173SOPE  H13R19637   2.904   3.202   8.948 -0.3081  0.2554  3.7619
  173SOPE  H13S19638   3.073   3.210   9.015 -1.5755 -1.0575  2.3305
  173SOPE  C21419639   3.044   3.339   8.842 -0.0880 -0.2537 -0.5701
  173SOPE  H14R19640   3.104   3.266   8.784  0.8950 -1.0964  1.4522
  173SOPE  H14S19641   3.118   3.417   8.867  0.2773 -0.2678 -1.5933
  173SOPE  C21519642   2.926   3.391   8.755 -0.6700 -0.0896  0.4210
  173SOPE  H15R19643   2.869   3.464   8.816 -1.5340 -0.0304 -0.4549
  173SOPE  H15S19644   2.860   3.306   8.726 -0.8986 -1.2338  4.0036
  173SOPE  C21619645   2.980   3.459   8.629  0.1173 -0.1164  0.2134
  173SOPE  H16R19646   3.044   3.381   8.582  0.4890 -0.0476  0.5998
  173SOPE  H16S19647   3.057   3.536   8.653  1.1584 -1.2544  0.6004
  173SOPE  C21719648   2.858   3.504   8.542  0.2350 -0.2623  0.2212
  173SOPE  H17R19649   2.813   3.602   8.570  2.4018  0.5045  1.1457
  173SOPE  H17S19650   2.791   3.416   8.543 -0.1970  0.0785  1.0450
  173SOPE  C21819651   2.893   3.515   8.393 -1.0915  0.0684  0.1919
  173SOPE  H18R19652   2.865   3.422   8.338  0.2755  0.2963 -0.9342
  173SOPE  H18S19653   2.997   3.549   8.375 -0.6797 -1.4325 -0.2890
  173SOPE  H18T19654   2.825   3.595   8.357 -3.6949 -1.3373  1.8524
  173SOPE   C3319655   3.419   3.053  10.389  0.7488 -0.3443 -1.2359
  173SOPE   H3X19656   3.392   2.958  10.440  0.2085  0.1129 -0.6686
  173SOPE   H3Y19657   3.524   3.042  10.354  0.9414  0.2790 -0.8667
  173SOPE   C3419658   3.328   3.063  10.262 -0.3226 -0.1688  0.3692
  173SOPE   H4X19659   3.348   3.157  10.206  0.1344 -1.5588 -1.8353
  173SOPE   H4Y19660   3.227   3.037  10.302 -0.4437  0.7010  0.6452
  173SOPE   C3519661   3.362   2.950  10.166  0.3475 -0.1642 -0.6045
  173SOPE   H5X19662   3.355   2.862  10.233 -0.3977 -0.0043 -0.4696
  173SOPE   H5Y19663   3.467   2.953  10.129  1.6056  0.6326  2.8151
  173SOPE   C3619664   3.264   2.969  10.047 -0.7706  0.3787 -0.4977
  173SOPE   H6X19665   3.324   3.025   9.973  1.9335 -0.2186  1.1549
  173SOPE   H6Y19666   3.170   3.023  10.074 -0.7121 -0.2275  0.9992
  173SOPE   C3719667   3.239   2.833   9.977  0.4677 -0.2968 -0.2093
  173SOPE   H7X19668   3.166   2.779  10.041  2.5709 -1.5040  1.2051
  173SOPE   H7Y19669   3.324   2.762   9.978  1.8149  1.2883  2.3494
  173SOPE   C3819670   3.186   2.845   9.830  1.0718 -0.8538  0.2735
  173SOPE   H8X19671   3.102   2.918   9.826  0.8729 -1.0117  1.4036
  173SOPE   H8Y19672   3.148   2.747   9.794  2.1602 -1.3082  0.3479
  173SOPE   C3919673   3.294   2.885   9.739  0.0777 -0.3682 -0.3402
  173SOPE   H9X19674   3.373   2.809   9.757  0.6775 -0.1330 -1.9382
  173SOPE   H9Y19675   3.342   2.980   9.772 -1.4569  0.3808 -0.2393
  173SOPE  C31019676   3.268   2.901   9.593 -0.3812  0.2895  0.1375
  173SOPE  H10X19677   3.203   2.988   9.575 -1.3822  0.2733  3.2896
  173SOPE  H10Y19678   3.200   2.819   9.561 -1.9935  1.4948  0.4200
  173SOPE  C31119679   3.396   2.911   9.511 -0.4082 -0.4260 -0.1135
  173SOPE  H11X19680   3.448   2.813   9.510  0.4413  0.0195 -1.4919
  173SOPE  H11Y19681   3.466   2.974   9.570  0.2184 -0.7386 -0.5148
  173SOPE  C31219682   3.365   2.969   9.375 -0.0489  0.2869  0.3504
  173SOPE  H12X19683   3.460   2.965   9.318  0.0469 -0.5381  0.5541
  173SOPE  H12Y19684   3.339   3.076   9.393  1.0325  0.1465  2.9162
  173SOPE  C31319685   3.245   2.908   9.296  0.9182 -0.5813  0.6148
  173SOPE  H13X19686   3.154   2.942   9.350 -0.3154 -1.2037 -1.0505
  173SOPE  H13Y19687   3.239   2.798   9.284 -0.7789 -0.2661 -1.7977
  173SOPE  C31419688   3.255   2.942   9.149  0.4173  0.1242 -0.5791
  173SOPE  H14X19689   3.342   2.897   9.097  0.0325  0.7135 -1.7530
  173SOPE  H14Y19690   3.266   3.053   9.144 -0.6152  0.2714  0.2085
  173SOPE  C31519691   3.125   2.902   9.077 -0.4822  0.7028  0.6466
  173SOPE  H15X19692   3.041   2.961   9.120 -1.3100  0.7458 -0.9739
  173SOPE  H15Y19693   3.109   2.795   9.104  0.7302  0.8252  1.9018
  173SOPE  C31619694   3.138   2.928   8.927 -0.6782 -1.0050  0.2520
  173SOPE  H16X19695   3.222   2.870   8.882  0.1052 -0.6650  1.2589
  173SOPE  H16Y19696   3.169   3.034   8.913 -1.6439 -0.9240 -1.5161
  173SOPE  C31719697   3.003   2.919   8.848  0.6440 -0.5340  0.4155
  173SOPE  H17X19698   3.025   2.966   8.750 -0.7282 -2.4281 -0.8608
  173SOPE  H17Y19699   2.924   2.986   8.889  0.8725  0.6200 -0.9812
  173SOPE  C31819700   2.944   2.777   8.851  0.2442 -1.0859  0.9217
  173SOPE  H18X19701   2.850   2.760   8.794 -1.0380  4.3680  1.1353
  173SOPE  H18Y19702   2.912   2.766   8.957 -0.1191  1.3456  1.0851
  173SOPE  H18Z19703   3.022   2.708   8.813 -0.2116 -1.4024  0.5582
  174SOPE     N19704   2.615   2.872  11.007  0.0812 -0.2983  0.1232
  174SOPE   HN119705   2.678   2.853  11.087 -0.1290 -1.3562  0.0372
  174SOPE   HN219706   2.603   2.968  10.968 -0.4504 -0.7272 -0.7658
  174SOPE   HN319707   2.521   2.844  11.041 -0.0830 -0.3267 -0.3519
  174SOPE   C1219708   2.640   2.774  10.898  0.0935 -0.7325  0.7649
  174SOPE  H12A19709   2.577   2.807  10.812  0.8158  0.2028  0.5808
  174SOPE  H12B19710   2.607   2.671  10.923  1.7445 -1.1357  1.3360
  174SOPE   C1119711   2.780   2.775  10.828 -0.8894 -0.2653  0.1806
  174SOPE  H11A19712   2.793   2.866  10.765  1.8113  0.2500  1.3914
  174SOPE  H11B19713   2.782   2.689  10.758  0.7590  1.8557 -2.5086
  174SOPE     P19714   2.969   2.641  10.960 -0.1671  0.1128  0.1315
  174SOPE   O1319715   2.873   2.539  11.005  0.8896 -0.2662  0.3151
  174SOPE   O1419716   3.077   2.681  11.057  0.0521 -0.6827 -0.5492
  174SOPE   O1219717   2.891   2.773  10.924  0.3674 -0.6124  0.1484
  174SOPE   O1119718   3.037   2.600  10.818 -0.2842  0.8123  0.0679
  174SOPE    C119719   3.162   2.672  10.792  0.0696 -0.0484 -0.1707
  174SOPE    HA19720   3.233   2.654  10.875  1.0088 -0.9414 -1.1385
  174SOPE    HB19721   3.143   2.780  10.774 -0.6276  0.0893  1.3431
  174SOPE    C219722   3.240   2.616  10.668  0.6260 -0.5096 -0.5338
  174SOPE    HS19723   3.327   2.682  10.647  0.9970 -1.2253 -1.2321
  174SOPE   O2119724   3.155   2.595  10.551 -1.1994 -0.1956 -0.7829
  174SOPE   C2119725   3.123   2.709  10.494  0.0258 -0.0382 -0.5549
  174SOPE   O2219726   3.165   2.820  10.524  0.1544  0.3489  0.4204
  174SOPE   C2219727   3.033   2.684  10.375  0.5946  0.4860 -0.0489
  174SOPE   H2R19728   3.019   2.779  10.318 -0.6220  1.1012  1.2621
  174SOPE   H2S19729   2.934   2.651  10.413  1.0917  1.7175  2.3647
  174SOPE    C319730   3.301   2.480  10.713 -0.1088 -0.4545  0.0659
  174SOPE    HX19731   3.224   2.413  10.757 -0.9609  0.6477  0.2636
  174SOPE    HY19732   3.368   2.502  10.799 -2.4229  1.7428  1.3499
  174SOPE   O3119733   3.385   2.418  10.609  0.9017 -0.0223 -0.2254
  174SOPE   C3119734   3.325   2.329  10.533  0.4502  0.0953 -1.0614
  174SOPE   O3219735   3.211   2.289  10.552  0.2079 -0.2875  0.3736
  174SOPE   C3219736   3.418   2.275  10.434 -0.2518 -0.8449  0.5849
  174SOPE   H2X19737   3.419   2.164  10.433  0.6182 -0.8715  1.7708
  174SOPE   H2Y19738   3.520   2.311  10.463 -0.7494  1.4685 -0.4083
  174SOPE   C2319739   3.091   2.579  10.279 -0.3385 -0.3751 -0.0823
  174SOPE   H3R19740   3.121   2.489  10.336  0.3555 -0.0916  0.0083
  174SOPE   H3S19741   3.185   2.610  10.229  0.8116 -0.9016  1.7142
  174SOPE   C2419742   3.004   2.536  10.155 -0.6782  0.4990  0.1777
  174SOPE   H4R19743   2.916   2.484  10.197 -1.2579  1.3334 -0.0015
  174SOPE   H4S19744   2.971   2.628  10.103  1.7076  0.7121 -1.0385
  174SOPE   C2519745   3.082   2.444  10.057 -0.1522  0.2122 -0.4759
  174SOPE   H5R19746   3.177   2.502  10.054 -1.0792  1.9480  2.2096
  174SOPE   H5S19747   3.103   2.344  10.099  2.3879  1.1586  0.6087
  174SOPE   C2619748   3.017   2.429   9.918  0.9617 -0.4650 -0.0074
  174SOPE   H6R19749   2.940   2.349   9.922  1.7826 -1.2690 -0.1850
  174SOPE   H6S19750   2.951   2.519   9.913 -0.6578 -1.4961  1.9351
  174SOPE   C2719751   3.111   2.404   9.805 -0.3698  0.1232 -0.2163
  174SOPE   H7R19752   3.211   2.448   9.825 -0.1110  0.1049 -1.4095
  174SOPE   H7S19753   3.134   2.296   9.789 -2.5884 -0.8355  2.6004
  174SOPE   C2819754   3.067   2.475   9.674 -0.6760 -0.4933  0.9055
  174SOPE   H8R19755   3.023   2.573   9.700 -1.1071 -0.3302 -0.3831
  174SOPE   H8S19756   3.159   2.502   9.617 -2.1651  1.0795 -0.7989
  174SOPE   C2919757   2.974   2.398   9.582 -0.6991 -0.1541 -0.1688
  174SOPE   H9119758   2.894   2.341   9.631 -0.9100 -0.2726 -0.6503
  174SOPE  C21019759   2.978   2.391   9.448  0.2501  1.1510  0.0207
  174SOPE  H10119760   2.906   2.322   9.403  1.3260  0.7378 -1.0878
  174SOPE  C21119761   3.077   2.468   9.365 -0.3802 -0.8598  0.3704
  174SOPE  H11R19762   3.140   2.538   9.425 -0.9297  0.0499 -0.1174
  174SOPE  H11S19763   3.028   2.533   9.290 -0.4049  0.5697  1.6035
  174SOPE  C21219764   3.179   2.386   9.286 -0.5905 -0.6585 -0.0540
  174SOPE  H12R19765   3.229   2.310   9.349  0.1635  0.7094  1.0252
  174SOPE  H12S19766   3.261   2.452   9.252 -0.4777  0.4541  2.2561
  174SOPE  C21319767   3.109   2.314   9.168  0.0631 -0.3715  0.3493
  174SOPE  H13R19768   3.007   2.285   9.201 -0.9237  0.6684 -1.6847
  174SOPE  H13S19769   3.163   2.219   9.147 -0.7505 -0.5791 -0.8514
  174SOPE  C21419770   3.105   2.401   9.043  0.9102 -0.6412 -0.5228
  174SOPE  H14R19771   3.100   2.508   9.071 -2.2665 -0.0969 -2.8825
  174SOPE  H14S19772   3.001   2.384   9.007  0.6122 -0.4244  0.2282
  174SOPE  C21519773   3.205   2.371   8.935 -0.8769  0.4744  0.1828
  174SOPE  H15R19774   3.189   2.269   8.896 -1.1683  0.9104 -0.8531
  174SOPE  H15S19775   3.308   2.380   8.977  0.5460 -0.3455 -2.9992
  174SOPE  C21619776   3.206   2.475   8.815 -0.3844  0.6155 -0.8431
  174SOPE  H16R19777   3.211   2.575   8.863 -0.6460  1.2693 -2.1631
  174SOPE  H16S19778   3.110   2.472   8.760 -1.2798 -1.0680  0.7776
  174SOPE  C21719779   3.315   2.454   8.712 -1.0268 -0.1797 -0.0816
  174SOPE  H17R19780   3.419   2.441   8.749 -0.7002  0.7982 -0.6528
  174SOPE  H17S19781   3.325   2.543   8.646 -1.2428 -0.7167 -0.8452
  174SOPE  C21819782   3.288   2.330   8.630  0.5151 -0.0742 -0.5122
  174SOPE  H18R19783   3.279   2.239   8.694 -0.8978  0.3283 -0.1226
  174SOPE  H18S19784   3.354   2.321   8.541  1.1176 -0.1041 -0.0628
  174SOPE  H18T19785   3.189   2.337   8.579  1.1641 -0.1463 -1.7969
  174SOPE   C3319786   3.387   2.329  10.289  0.3057  0.4217 -0.5693
  174SOPE   H3X19787   3.408   2.436  10.274  1.4167  0.1519 -0.9280
  174SOPE   H3Y19788   3.277   2.328  10.270  0.1245 -0.8391  0.4330
  174SOPE   C3419789   3.459   2.247  10.181 -0.2066  0.1051 -0.4838
  174SOPE   H4X19790   3.564   2.254  10.215 -0.4044 -0.3950  0.2418
  174SOPE   H4Y19791   3.450   2.294  10.081 -1.8564 -0.8610 -0.8181
  174SOPE   C3519792   3.414   2.095  10.169 -0.6828 -0.4778  0.1556
  174SOPE   H5X19793   3.305   2.084  10.151 -1.1369  2.5680  0.6965
  174SOPE   H5Y19794   3.426   2.040  10.265 -0.1368  2.0857  1.6106
  174SOPE   C3619795   3.502   2.012  10.082  0.1217  0.0500 -0.5733
  174SOPE   H6X19796   3.477   1.905  10.102 -1.4329  0.0506 -2.3932
  174SOPE   H6Y19797   3.608   2.025  10.113  0.3496  1.2030 -1.8209
  174SOPE   C3719798   3.481   2.031   9.934 -0.0292 -0.1836  0.2837
  174SOPE   H7X19799   3.578   2.014   9.881 -0.2661  1.2094 -0.6326
  174SOPE   H7Y19800   3.460   2.139   9.915 -0.0293 -0.5568 -2.0791
  174SOPE   C3819801   3.380   1.928   9.875  0.0244 -0.1289  0.3468
  174SOPE   H8X19802   3.288   1.917   9.937 -0.6889 -1.5805 -0.9524
  174SOPE   H8Y19803   3.431   1.829   9.880 -1.6094 -1.0022  0.0385
  174SOPE   C3919804   3.321   1.968   9.738 -0.0096  0.1149  0.3286
  174SOPE   H9X19805   3.408   1.998   9.676 -0.0191  1.5720  1.0147
  174SOPE   H9Y19806   3.268   2.065   9.739  0.6557  0.4832 -0.3314
  174SOPE  C31019807   3.248   1.855   9.667 -0.4250 -0.0160 -0.3266
  174SOPE  H10X19808   3.166   1.833   9.739 -1.5360 -1.3806 -1.9623
  174SOPE  H10Y19809   3.307   1.764   9.645  1.5304  1.3102 -0.6380
  174SOPE  C31119810   3.174   1.901   9.541  0.1650 -0.4914 -0.1430
  174SOPE  H11X19811   3.147   2.007   9.562 -1.5587 -0.3520 -2.9140
  174SOPE  H11Y19812   3.089   1.831   9.526  0.6118 -1.4527  1.6118
  174SOPE  C31219813   3.258   1.898   9.415  0.2116 -0.1458  0.0599
  174SOPE  H12X19814   3.295   1.796   9.390 -0.7188 -0.3770 -0.4101
  174SOPE  H12Y19815   3.353   1.955   9.430  0.1909 -0.2364  0.5290
  174SOPE  C31319816   3.171   1.946   9.302  0.2838  0.0005  0.5065
  174SOPE  H13X19817   3.162   2.057   9.305  0.7807  0.0363  0.6645
  174SOPE  H13Y19818   3.070   1.901   9.315  0.9877 -1.3050  1.5081
  174SOPE  C31419819   3.220   1.900   9.165 -0.5483 -0.2201  0.3266
  174SOPE  H14X19820   3.243   1.791   9.164 -2.2770 -0.5960 -1.7258
  174SOPE  H14Y19821   3.313   1.956   9.145 -1.1728  0.6215 -0.2543
  174SOPE  C31519822   3.118   1.923   9.056  0.4020 -0.6083  0.4930
  174SOPE  H15X19823   3.092   2.031   9.049  0.5095 -0.6582 -0.8265
  174SOPE  H15Y19824   3.017   1.877   9.051  0.8915 -1.4747 -1.7374
  174SOPE  C31619825   3.182   1.886   8.915  0.4296 -0.3817  0.0852
  174SOPE  H16X19826   3.198   1.776   8.914  1.7194 -0.1990 -0.3314
  174SOPE  H16Y19827   3.280   1.938   8.910  0.2442 -0.1786 -1.8309
  174SOPE  C31719828   3.097   1.929   8.798  0.4016 -0.1741 -0.7362
  174SOPE  H17X19829   3.072   2.033   8.827 -2.0241 -0.5993 -1.1544
  174SOPE  H17Y19830   2.996   1.884   8.783  0.8506 -1.7172  0.7061
  174SOPE  C31819831   3.163   1.914   8.670 -0.3366  0.2560 -0.1646
  174SOPE  H18X19832   3.266   1.957   8.674 -0.2797  0.0987  0.0444
  174SOPE  H18Y19833   3.099   1.954   8.589 -2.2013  1.8676  2.0532
  174SOPE  H18Z19834   3.179   1.805   8.654  2.2927  0.6849 -0.6913
  175SOPE     N19835   5.029   4.093  10.984  0.0425  0.2451 -0.4888
  175SOPE   HN119836   5.048   4.088  11.086  0.6255 -1.2217 -0.6400
  175SOPE   HN219837   4.940   4.040  10.973  1.6548 -3.0154  1.2409
  175SOPE   HN319838   5.109   4.041  10.942 -0.5459 -1.0762 -0.0056
  175SOPE   C1219839   5.026   4.232  10.916  0.3810  0.3062 -0.3279
  175SOPE  H12A19840   5.105   4.295  10.962  1.9287  0.7684 -3.5373
  175SOPE  H12B19841   4.925   4.276  10.930  0.1783  0.6925 -2.8066
  175SOPE   C1119842   5.061   4.227  10.767 -0.5403  0.1474 -0.1039
  175SOPE  H11A19843   5.161   4.182  10.746  0.2477  2.5548 -1.6740
  175SOPE  H11B19844   5.071   4.329  10.726  1.1051 -0.0493 -0.2143
  175SOPE     P19845   4.971   4.075  10.567  0.0525 -0.0717  0.4636
  175SOPE   O1319846   4.830   4.051  10.526  0.6849  0.5881  0.1260
  175SOPE   O1419847   5.052   3.953  10.583  0.8121  0.1964  0.3287
  175SOPE   O1219848   4.956   4.156  10.703 -0.0768  0.0627 -0.1211
  175SOPE   O1119849   5.047   4.168  10.472  0.1796 -0.5060 -0.2181
  175SOPE    C119850   5.015   4.299  10.435 -0.4251 -0.2497  0.4392
  175SOPE    HA19851   5.084   4.323  10.352 -0.9162  0.5178  0.2458
  175SOPE    HB19852   5.007   4.368  10.522  1.2503 -1.4144  1.5404
  175SOPE    C219853   4.878   4.317  10.364 -0.1939  0.1334 -0.3945
  175SOPE    HS19854   4.807   4.275  10.438  0.6364  0.0426  0.3568
  175SOPE   O2119855   4.873   4.238  10.245  0.0952  0.3323  0.1494
  175SOPE   C2119856   4.757   4.182  10.215 -0.3570 -0.2431  0.4980
  175SOPE   O2219857   4.650   4.198  10.273  0.0809  0.4180 -0.2294
  175SOPE   C2219858   4.787   4.087  10.107  0.1795  0.1855  0.3256
  175SOPE   H2R19859   4.799   3.984  10.147 -0.0897 -1.3078 -3.1981
  175SOPE   H2S19860   4.876   4.114  10.045 -1.6405  1.7787 -1.7012
  175SOPE    C319861   4.845   4.464  10.332  0.6848 -0.3094 -0.3539
  175SOPE    HX19862   4.857   4.521  10.426  0.9252  0.2098 -0.6947
  175SOPE    HY19863   4.738   4.463  10.302  0.2661 -1.7537  1.1395
  175SOPE   O3119864   4.926   4.531  10.229 -0.6613  0.0604  0.2952
  175SOPE   C3119865   4.875   4.545  10.106 -0.6424 -0.4011  0.1783
  175SOPE   O3219866   4.765   4.517  10.069  0.3358  0.3530  0.8283
  175SOPE   C3219867   4.978   4.606  10.015 -0.2781 -0.8834  0.5324
  175SOPE   H2X19868   5.080   4.576  10.045  0.8577  2.1715 -0.1083
  175SOPE   H2Y19869   4.978   4.716  10.030 -0.0124 -0.7711 -0.2586
  175SOPE   C2319870   4.665   4.072  10.004 -0.0663 -0.5538  0.3840
  175SOPE   H3R19871   4.707   4.045   9.904 -1.5419  0.7549 -0.5995
  175SOPE   H3S19872   4.627   4.175   9.990  0.5992 -0.5506 -1.6550
  175SOPE   C2419873   4.556   3.979  10.049 -0.5771  0.3427  0.6804
  175SOPE   H4R19874   4.582   3.871  10.048  2.6285  1.0676 -0.7540
  175SOPE   H4S19875   4.508   4.005  10.146 -1.3309 -0.3911  0.5134
  175SOPE   C2519876   4.432   3.983   9.957 -0.2243 -0.0329 -0.5189
  175SOPE   H5R19877   4.367   3.897   9.985  0.4570 -1.0052 -1.8735
  175SOPE   H5S19878   4.368   4.069   9.986 -0.1421  0.0872 -0.6938
  175SOPE   C2619879   4.461   3.973   9.806  0.3270  0.3813  0.0213
  175SOPE   H6R19880   4.538   4.046   9.772 -0.2944  0.8150 -0.4656
  175SOPE   H6S19881   4.499   3.870   9.791 -3.9153 -1.1247 -1.1986
  175SOPE   C2719882   4.347   4.016   9.720  0.2088  0.0992 -0.0180
  175SOPE   H7R19883   4.293   3.919   9.710  3.6347 -2.1459  2.4749
  175SOPE   H7S19884   4.291   4.096   9.772 -0.9234  1.3792 -3.0758
  175SOPE   C2819885   4.383   4.065   9.584 -0.2860 -0.2752 -0.8320
  175SOPE   H8R19886   4.414   4.171   9.588  0.1089 -0.3913 -0.7344
  175SOPE   H8S19887   4.460   3.997   9.543 -0.1589 -0.1627 -0.7798
  175SOPE   C2919888   4.276   4.079   9.479 -0.3816  0.1881  0.1219
  175SOPE   H9119889   4.170   4.095   9.504 -0.8432  1.8977 -2.7068
  175SOPE  C21019890   4.307   4.071   9.348  0.9361 -0.2162  0.4637
  175SOPE  H10119891   4.224   4.078   9.276  0.1122  4.0926  1.7060
  175SOPE  C21119892   4.431   4.048   9.274 -0.1235  0.1880 -0.8417
  175SOPE  H11R19893   4.440   3.940   9.250  1.4776 -0.2363  1.4544
  175SOPE  H11S19894   4.513   4.083   9.340  1.6744 -0.5866 -2.6469
  175SOPE  C21219895   4.421   4.105   9.130  0.6223 -0.1982 -0.4964
  175SOPE  H12R19896   4.511   4.157   9.090  0.2674  0.1536 -0.8422
  175SOPE  H12S19897   4.349   4.190   9.137  0.8455 -0.2120  2.8067
  175SOPE  C21319898   4.347   4.010   9.035  0.0261 -0.8740  0.7299
  175SOPE  H13R19899   4.303   4.068   8.950  0.2662 -0.3959  0.9288
  175SOPE  H13S19900   4.257   3.971   9.086  0.4501 -2.1111  0.5408
  175SOPE  C21419901   4.431   3.903   8.976 -0.4985 -0.4678 -0.6213
  175SOPE  H14R19902   4.412   3.823   9.051 -1.6721  0.7176  0.3710
  175SOPE  H14S19903   4.540   3.921   8.981 -0.7019  1.3291 -1.8344
  175SOPE  C21519904   4.405   3.869   8.829  0.0479  0.1445 -0.4801
  175SOPE  H15R19905   4.358   3.957   8.779  0.6059  0.1924 -0.9300
  175SOPE  H15S19906   4.341   3.778   8.834  2.5675 -1.5853  0.7932
  175SOPE  C21619907   4.540   3.833   8.765 -0.2447  0.7109 -0.2653
  175SOPE  H16R19908   4.593   3.748   8.813  0.6096  1.8774  0.8985
  175SOPE  H16S19909   4.605   3.922   8.783  1.7603 -0.7580 -0.0776
  175SOPE  C21719910   4.545   3.814   8.607  0.1714  0.2119  0.1325
  175SOPE  H17R19911   4.483   3.896   8.564  0.3401  0.1100 -0.3068
  175SOPE  H17S19912   4.492   3.727   8.564  1.9193 -0.7186 -0.1906
  175SOPE  C21819913   4.687   3.812   8.542  0.1377 -0.1134 -0.3726
  175SOPE  H18R19914   4.679   3.814   8.431 -1.7824  1.5185 -0.2405
  175SOPE  H18S19915   4.739   3.720   8.573 -1.9824 -0.9047  0.9697
  175SOPE  H18T19916   4.750   3.898   8.572 -1.3492  0.3036  1.7382
  175SOPE   C3319917   4.959   4.570   9.868 -0.8362 -0.1234 -0.1950
  175SOPE   H3X19918   4.865   4.595   9.814 -0.5529 -0.5140 -0.8663
  175SOPE   H3Y19919   4.955   4.460   9.858 -1.8930 -0.2824  1.6045
  175SOPE   C3419920   5.079   4.606   9.781 -0.0936 -0.0937  0.6784
  175SOPE   H4X19921   5.178   4.567   9.816  0.6094  0.1086 -1.0238
  175SOPE   H4Y19922   5.087   4.716   9.781 -0.4269 -0.0634 -0.5124
  175SOPE   C3519923   5.054   4.565   9.635  0.2069  0.5371  0.2174
  175SOPE   H5X19924   4.960   4.616   9.605 -0.3938 -0.6124  0.1140
  175SOPE   H5Y19925   5.043   4.454   9.639  3.1371  0.2604  1.5930
  175SOPE   C3619926   5.166   4.589   9.532  0.7798 -0.1419  1.3823
  175SOPE   H6X19927   5.247   4.522   9.568  1.4761  0.0552  0.2075
  175SOPE   H6Y19928   5.208   4.691   9.544 -1.0338  0.9156 -0.8618
  175SOPE   C3719929   5.131   4.544   9.390  0.2575 -0.3274  0.0302
  175SOPE   H7X19930   5.023   4.534   9.364  0.0723  1.9151 -0.2297
  175SOPE   H7Y19931   5.171   4.441   9.381 -0.6281 -0.6249 -0.5947
  175SOPE   C3819932   5.184   4.631   9.274 -0.6269 -0.4470 -0.0483
  175SOPE   H8X19933   5.290   4.653   9.298  0.0269 -0.4223 -2.8365
  175SOPE   H8Y19934   5.128   4.728   9.269  3.9647  2.2534 -2.7639
  175SOPE   C3919935   5.183   4.559   9.135  0.1805 -0.3986  0.0260
  175SOPE   H9X19936   5.078   4.529   9.116 -0.5678  2.3089 -0.3219
  175SOPE   H9Y19937   5.248   4.471   9.155  0.5529 -0.6288 -2.1050
  175SOPE  C31019938   5.233   4.645   9.015  0.0958  0.6422 -0.6929
  175SOPE  H10X19939   5.344   4.638   9.005  0.0877  0.3810 -0.6114
  175SOPE  H10Y19940   5.211   4.744   9.061  2.8625  0.9851 -0.0067
  175SOPE  C31119941   5.145   4.625   8.895 -0.5889 -0.0389 -0.4238
  175SOPE  H11X19942   5.039   4.617   8.926 -0.5397  1.1073  0.0720
  175SOPE  H11Y19943   5.169   4.540   8.828 -1.2625 -0.2828 -0.3619
  175SOPE  C31219944   5.153   4.748   8.805  0.4477 -0.4602 -0.5322
  175SOPE  H12X19945   5.205   4.836   8.848  0.7492 -0.8637 -0.0535
  175SOPE  H12Y19946   5.051   4.783   8.780  0.8065 -0.0095 -1.4068
  175SOPE  C31319947   5.205   4.717   8.665  0.0453  0.2800  0.0460
  175SOPE  H13X19948   5.142   4.634   8.626  1.3661  0.0712 -1.6953
  175SOPE  H13Y19949   5.313   4.694   8.667  0.5743  2.6853  1.8126
  175SOPE  C31419950   5.195   4.838   8.569 -0.8305  0.4175 -0.3132
  175SOPE  H14X19951   5.237   4.930   8.616 -3.6177  2.0035 -0.7705
  175SOPE  H14Y19952   5.088   4.859   8.547 -0.3666  1.2978 -1.8199
  175SOPE  C31519953   5.268   4.807   8.439 -0.2793 -0.4886  0.3451
  175SOPE  H15X19954   5.213   4.725   8.387 -1.7557  0.5611  0.2169
  175SOPE  H15Y19955   5.372   4.777   8.464  0.7523  4.2361  2.2156
  175SOPE  C31619956   5.281   4.922   8.342  0.3092 -0.6788  1.1325
  175SOPE  H16X19957   5.181   4.953   8.306 -0.6525 -2.8734  1.8432
  175SOPE  H16Y19958   5.340   4.885   8.256 -0.5797 -1.5143  0.8748
  175SOPE  C31719959   5.361   5.052   8.388 -0.0530  0.6296  0.1583
  175SOPE  H17X19960   5.462   5.030   8.429 -0.5432  0.9765  1.5879
  175SOPE  H17Y19961   5.309   5.091   8.478  0.9465 -0.2288  1.1373
  175SOPE  C31819962   5.362   5.151   8.274 -0.9387  0.0822 -0.9749
  175SOPE  H18X19963   5.411   5.246   8.306  0.4616 -0.7029 -0.7710
  175SOPE  H18Y19964   5.254   5.169   8.255 -1.2807  2.4931  2.7478
  175SOPE  H18Z19965   5.403   5.103   8.182  0.7987  2.2024 -1.3480
  176SOPE     N19966   5.041   3.591  10.862  0.3452  0.2634  0.3006
  176SOPE   HN119967   5.010   3.494  10.883 -0.5631  0.6481  0.7678
  176SOPE   HN219968   5.145   3.596  10.866  0.2872  1.8322  0.2802
  176SOPE   HN319969   4.999   3.639  10.944  1.9147  2.3066 -0.0330
  176SOPE   C1219970   4.983   3.635  10.729 -0.0553  0.3697  0.1044
  176SOPE  H12A19971   4.972   3.547  10.662 -1.1577  0.9052 -0.4289
  176SOPE  H12B19972   5.057   3.701  10.679  1.4779 -0.2786  1.4678
  176SOPE   C1119973   4.862   3.719  10.750  0.4457 -0.4923 -0.0242
  176SOPE  H11A19974   4.807   3.732  10.654 -0.3803 -1.4676  0.3086
  176SOPE  H11B19975   4.896   3.814  10.796  0.5509  1.0124 -3.0861
  176SOPE     P19976   4.628   3.725  10.862  0.4215  0.0675 -0.4188
  176SOPE   O1319977   4.629   3.867  10.835 -0.5334  0.0211 -0.0335
  176SOPE   O1419978   4.572   3.688  10.992 -0.0449 -0.3398  0.5811
  176SOPE   O1219979   4.771   3.661  10.844  0.1684 -0.6167  0.2604
  176SOPE   O1119980   4.535   3.649  10.764  0.6688  0.0147 -0.1518
  176SOPE    C119981   4.527   3.509  10.757 -0.0406  0.5759  0.1941
  176SOPE    HA19982   4.472   3.467  10.843  2.0741 -1.9653  0.3825
  176SOPE    HB19983   4.626   3.458  10.760  0.4807  1.5348 -0.2609
  176SOPE    C219984   4.464   3.459  10.616 -0.2282  0.7020  0.1907
  176SOPE    HS19985   4.478   3.350  10.605 -0.4537  0.4498  2.2383
  176SOPE   O2119986   4.509   3.533  10.501 -0.1901 -0.9958 -0.1540
  176SOPE   C2119987   4.611   3.475  10.436  0.0173 -0.9202  0.1233
  176SOPE   O2219988   4.669   3.372  10.472 -0.3421  0.2939  0.1700
  176SOPE   C2219989   4.656   3.574  10.325 -0.4329  0.0679 -0.1318
  176SOPE   H2R19990   4.764   3.579  10.353 -0.0368 -2.7193 -0.9193
  176SOPE   H2S19991   4.607   3.673  10.332  0.3528  0.5350 -1.0623
  176SOPE    C319992   4.311   3.477  10.615  0.4596  0.3885 -0.2043
  176SOPE    HX19993   4.282   3.583  10.600 -1.0394  0.3586  2.1716
  176SOPE    HY19994   4.280   3.465  10.722  0.0161  3.0072 -0.0203
  176SOPE   O3119995   4.250   3.385  10.528  0.4839  0.3832 -0.2106
  176SOPE   C3119996   4.170   3.435  10.435  0.2871  0.1465  0.2991
  176SOPE   O3219997   4.164   3.551  10.404  0.2866 -0.7201 -0.4097
  176SOPE   C3219998   4.090   3.328  10.364  0.1864  0.5717 -0.5517
  176SOPE   H2X19999   4.051   3.273  10.451  0.8502 -0.1164 -0.6871
  176SOPE   H2Y20000   4.161   3.256  10.317 -0.0745  0.0712 -0.1786
  176SOPE   C2320001   4.633   3.516  10.187 -0.1270 -0.1344  0.0251
  176SOPE   H3R20002   4.671   3.412  10.175  0.6357 -0.0074  1.2812
  176SOPE   H3S20003   4.684   3.576  10.108 -0.0211 -0.6195 -0.2786
  176SOPE   C2420004   4.480   3.519  10.154 -0.4845  0.7459 -0.1401
  176SOPE   H4R20005   4.419   3.471  10.234 -0.8886  1.7623  0.1629
  176SOPE   H4S20006   4.440   3.621  10.139  1.5670  1.6743  0.5221
  176SOPE   C2520007   4.449   3.442  10.024  0.3970 -0.0971 -0.4078
  176SOPE   H5R20008   4.512   3.352  10.007  1.4915  0.1819  1.9738
  176SOPE   H5S20009   4.345   3.409  10.004  1.0765 -3.4693  1.2603
  176SOPE   C2620010   4.474   3.537   9.895 -0.0546 -0.3105 -0.5884
  176SOPE   H6R20011   4.402   3.621   9.906 -0.4501 -0.9431  2.0195
  176SOPE   H6S20012   4.578   3.577   9.894  0.7109 -2.2109 -0.0016
  176SOPE   C2720013   4.443   3.461   9.762 -0.0300  0.1441  0.2974
  176SOPE   H7R20014   4.484   3.358   9.770  1.4782  0.4553 -2.5760
  176SOPE   H7S20015   4.332   3.451   9.766  0.0269 -0.6114  0.1944
  176SOPE   C2820016   4.494   3.520   9.627  0.0037  0.5093  0.0629
  176SOPE   H8R20017   4.602   3.547   9.627  0.0871  0.1825 -0.4093
  176SOPE   H8S20018   4.491   3.438   9.552  2.7528 -0.3058  0.7728
  176SOPE   C2920019   4.414   3.640   9.590 -0.6598 -0.1038 -0.2409
  176SOPE   H9120020   4.429   3.725   9.659 -0.7047  2.5847 -3.4134
  176SOPE  C21020021   4.315   3.643   9.499 -0.4692  0.1505  0.9266
  176SOPE  H10120022   4.266   3.741   9.486  0.9881  0.9020  0.9534
  176SOPE  C21120023   4.277   3.537   9.395  0.5107  0.2083 -0.1419
  176SOPE  H11R20024   4.169   3.510   9.393  0.8167 -0.9759 -1.3729
  176SOPE  H11S20025   4.325   3.440   9.417 -0.0394  0.2284  1.1620
  176SOPE  C21220026   4.305   3.574   9.249  0.1675 -0.2686  0.2781
  176SOPE  H12R20027   4.257   3.673   9.231 -0.2856 -0.3274  1.1117
  176SOPE  H12S20028   4.254   3.498   9.186 -1.2200  0.9382 -0.0800
  176SOPE  C21320029   4.453   3.596   9.215 -0.3037 -0.1097  0.5830
  176SOPE  H13R20030   4.493   3.674   9.284 -2.2130 -1.2421  3.0434
  176SOPE  H13S20031   4.465   3.631   9.110 -1.2161 -0.2772  0.4208
  176SOPE  C21420032   4.535   3.468   9.229  0.8026 -0.1679 -0.5251
  176SOPE  H14R20033   4.494   3.383   9.171 -0.9099 -1.1409  2.0489
  176SOPE  H14S20034   4.541   3.454   9.339 -0.5558  2.5693 -0.0605
  176SOPE  C21520035   4.681   3.482   9.191  0.2029  0.1565  0.0579
  176SOPE  H15R20036   4.693   3.563   9.115 -1.3335 -1.4518 -1.9589
  176SOPE  H15S20037   4.716   3.389   9.142  3.4489  1.1068  0.4886
  176SOPE  C21620038   4.774   3.508   9.310 -0.0756  0.1348 -0.3296
  176SOPE  H16R20039   4.741   3.606   9.351  1.1598  0.5627 -0.3388
  176SOPE  H16S20040   4.876   3.525   9.270  0.3508  1.7830  1.3821
  176SOPE  C21720041   4.794   3.399   9.411 -0.5978 -0.2009 -0.0884
  176SOPE  H17R20042   4.815   3.303   9.358 -0.5551 -0.5887  0.6180
  176SOPE  H17S20043   4.697   3.373   9.460 -0.5131 -0.5064 -0.0819
  176SOPE  C21820044   4.909   3.416   9.501  0.6213  0.4147 -0.1884
  176SOPE  H18R20045   4.911   3.509   9.563 -0.2356  0.4868 -0.2676
  176SOPE  H18S20046   5.009   3.393   9.457  0.1656 -1.7023 -0.1644
  176SOPE  H18T20047   4.918   3.351   9.591  0.5848  0.2390 -0.3120
  176SOPE   C3320048   3.972   3.386  10.282  0.0045  0.2657 -0.7305
  176SOPE   H3X20049   3.999   3.435  10.186  0.8500  0.8904 -0.1749
  176SOPE   H3Y20050   3.916   3.460  10.343  1.0190  1.1993 -0.9216
  176SOPE   C3420051   3.869   3.277  10.254  0.5282 -0.1550  0.2919
  176SOPE   H4X20052   3.846   3.214  10.343 -0.1794 -0.5428 -0.1597
  176SOPE   H4Y20053   3.913   3.196  10.191  0.4339  1.6856 -2.2087
  176SOPE   C3520054   3.744   3.326  10.182 -0.5750 -0.5865 -0.7618
  176SOPE   H5X20055   3.780   3.379  10.092 -0.4982 -0.1488 -0.4771
  176SOPE   H5Y20056   3.691   3.402  10.243  0.3497 -2.4818  2.5236
  176SOPE   C3620057   3.642   3.216  10.138  0.3204 -0.4853  0.2919
  176SOPE   H6X20058   3.570   3.188  10.218 -1.8920 -2.4303 -2.3231
  176SOPE   H6Y20059   3.697   3.121  10.121  1.3014 -0.2046  1.7555
  176SOPE   C3720060   3.553   3.253  10.015  0.4359 -0.3731 -0.2708
  176SOPE   H7X20061   3.484   3.336  10.042 -0.6804 -2.3491  3.2514
  176SOPE   H7Y20062   3.483   3.167  10.003 -0.8407  0.6215 -0.0799
  176SOPE   C3820063   3.620   3.282   9.881 -0.1213  0.2168 -0.2614
  176SOPE   H8X20064   3.693   3.204   9.852 -0.1767 -0.7181  2.0333
  176SOPE   H8Y20065   3.674   3.376   9.907 -0.4047  0.8081 -1.7168
  176SOPE   C3920066   3.517   3.312   9.770 -0.1322 -0.1557  0.3777
  176SOPE   H9X20067   3.450   3.395   9.803  0.6756  0.9411 -0.6523
  176SOPE   H9Y20068   3.463   3.219   9.743 -0.5924  0.8658 -2.4184
  176SOPE  C31020069   3.579   3.366   9.641  0.8167  0.0342 -0.6535
  176SOPE  H10X20070   3.652   3.290   9.607 -3.2835 -3.1773 -2.8442
  176SOPE  H10Y20071   3.621   3.466   9.667  1.4573 -0.4298  0.1137
  176SOPE  C31120072   3.466   3.388   9.531  0.1478  0.1263  0.5968
  176SOPE  H11X20073   3.376   3.448   9.555 -0.2851 -1.3615  2.8141
  176SOPE  H11Y20074   3.431   3.286   9.506 -0.0885  0.4375 -0.3744
  176SOPE  C31220075   3.531   3.444   9.399  0.3157 -0.1838  0.1234
  176SOPE  H12X20076   3.619   3.381   9.373  0.5821 -0.6394  2.0625
  176SOPE  H12Y20077   3.561   3.550   9.412 -0.1763 -0.1933  1.4390
  176SOPE  C31320078   3.428   3.442   9.290 -0.3838  0.7316 -0.0154
  176SOPE  H13X20079   3.358   3.528   9.290 -1.0363  0.2031 -0.2686
  176SOPE  H13Y20080   3.375   3.345   9.303  2.0058 -0.7314 -0.7486
  176SOPE  C31420081   3.490   3.442   9.152  0.0428 -0.1355 -1.0663
  176SOPE  H14X20082   3.592   3.400   9.151  0.7034  1.3875 -0.5282
  176SOPE  H14Y20083   3.513   3.550   9.139 -2.3056  0.3609 -1.4579
  176SOPE  C31520084   3.397   3.407   9.037  0.7188  0.1867 -0.0767
  176SOPE  H15X20085   3.328   3.488   9.004  1.8068  0.5312 -1.5347
  176SOPE  H15Y20086   3.340   3.315   9.063 -1.0991  1.4485  0.4974
  176SOPE  C31620087   3.484   3.369   8.916 -0.2698  0.6316 -0.0411
  176SOPE  H16X20088   3.568   3.303   8.945  0.2201  0.8369 -0.9631
  176SOPE  H16Y20089   3.540   3.463   8.896  0.9854 -0.1186 -0.0837
  176SOPE  C31720090   3.421   3.305   8.796 -0.5603 -0.4675 -0.2231
  176SOPE  H17X20091   3.338   3.370   8.761  1.1316  3.0978  2.2107
  176SOPE  H17Y20092   3.378   3.208   8.830  1.2634 -1.1617  0.1542
  176SOPE  C31820093   3.528   3.284   8.687  0.5627  0.0453  0.4753
  176SOPE  H18X20094   3.618   3.239   8.735  1.1463  0.6008 -0.0840
  176SOPE  H18Y20095   3.559   3.385   8.651 -1.5109  0.9114  1.0432
  176SOPE  H18Z20096   3.487   3.218   8.608 -1.7747 -0.2029  1.8356
  177SOPE     N20097   3.647   1.984  11.466  0.3101 -0.3782  0.0361
  177SOPE   HN120098   3.617   1.953  11.560 -0.4955  0.1438 -0.0507
  177SOPE   HN220099   3.743   1.948  11.445  0.3857  0.9362 -2.0342
  177SOPE   HN320100   3.664   2.087  11.469 -0.5581 -0.2237 -0.2482
  177SOPE   C1220101   3.559   1.930  11.356  0.4225  0.0800 -0.2504
  177SOPE  H12A20102   3.463   1.986  11.360  0.5655  0.4153 -1.4374
  177SOPE  H12B20103   3.541   1.822  11.379  3.9883 -0.0661  2.1651
  177SOPE   C1120104   3.614   1.957  11.220 -0.0246  0.4994 -0.2489
  177SOPE  H11A20105   3.641   2.061  11.193  0.2798  0.5714  0.3161
  177SOPE  H11B20106   3.532   1.939  11.147  0.2390 -0.0705 -0.4132
  177SOPE     P20107   3.707   1.726  11.149  0.0611 -0.0634 -0.4583
  177SOPE   O1320108   3.568   1.695  11.135  0.2624  0.4554 -0.1998
  177SOPE   O1420109   3.783   1.656  11.257  0.1425  0.1854  0.2224
  177SOPE   O1220110   3.720   1.875  11.182  0.1143  0.9467  0.1509
  177SOPE   O1120111   3.792   1.720  11.012  0.3956 -0.0780 -0.6498
  177SOPE    C120112   3.757   1.798  10.902 -0.1684 -0.0549  0.0602
  177SOPE    HA20113   3.813   1.894  10.902 -1.1890  0.5551  0.8100
  177SOPE    HB20114   3.653   1.836  10.908  0.2356  0.9285  0.9323
  177SOPE    C220115   3.762   1.706  10.769  0.3802 -0.0097 -0.3220
  177SOPE    HS20116   3.862   1.658  10.770  0.6086  0.4456 -1.1632
  177SOPE   O2120117   3.745   1.793  10.658 -0.3122 -0.1186 -0.5373
  177SOPE   C2120118   3.830   1.780  10.564 -0.3829  0.0442 -0.6093
  177SOPE   O2220119   3.918   1.695  10.555 -0.1627  0.0264 -0.2348
  177SOPE   C2220120   3.820   1.901  10.468  0.1031 -0.3088  0.6587
  177SOPE   H2R20121   3.862   1.997  10.505  3.2644 -0.1271 -3.1610
  177SOPE   H2S20122   3.713   1.917  10.441  0.5365  2.3728  0.3570
  177SOPE    C320123   3.652   1.594  10.775 -0.4932 -0.1765  0.2006
  177SOPE    HX20124   3.557   1.646  10.800  1.1836  2.3619  1.5079
  177SOPE    HY20125   3.674   1.534  10.866  1.0022 -2.4176 -1.5902
  177SOPE   O3120126   3.653   1.499  10.658  0.5950  0.3908  0.3111
  177SOPE   C3120127   3.750   1.410  10.657 -0.5320  0.3885 -0.2305
  177SOPE   O3220128   3.833   1.391  10.745 -0.3399  0.0958 -0.0977
  177SOPE   C3220129   3.745   1.332  10.533 -0.1519 -0.1830 -0.0613
  177SOPE   H2X20130   3.642   1.320  10.493 -0.4178 -3.0766  1.3420
  177SOPE   H2Y20131   3.769   1.224  10.545 -3.5735 -1.4238 -3.3863
  177SOPE   C2320132   3.915   1.878  10.348  0.3654  0.2973 -0.4381
  177SOPE   H3R20133   4.018   1.850  10.379 -0.0619 -1.2731 -0.3828
  177SOPE   H3S20134   3.924   1.977  10.299 -2.0839  0.6128 -0.3399
  177SOPE   C2420135   3.852   1.790  10.240 -0.1540 -0.2348  0.3790
  177SOPE   H4R20136   3.860   1.685  10.276 -2.1569  0.2602  2.3306
  177SOPE   H4S20137   3.745   1.813  10.221 -0.0364 -2.0733 -2.8984
  177SOPE   C2520138   3.918   1.815  10.101  0.3491  0.5155  0.3211
  177SOPE   H5R20139   3.887   1.919  10.074  1.7098  1.2414  1.4672
  177SOPE   H5S20140   4.029   1.806  10.108  0.2122  0.1982  2.1850
  177SOPE   C2620141   3.872   1.716   9.993 -0.5208 -0.6345 -0.1313
  177SOPE   H6R20142   3.922   1.616   9.996 -2.7092 -1.7526  4.4663
  177SOPE   H6S20143   3.765   1.694  10.011 -0.4876  0.4056  1.4039
  177SOPE   C2720144   3.902   1.774   9.851  0.1217  0.9448  0.8739
  177SOPE   H7R20145   3.840   1.865   9.834 -2.7439 -1.0939 -0.0037
  177SOPE   H7S20146   4.009   1.798   9.839  0.2271 -0.0181 -0.2110
  177SOPE   C2820147   3.850   1.677   9.742  0.1146  0.5139 -0.8261
  177SOPE   H8R20148   3.903   1.705   9.649 -1.7465 -0.7202 -2.2958
  177SOPE   H8S20149   3.890   1.579   9.775 -0.9855 -0.2951 -1.8822
  177SOPE   C2920150   3.698   1.676   9.724  1.0921 -0.6109  0.1766
  177SOPE   H9120151   3.639   1.645   9.811  0.1930 -0.0195 -0.2115
  177SOPE  C21020152   3.631   1.693   9.603 -0.2680 -0.4207  0.3467
  177SOPE  H10120153   3.522   1.688   9.614 -0.3462  1.4432  0.6494
  177SOPE  C21120154   3.676   1.724   9.468  0.3837  0.0350  0.1561
  177SOPE  H11R20155   3.778   1.768   9.468 -0.3252  1.7469  2.3307
  177SOPE  H11S20156   3.614   1.807   9.428 -1.2408 -0.8544  0.7763
  177SOPE  C21220157   3.670   1.611   9.362  0.4258  0.2441  0.6068
  177SOPE  H12R20158   3.702   1.653   9.265  1.2836  1.5542  1.4336
  177SOPE  H12S20159   3.565   1.576   9.351  0.8857 -1.1531  0.4716
  177SOPE  C21320160   3.755   1.483   9.393 -0.1377  0.1554 -0.0213
  177SOPE  H13R20161   3.731   1.445   9.495  0.1279  1.1570  0.4199
  177SOPE  H13S20162   3.852   1.534   9.411 -0.6351  1.2741 -0.4255
  177SOPE  C21420163   3.770   1.379   9.281 -0.1302 -0.3023 -0.7033
  177SOPE  H14R20164   3.793   1.431   9.185 -1.1274  0.9395 -0.2756
  177SOPE  H14S20165   3.673   1.325   9.277 -0.7882  0.7419  0.9383
  177SOPE  C21520166   3.895   1.292   9.296  0.2553 -0.2341 -0.1989
  177SOPE  H15R20167   3.905   1.251   9.399 -1.3210 -0.4972 -0.1398
  177SOPE  H15S20168   3.981   1.358   9.273 -0.5284  0.3460 -1.4530
  177SOPE  C21620169   3.895   1.176   9.205 -0.5491 -0.1542  0.0755
  177SOPE  H16R20170   3.832   1.095   9.247 -1.2179  0.8041  0.9372
  177SOPE  H16S20171   3.995   1.130   9.187 -0.8207 -0.2281 -1.3274
  177SOPE  C21720172   3.861   1.206   9.055 -0.1736  0.0289 -0.0941
  177SOPE  H17R20173   3.949   1.262   9.017  0.6100 -0.5937  0.7614
  177SOPE  H17S20174   3.781   1.281   9.039 -0.3145 -0.2774 -0.8513
  177SOPE  C21820175   3.806   1.088   8.967 -0.0080 -0.2111 -1.1798
  177SOPE  H18R20176   3.884   1.014   8.940  1.0239  0.7120 -0.7823
  177SOPE  H18S20177   3.748   1.125   8.880 -0.1485  0.2357 -0.9005
  177SOPE  H18T20178   3.729   1.031   9.023  0.4835  0.8225  0.6119
  177SOPE   C3320179   3.825   1.396  10.418  0.2059  0.0958 -0.0605
  177SOPE   H3X20180   3.932   1.401  10.448  0.1918 -0.6881  0.1261
  177SOPE   H3Y20181   3.785   1.497  10.393  1.3143 -0.0110 -2.4085
  177SOPE   C3420182   3.799   1.314  10.289 -0.2595  0.4652  1.0779
  177SOPE   H4X20183   3.692   1.306  10.261 -0.3006  0.7559  1.1494
  177SOPE   H4Y20184   3.843   1.213  10.298 -0.5490 -0.1906 -3.4594
  177SOPE   C3520185   3.878   1.359  10.167 -0.2083 -0.6596  0.7451
  177SOPE   H5X20186   3.987   1.345  10.183  0.5150 -1.4787 -4.2403
  177SOPE   H5Y20187   3.861   1.464  10.138 -0.0469 -0.8326  0.0178
  177SOPE   C3620188   3.842   1.268  10.045  0.2516 -0.1092  0.2257
  177SOPE   H6X20189   3.732   1.258  10.029 -0.1377  1.6444  1.6767
  177SOPE   H6Y20190   3.885   1.169  10.072 -1.4555 -1.0165 -0.2672
  177SOPE   C3720191   3.899   1.322   9.914  0.1635  0.1326 -0.1226
  177SOPE   H7X20192   4.007   1.345   9.922 -0.0882  0.9913  0.9688
  177SOPE   H7Y20193   3.836   1.407   9.881 -0.7290  0.2156  1.7056
  177SOPE   C3820194   3.887   1.219   9.786  0.3357  0.5519  0.1257
  177SOPE   H8X20195   3.986   1.172   9.767 -0.3308 -0.4701 -0.8381
  177SOPE   H8Y20196   3.881   1.287   9.698 -1.9212  2.8051  1.9541
  177SOPE   C3920197   3.759   1.137   9.790 -0.3797  0.5188  0.5582
  177SOPE   H9X20198   3.673   1.203   9.812 -0.2461  1.5459 -1.8462
  177SOPE   H9Y20199   3.783   1.052   9.857  2.2471 -0.0595 -1.0205
  177SOPE  C31020200   3.716   1.080   9.648  0.3993 -0.1625  0.1646
  177SOPE  H10X20201   3.792   1.032   9.583 -0.6893 -0.7506 -0.7045
  177SOPE  H10Y20202   3.679   1.162   9.582  0.7005 -1.1796 -1.2912
  177SOPE  C31120203   3.599   0.987   9.657 -0.2370 -0.1285 -0.4328
  177SOPE  H11X20204   3.528   1.018   9.736  0.6510 -0.8176  0.6524
  177SOPE  H11Y20205   3.634   0.891   9.701  3.3286  0.4247 -1.9465
  177SOPE  C31220206   3.538   0.965   9.519  0.2701  0.1098 -0.8736
  177SOPE  H12X20207   3.482   1.058   9.492  1.8221  1.2176 -0.3474
  177SOPE  H12Y20208   3.455   0.892   9.527  1.6158 -1.1311  3.1506
  177SOPE  C31320209   3.626   0.903   9.415 -0.4937 -1.2018 -0.2668
  177SOPE  H13X20210   3.645   0.800   9.453  1.2845 -0.9172 -0.3686
  177SOPE  H13Y20211   3.719   0.963   9.406 -0.8127 -1.0848 -2.9441
  177SOPE  C31420212   3.561   0.907   9.273  0.0757 -0.3696 -0.4684
  177SOPE  H14X20213   3.638   0.879   9.198  0.3495 -1.8544  0.3300
  177SOPE  H14Y20214   3.548   1.015   9.253 -2.1817 -0.6254 -0.5228
  177SOPE  C31520215   3.424   0.826   9.264 -0.6480  0.2089  0.2159
  177SOPE  H15X20216   3.346   0.880   9.320  0.4649  0.0153  2.0080
  177SOPE  H15Y20217   3.441   0.738   9.330 -0.0531 -1.1293 -1.6909
  177SOPE  C31620218   3.384   0.784   9.119  0.1139 -0.4437 -0.4529
  177SOPE  H16X20219   3.312   0.700   9.126 -1.5495  1.0312  0.4862
  177SOPE  H16Y20220   3.481   0.752   9.074  0.9753  0.2224  0.8891
  177SOPE  C31720221   3.325   0.895   9.035 -0.0446 -0.9829 -0.2183
  177SOPE  H17X20222   3.397   0.980   9.029 -2.9301  1.5383 -0.0064
  177SOPE  H17Y20223   3.236   0.934   9.088  0.5735 -1.4100  1.1779
  177SOPE  C31820224   3.270   0.848   8.899 -0.1559  0.5686 -0.3512
  177SOPE  H18X20225   3.345   0.796   8.836  0.4541  0.0849  0.7633
  177SOPE  H18Y20226   3.215   0.921   8.836 -1.6714  0.4253  0.7765
  177SOPE  H18Z20227   3.189   0.774   8.922  1.6394 -0.8398  1.6109
  178SOPE     N20228   1.317   0.885  10.636 -0.1113 -0.3028 -0.1303
  178SOPE   HN120229   1.325   0.987  10.654  2.4230  0.3059 -4.1541
  178SOPE   HN220230   1.325   0.876  10.533  0.2813 -2.6922  0.0819
  178SOPE   HN320231   1.222   0.851  10.662  0.1829 -0.0189  1.3952
  178SOPE   C1220232   1.427   0.820  10.721  0.5575  0.0752  0.4886
  178SOPE  H12A20233   1.384   0.812  10.823 -0.0883 -0.0949  0.2061
  178SOPE  H12B20234   1.513   0.890  10.731  0.4019  0.2434  0.6492
  178SOPE   C1120235   1.458   0.681  10.671  0.8883  0.4309  0.3792
  178SOPE  H11A20236   1.536   0.642  10.740  1.5442 -0.4999 -0.8632
  178SOPE  H11B20237   1.505   0.695  10.571  1.3356  1.6745  0.7612
  178SOPE     P20238   1.333   0.455  10.724  0.2748  0.0300 -0.5031
  178SOPE   O1320239   1.194   0.411  10.721  0.0253 -0.6380  0.0677
  178SOPE   O1420240   1.410   0.440  10.850  0.1652  0.3330 -0.0200
  178SOPE   O1220241   1.351   0.598  10.662  0.0099 -0.1329 -0.6141
  178SOPE   O1120242   1.412   0.363  10.622 -0.5055  0.4597  0.0303
  178SOPE    C120243   1.475   0.395  10.497  0.2499 -0.4890  0.2717
  178SOPE    HA20244   1.554   0.471  10.514  1.0419 -1.6247  1.8270
  178SOPE    HB20245   1.392   0.438  10.438  0.8199 -0.9274 -0.8564
  178SOPE    C220246   1.521   0.263  10.423 -0.3572 -0.3673 -0.4998
  178SOPE    HS20247   1.545   0.284  10.317 -0.0919  0.3635 -0.2989
  178SOPE   O2120248   1.424   0.156  10.441  0.3338  0.1936 -0.0965
  178SOPE   C2120249   1.317   0.168  10.364  0.8323 -0.3426  0.1428
  178SOPE   O2220250   1.298   0.263  10.289 -0.5815 -0.0236  0.3032
  178SOPE   C2220251   1.236   0.037  10.380 -0.2997 -0.1869  0.1948
  178SOPE   H2R20252   1.173   0.046  10.471 -0.6401  0.2922 -0.0849
  178SOPE   H2S20253   1.312  -0.040  10.404  1.7496  1.3407 -1.1719
  178SOPE    C320254   1.650   0.207  10.478  0.4883  0.0740 -0.1217
  178SOPE    HX20255   1.622   0.163  10.576  1.0985  1.1400  0.5334
  178SOPE    HY20256   1.727   0.281  10.505  0.9634 -0.3757 -0.2303
  178SOPE   O3120257   1.702   0.101  10.396 -0.0422  0.1720 -0.0099
  178SOPE   C3120258   1.819   0.038  10.431  0.8052  0.4035 -0.8026
  178SOPE   O3220259   1.893   0.066  10.524  0.2831  0.4849 -0.2522
  178SOPE   C3220260   1.844  -0.067  10.324 -0.0647  0.0557 -0.7471
  178SOPE   H2X20261   1.787  -0.157  10.356 -2.1955  1.6663  0.1236
  178SOPE   H2Y20262   1.949  -0.103  10.322  0.2967  1.0512 -0.2355
  178SOPE   C2320263   1.162   0.014  10.256  0.1457 -1.6468 -0.5908
  178SOPE   H3R20264   1.098   0.099  10.223  1.2602 -1.0119 -1.1532
  178SOPE   H3S20265   1.085  -0.062  10.282 -2.2462 -0.1108 -2.9412
  178SOPE   C2420266   1.248  -0.051  10.152 -0.1562  0.7639  0.0914
  178SOPE   H4R20267   1.331   0.021  10.141  0.8454 -0.2450  0.8955
  178SOPE   H4S20268   1.290  -0.150  10.181 -1.8642 -0.2292 -0.7432
  178SOPE   C2520269   1.183  -0.055  10.017 -0.0157  0.4889  0.0216
  178SOPE   H5R20270   1.083  -0.097  10.041  0.6330 -0.6983  0.7042
  178SOPE   H5S20271   1.183   0.046   9.971 -0.0668 -0.1493 -1.3781
  178SOPE   C2620272   1.241  -0.155   9.919  0.0310  0.5615  0.2721
  178SOPE   H6R20273   1.349  -0.140   9.900  0.2193 -2.2279 -1.1194
  178SOPE   H6S20274   1.226  -0.254   9.968  0.2825  0.2648 -0.2445
  178SOPE   C2720275   1.164  -0.163   9.784  0.2112  0.2184  0.0161
  178SOPE   H7R20276   1.057  -0.186   9.805 -0.0068  0.0954 -1.2074
  178SOPE   H7S20277   1.175  -0.063   9.739  0.9097 -0.2067 -0.7642
  178SOPE   C2820278   1.218  -0.258   9.678  0.0392  0.0516  0.4422
  178SOPE   H8R20279   1.321  -0.219   9.664  0.1290 -0.0620  0.7934
  178SOPE   H8S20280   1.226  -0.359   9.723  1.6753  1.0527  2.4582
  178SOPE   C2920281   1.145  -0.270   9.551 -0.2121  0.7451 -0.4607
  178SOPE   H9120282   1.046  -0.318   9.561  0.0738  0.6050  1.8424
  178SOPE  C21020283   1.178  -0.216   9.428 -0.1043 -0.3513 -0.6550
  178SOPE  H10120284   1.109  -0.224   9.343  0.8663  0.3078 -1.5211
  178SOPE  C21120285   1.305  -0.146   9.380 -0.4082 -0.2385 -0.2400
  178SOPE  H11R20286   1.388  -0.170   9.450 -1.3605  0.6032  1.2261
  178SOPE  H11S20287   1.293  -0.036   9.369  1.7181 -0.2105 -2.4639
  178SOPE  C21220288   1.344  -0.194   9.239 -0.4848  1.0060 -0.0544
  178SOPE  H12R20289   1.329  -0.304   9.227  0.8344  0.9692 -1.5071
  178SOPE  H12S20290   1.455  -0.185   9.241 -0.4918  0.9271  0.9520
  178SOPE  C21320291   1.273  -0.135   9.119 -0.7151 -0.4743 -0.4136
  178SOPE  H13R20292   1.277  -0.025   9.130 -2.1801 -0.5854  1.5580
  178SOPE  H13S20293   1.166  -0.161   9.130 -0.6580 -0.8645 -0.7527
  178SOPE  C21420294   1.338  -0.186   8.987  0.1830 -0.0552  0.3222
  178SOPE  H14R20295   1.337  -0.294   8.961  2.8529  0.0320 -0.2656
  178SOPE  H14S20296   1.446  -0.162   8.998  0.0179  0.5789  0.5906
  178SOPE  C21520297   1.277  -0.112   8.869  0.2700 -0.2887 -0.5258
  178SOPE  H15R20298   1.246  -0.011   8.905 -0.3775 -1.3048  1.8647
  178SOPE  H15S20299   1.181  -0.158   8.838  0.2658 -0.1135 -0.7733
  178SOPE  C21620300   1.367  -0.112   8.742  1.0897  0.0566  0.1988
  178SOPE  H16R20301   1.384  -0.217   8.709 -1.5098  0.6737 -3.4509
  178SOPE  H16S20302   1.465  -0.066   8.768  0.4582  0.6918  1.4865
  178SOPE  C21720303   1.312  -0.037   8.614 -0.5990  0.0900 -0.3299
  178SOPE  H17R20304   1.257   0.056   8.641  0.2552  0.5346 -0.1128
  178SOPE  H17S20305   1.236  -0.102   8.567 -0.5061 -1.2673  1.3496
  178SOPE  C21820306   1.415  -0.002   8.499 -0.1189 -0.2363 -0.5968
  178SOPE  H18R20307   1.515   0.003   8.547 -1.0643 -1.3219  1.5756
  178SOPE  H18S20308   1.385   0.100   8.467 -1.2568 -1.6548 -4.2932
  178SOPE  H18T20309   1.406  -0.083   8.423  2.1898 -3.1824  2.1261
  178SOPE   C3320310   1.790  -0.017  10.185  0.4023  0.0343 -0.2563
  178SOPE   H3X20311   1.854   0.069  10.157 -0.0618  0.3489 -0.3466
  178SOPE   H3Y20312   1.683   0.013  10.183  0.7559  1.3977  0.5901
  178SOPE   C3420313   1.804  -0.127  10.076 -0.6948 -0.1946 -0.3341
  178SOPE   H4X20314   1.779  -0.225  10.123  3.1378 -1.4030 -0.6196
  178SOPE   H4Y20315   1.912  -0.118  10.052 -0.8156  2.1106 -0.1053
  178SOPE   C3520316   1.720  -0.114   9.954 -0.4542 -0.2168  0.0148
  178SOPE   H5X20317   1.721  -0.008   9.921  2.9749  0.0708  0.8581
  178SOPE   H5Y20318   1.615  -0.128   9.987 -0.6056 -2.3387 -1.2855
  178SOPE   C3620319   1.750  -0.204   9.841 -0.1454  0.0526  0.1905
  178SOPE   H6X20320   1.740  -0.312   9.864  0.2075  0.1680  0.9008
  178SOPE   H6Y20321   1.858  -0.186   9.818 -0.4384 -0.8748 -2.0663
  178SOPE   C3720322   1.670  -0.175   9.709 -0.0331 -0.9856  0.0384
  178SOPE   H7X20323   1.718  -0.082   9.673  2.0443 -2.2794 -0.5882
  178SOPE   H7Y20324   1.563  -0.153   9.731 -0.0308  0.4922 -1.3090
  178SOPE   C3820325   1.704  -0.277   9.598 -0.1582 -0.5965  0.0352
  178SOPE   H8X20326   1.630  -0.360   9.594  0.3141 -0.9803 -1.1860
  178SOPE   H8Y20327   1.802  -0.320   9.627 -0.2426  0.2551  1.6110
  178SOPE   C3920328   1.716  -0.201   9.461 -0.0320 -0.2941 -0.2179
  178SOPE   H9X20329   1.788  -0.116   9.471  0.4114 -0.7551  0.5989
  178SOPE   H9Y20330   1.619  -0.155   9.431  0.2093  0.7373  0.5222
  178SOPE  C31020331   1.752  -0.299   9.344 -0.4056  0.4753 -0.0549
  178SOPE  H10X20332   1.665  -0.362   9.319 -0.8480  0.7756  0.7250
  178SOPE  H10Y20333   1.843  -0.351   9.382 -0.0076  1.7617  0.7840
  178SOPE  C31120334   1.776  -0.236   9.207 -0.6895 -0.7086 -0.4067
  178SOPE  H11X20335   1.860  -0.163   9.213 -1.1403 -0.1442 -0.9618
  178SOPE  H11Y20336   1.682  -0.185   9.177  0.6636  2.2839  0.2338
  178SOPE  C31220337   1.808  -0.344   9.111  0.2308 -0.3795  0.0499
  178SOPE  H12X20338   1.770  -0.444   9.141  0.7022 -0.2540  1.0842
  178SOPE  H12Y20339   1.918  -0.348   9.122  0.0005 -1.2052  2.2954
  178SOPE  C31320340   1.777  -0.318   8.968  0.0492  0.1367  0.5011
  178SOPE  H13X20341   1.666  -0.317   8.967 -0.0008 -2.4117 -0.3454
  178SOPE  H13Y20342   1.803  -0.409   8.910  3.7013  0.4587  1.5045
  178SOPE  C31420343   1.838  -0.184   8.922 -0.2175 -0.1658 -0.4162
  178SOPE  H14X20344   1.936  -0.175   8.973 -1.7532 -0.0385  2.6651
  178SOPE  H14Y20345   1.778  -0.098   8.959  0.0929 -2.0349  4.7984
  178SOPE  C31520346   1.848  -0.180   8.768  0.4411  0.4023  1.2927
  178SOPE  H15X20347   1.946  -0.227   8.745 -2.0002 -3.9120 -1.2486
  178SOPE  H15Y20348   1.847  -0.072   8.742  4.4831  0.5445  1.4356
  178SOPE  C31620349   1.734  -0.249   8.682 -0.3169 -0.3181  0.0094
  178SOPE  H16X20350   1.635  -0.199   8.692  0.5959  1.6096 -0.3015
  178SOPE  H16Y20351   1.726  -0.355   8.716 -1.3383  0.5736  2.7070
  178SOPE  C31720352   1.763  -0.247   8.535  0.5382  0.7425  0.3082
  178SOPE  H17X20353   1.680  -0.298   8.481  0.8354  0.3364  0.2386
  178SOPE  H17Y20354   1.857  -0.302   8.513 -1.1285 -1.8142 -0.6240
  178SOPE  C31820355   1.785  -0.109   8.470  0.2479  0.1227  0.1089
  178SOPE  H18X20356   1.688  -0.054   8.468  0.6143  0.7050 -2.4831
  178SOPE  H18Y20357   1.815  -0.121   8.364  1.4531 -0.0644  0.4660
  178SOPE  H18Z20358   1.867  -0.048   8.514  0.6235  0.4109 -0.9857
  179SOPE     N20359   1.080   0.838   6.222 -0.3794  1.0145  0.1346
  179SOPE   HN120360   0.985   0.797   6.232  0.1961 -0.8501 -1.7001
  179SOPE   HN220361   1.065   0.940   6.205  0.0027  1.0340 -0.0955
  179SOPE   HN320362   1.142   0.798   6.149 -1.2524  1.3381 -0.7905
  179SOPE   C1220363   1.125   0.820   6.367  0.0472 -0.4794 -0.3004
  179SOPE  H12A20364   1.224   0.870   6.377  0.0478 -0.2466 -1.4279
  179SOPE  H12B20365   1.143   0.714   6.392  1.0096 -0.8053 -2.3034
  179SOPE   C1120366   1.025   0.881   6.458 -0.2352  0.0534  0.0385
  179SOPE  H11A20367   1.042   0.991   6.456 -1.0792  0.1889 -0.0405
  179SOPE  H11B20368   1.045   0.850   6.562 -0.2716 -0.5740 -0.1357
  179SOPE     P20369   0.828   0.709   6.429  0.5348  0.5046  0.2943
  179SOPE   O1320370   0.911   0.620   6.350 -0.3738 -0.5205  0.9756
  179SOPE   O1420371   0.684   0.728   6.394 -0.1298  0.9130 -0.1963
  179SOPE   O1220372   0.893   0.853   6.424  0.7942  0.1543 -0.1606
  179SOPE   O1120373   0.834   0.679   6.581 -0.4527 -0.5921 -0.0798
  179SOPE    C120374   0.784   0.770   6.675 -0.0510 -0.5320 -0.0192
  179SOPE    HA20375   0.674   0.764   6.694  0.0609 -0.0071  0.8588
  179SOPE    HB20376   0.800   0.877   6.649 -1.2644 -0.0388  1.1992
  179SOPE    C220377   0.861   0.758   6.806  0.0348  0.3525 -0.7875
  179SOPE    HS20378   0.969   0.765   6.783  0.4495 -1.0567  0.6446
  179SOPE   O2120379   0.833   0.632   6.869 -0.7064 -0.5603 -0.1386
  179SOPE   C2120380   0.932   0.557   6.913 -0.5440 -0.2378 -0.6813
  179SOPE   O2220381   1.050   0.591   6.913  0.2353  0.0883 -0.2788
  179SOPE   C2220382   0.881   0.427   6.977 -0.2108  0.4685  0.5190
  179SOPE   H2R20383   0.969   0.370   7.013  1.7307  2.7218 -0.5345
  179SOPE   H2S20384   0.829   0.360   6.905  1.3524 -0.5859  0.3441
  179SOPE    C320385   0.816   0.868   6.909  0.1481  0.0539  0.1400
  179SOPE    HX20386   0.706   0.876   6.918  0.1851 -1.1815  2.1569
  179SOPE    HY20387   0.839   0.967   6.864 -0.2737  0.5668  1.0353
  179SOPE   O3120388   0.876   0.850   7.036  0.1769  0.4869  0.0561
  179SOPE   C3120389   1.005   0.885   7.036 -0.6053  0.6582 -0.0485
  179SOPE   O3220390   1.058   0.957   6.955 -0.5505 -0.0005 -0.0743
  179SOPE   C3220391   1.083   0.836   7.160 -0.0509  0.0183  0.0678
  179SOPE   H2X20392   1.189   0.870   7.158 -0.7624  2.2465 -0.3239
  179SOPE   H2Y20393   1.086   0.726   7.177 -0.1363 -0.2627 -1.6194
  179SOPE   C2320394   0.786   0.458   7.098  0.4902  0.3998 -0.1484
  179SOPE   H3R20395   0.729   0.366   7.126  0.2639  0.3274 -0.8262
  179SOPE   H3S20396   0.704   0.527   7.071 -0.6284 -0.6292  0.5523
  179SOPE   C2420397   0.855   0.506   7.221  0.0086 -0.2885 -0.2525
  179SOPE   H4R20398   0.952   0.457   7.241  0.9609  2.0305  1.0206
  179SOPE   H4S20399   0.883   0.613   7.209  0.4002 -0.5499 -1.6153
  179SOPE   C2520400   0.758   0.484   7.340 -0.2777 -0.1896  0.0611
  179SOPE   H5R20401   0.661   0.524   7.303 -0.3278 -1.6620 -1.4569
  179SOPE   H5S20402   0.755   0.374   7.354 -0.8912 -0.1000  0.6361
  179SOPE   C2620403   0.812   0.553   7.456 -0.1379 -0.8016 -0.8827
  179SOPE   H6R20404   0.922   0.547   7.462  0.0770  2.2324 -0.9868
  179SOPE   H6S20405   0.805   0.663   7.442  1.3603 -0.5159  0.5652
  179SOPE   C2720406   0.753   0.505   7.587 -0.4546 -0.0393 -0.6247
  179SOPE   H7R20407   0.643   0.502   7.569 -0.0704 -0.7604 -2.9333
  179SOPE   H7S20408   0.792   0.402   7.595 -0.5837 -0.0767 -0.4664
  179SOPE   C2820409   0.800   0.596   7.705  0.5822  0.1591  0.5162
  179SOPE   H8R20410   0.911   0.605   7.693  0.3071  0.6109 -1.9033
  179SOPE   H8S20411   0.755   0.696   7.688  2.1228  0.7962  0.0820
  179SOPE   C2920412   0.757   0.555   7.840  0.6204  0.3460 -0.5406
  179SOPE   H9120413   0.654   0.582   7.870  1.4843  2.6562  0.4322
  179SOPE  C21020414   0.819   0.476   7.929 -0.6127 -0.1064 -0.2236
  179SOPE  H10120415   0.763   0.440   8.016  1.1991 -0.4070  0.8408
  179SOPE  C21120416   0.953   0.416   7.913 -0.3136  0.1230 -0.6704
  179SOPE  H11R20417   1.004   0.446   7.819  0.8568  0.3556  0.0188
  179SOPE  H11S20418   0.938   0.306   7.919  0.7611 -0.0675 -1.2153
  179SOPE  C21220419   1.040   0.451   8.037 -0.0248  0.0951  0.3613
  179SOPE  H12R20420   1.042   0.562   8.039  0.6630  0.0708  1.7389
  179SOPE  H12S20421   1.136   0.402   8.010  0.9608  1.2955  1.5735
  179SOPE  C21320422   0.989   0.399   8.170  0.0232 -0.5144  0.3556
  179SOPE  H13R20423   0.974   0.289   8.177 -0.2634 -0.4837  0.2594
  179SOPE  H13S20424   0.892   0.440   8.206 -1.6407 -2.6428 -1.5872
  179SOPE  C21420425   1.106   0.417   8.278 -0.0632  0.1894  0.3517
  179SOPE  H14R20426   1.130   0.524   8.293 -0.8868  0.4941 -0.4256
  179SOPE  H14S20427   1.194   0.369   8.231  0.2572 -0.0690  1.2113
  179SOPE  C21520428   1.088   0.349   8.414  0.1252 -0.4273 -0.0757
  179SOPE  H15R20429   1.099   0.239   8.402  1.2738 -0.3409  0.0459
  179SOPE  H15S20430   0.988   0.378   8.451 -1.7771 -2.7409 -3.2255
  179SOPE  C21620431   1.198   0.389   8.512  0.8986 -0.2051 -0.4394
  179SOPE  H16R20432   1.208   0.499   8.503 -0.0273  0.0412  1.2642
  179SOPE  H16S20433   1.298   0.358   8.473  1.2798 -0.0048  0.3495
  179SOPE  C21720434   1.161   0.355   8.662 -1.2591 -0.0649 -0.5318
  179SOPE  H17R20435   1.109   0.257   8.669  1.6129 -1.4964  2.0736
  179SOPE  H17S20436   1.089   0.433   8.696  0.2008  0.1370  2.2646
  179SOPE  C21820437   1.281   0.386   8.760 -0.3061 -0.9195  0.2381
  179SOPE  H18R20438   1.327   0.486   8.745 -0.0464 -1.4863 -3.1996
  179SOPE  H18S20439   1.367   0.315   8.762  2.2509  2.0747  0.5301
  179SOPE  H18T20440   1.242   0.384   8.863  0.7847  1.4447  0.7363
  179SOPE   C3320441   1.006   0.888   7.280  0.0698 -0.8802 -0.1456
  179SOPE   H3X20442   0.909   0.833   7.290  0.0048 -0.5135  1.2908
  179SOPE   H3Y20443   0.984   0.996   7.268  1.6420 -0.5066  0.3500
  179SOPE   C3420444   1.083   0.864   7.405  0.7266  0.3873 -0.2188
  179SOPE   H4X20445   1.184   0.911   7.406 -0.1453  2.3299  0.4561
  179SOPE   H4Y20446   1.097   0.755   7.422  0.4461  0.4876  0.7049
  179SOPE   C3520447   1.014   0.923   7.530  0.1182  0.0852  0.2074
  179SOPE   H5X20448   0.908   0.892   7.532 -0.2317  1.2611  1.0328
  179SOPE   H5Y20449   1.010   1.034   7.526 -0.1530 -0.0079 -2.8681
  179SOPE   C3620450   1.075   0.872   7.666  0.3244  0.6500  0.1074
  179SOPE   H6X20451   1.177   0.915   7.672 -0.0405  1.2893  2.3081
  179SOPE   H6Y20452   1.083   0.762   7.675 -0.1101  0.5188 -1.1169
  179SOPE   C3720453   0.978   0.918   7.780  0.0701 -0.2635 -0.6310
  179SOPE   H7X20454   0.876   0.878   7.762 -0.2960 -0.1791  1.1959
  179SOPE   H7Y20455   0.963   1.028   7.770  1.7146  0.0225  0.0095
  179SOPE   C3820456   1.031   0.889   7.921 -0.2042  0.2059 -0.4727
  179SOPE   H8X20457   1.127   0.943   7.934  0.5098 -0.8340 -1.4093
  179SOPE   H8Y20458   1.058   0.782   7.909 -2.1280 -0.5040  1.2238
  179SOPE   C3920459   0.936   0.899   8.045 -0.5425 -0.1766 -0.9827
  179SOPE   H9X20460   0.855   0.825   8.030 -1.3941  0.1145  1.9413
  179SOPE   H9Y20461   0.885   0.997   8.049  1.0465  0.5733  2.2100
  179SOPE  C31020462   1.009   0.867   8.177  1.1027  0.0672 -0.0577
  179SOPE  H10X20463   1.083   0.949   8.189  1.4013 -0.1349 -0.4847
  179SOPE  H10Y20464   1.047   0.763   8.166  0.6244 -0.0029 -1.1451
  179SOPE  C31120465   0.921   0.871   8.305 -0.1945  0.0843 -0.0349
  179SOPE  H11X20466   0.834   0.814   8.265 -0.5988 -0.6931  1.8969
  179SOPE  H11Y20467   0.880   0.973   8.319  0.4087  0.4286 -0.7123
  179SOPE  C31220468   0.983   0.800   8.429 -0.1347  0.1024 -1.2784
  179SOPE  H12X20469   1.085   0.842   8.445  0.3242 -0.4068 -2.7736
  179SOPE  H12Y20470   0.994   0.691   8.413  0.0790  0.0217 -0.5944
  179SOPE  C31320471   0.914   0.814   8.565  0.2632 -0.3645 -0.1793
  179SOPE  H13X20472   0.813   0.768   8.559 -1.0209  2.4216 -0.4254
  179SOPE  H13Y20473   0.895   0.921   8.586 -0.5100 -1.0605  2.8202
  179SOPE  C31420474   0.987   0.753   8.679 -0.1062 -0.1929 -0.2924
  179SOPE  H14X20475   1.089   0.796   8.688 -1.3458  2.8742 -0.3321
  179SOPE  H14Y20476   1.004   0.646   8.655  0.7418 -0.1260 -0.0229
  179SOPE  C31520477   0.910   0.780   8.804 -0.2873  0.6417 -0.0170
  179SOPE  H15X20478   0.802   0.770   8.781 -0.6146  1.5652  1.0869
  179SOPE  H15Y20479   0.907   0.886   8.838 -1.2444 -0.0259  2.0169
  179SOPE  C31620480   0.954   0.687   8.923 -0.1955  0.2090  0.4122
  179SOPE  H16X20481   0.945   0.583   8.885  1.7798  0.3696 -0.5763
  179SOPE  H16Y20482   0.885   0.702   9.009 -2.1143 -4.3569 -0.2394
  179SOPE  C31720483   1.088   0.732   8.974 -0.3060  0.4128 -0.3252
  179SOPE  H17X20484   1.085   0.843   8.985  0.7311  0.4058  0.0882
  179SOPE  H17Y20485   1.170   0.714   8.901 -0.4268 -2.4528  0.2169
  179SOPE  C31820486   1.118   0.665   9.109  0.0344 -0.7326 -0.7397
  179SOPE  H18X20487   1.213   0.712   9.145 -1.7813  2.3891  0.2100
  179SOPE  H18Y20488   1.112   0.555   9.111 -0.8425 -0.6736 -0.2650
  179SOPE  H18Z20489   1.035   0.705   9.171 -0.6638 -1.2588 -1.3320
  180SOPE     N20490   6.285   1.320   6.364  0.0133 -0.7656  0.7374
  180SOPE   HN120491   6.292   1.413   6.411  1.0508  0.3378 -1.4780
  180SOPE   HN220492   6.336   1.319   6.273 -0.0446  1.1927  0.6539
  180SOPE   HN320493   6.187   1.308   6.333  0.1867  1.8278 -1.0462
  180SOPE   C1220494   6.345   1.220   6.465 -0.0982 -0.1870  0.5807
  180SOPE  H12A20495   6.280   1.223   6.556  0.2083  0.0815  0.7892
  180SOPE  H12B20496   6.444   1.261   6.493  0.0298  1.9724 -2.8054
  180SOPE   C1120497   6.357   1.087   6.397 -0.0557  0.3660 -0.5009
  180SOPE  H11A20498   6.260   1.051   6.358  1.2220 -1.6505 -1.9111
  180SOPE  H11B20499   6.403   1.017   6.471  2.1464 -0.1823 -2.3137
  180SOPE     P20500   6.606   1.098   6.304  0.0200  0.0684  0.3908
  180SOPE   O1320501   6.634   1.228   6.364 -0.6885 -0.0101 -0.0594
  180SOPE   O1420502   6.676   1.064   6.184 -0.1410  0.9753  0.0587
  180SOPE   O1220503   6.449   1.099   6.286  0.1530  0.0110 -0.4465
  180SOPE   O1120504   6.627   0.977   6.405  0.4385 -0.0174 -0.0536
  180SOPE    C120505   6.766   0.962   6.440  0.2856 -0.1286  0.1621
  180SOPE    HA20506   6.823   1.057   6.426  0.5034  0.5458  4.7716
  180SOPE    HB20507   6.803   0.872   6.387 -0.6862 -0.7654  0.5490
  180SOPE    C220508   6.780   0.948   6.589 -0.5466  0.0885  0.2235
  180SOPE    HS20509   6.887   0.957   6.617 -0.6760  1.0774  0.4321
  180SOPE   O2120510   6.719   0.824   6.624 -0.7270 -0.7709 -0.5559
  180SOPE   C2120511   6.784   0.716   6.602  0.4248  0.2552  0.2474
  180SOPE   O2220512   6.894   0.708   6.553  0.2195 -0.1829  0.2661
  180SOPE   C2220513   6.703   0.602   6.654 -0.2334  0.0194 -0.3597
  180SOPE   H2R20514   6.712   0.515   6.585  0.8821  1.3239 -1.8916
  180SOPE   H2S20515   6.596   0.628   6.648 -0.3114 -0.0614  0.5687
  180SOPE    C320516   6.714   1.060   6.669 -0.1659 -0.4956  0.2099
  180SOPE    HX20517   6.604   1.063   6.658 -0.3760  0.0035  2.2268
  180SOPE    HY20518   6.746   1.159   6.629 -2.4768 -0.7726 -2.4198
  180SOPE   O3120519   6.754   1.052   6.811 -0.2647 -0.0584 -0.2015
  180SOPE   C3120520   6.688   1.147   6.878  0.4528  0.3264 -0.7854
  180SOPE   O3220521   6.616   1.231   6.821  0.2109  0.4255 -0.1879
  180SOPE   C3220522   6.710   1.137   7.027 -0.6486  0.0827  0.1956
  180SOPE   H2X20523   6.813   1.173   7.046 -0.1631 -0.8636 -0.5710
  180SOPE   H2Y20524   6.712   1.029   7.053  3.9703  0.6554  2.7887
  180SOPE   C2320525   6.738   0.560   6.796 -0.4080 -0.0488 -0.3105
  180SOPE   H3R20526   6.847   0.542   6.811 -0.8523 -1.6894  1.0811
  180SOPE   H3S20527   6.702   0.455   6.798  0.9698 -0.5212  0.6618
  180SOPE   C2420528   6.672   0.628   6.912  0.0442  0.3341 -0.1342
  180SOPE   H4R20529   6.707   0.734   6.922  0.0439  0.4271 -1.0353
  180SOPE   H4S20530   6.564   0.641   6.891  0.6032  0.9627 -2.8668
  180SOPE   C2520531   6.701   0.571   7.049  0.6604 -0.1767 -0.8978
  180SOPE   H5R20532   6.677   0.462   7.049 -2.2145  0.4243  0.6373
  180SOPE   H5S20533   6.809   0.575   7.076 -0.6186  0.4370  4.7076
  180SOPE   C2620534   6.610   0.630   7.156 -0.1966 -0.0670 -0.4075
  180SOPE   H6R20535   6.654   0.728   7.184 -1.6579  0.2910  0.7043
  180SOPE   H6S20536   6.511   0.650   7.109  0.2081 -0.5218 -1.4712
  180SOPE   C2720537   6.603   0.547   7.285  0.2800 -0.2765  0.3679
  180SOPE   H7R20538   6.583   0.440   7.261 -3.4494  0.2799  0.8257
  180SOPE   H7S20539   6.705   0.545   7.331 -0.1849 -1.3122  1.3626
  180SOPE   C2820540   6.501   0.597   7.392  0.8012 -0.3715  0.5731
  180SOPE   H8R20541   6.508   0.514   7.466  2.8431 -3.0962 -2.5089
  180SOPE   H8S20542   6.543   0.690   7.434  1.0784  0.1207 -0.7802
  180SOPE   C2920543   6.357   0.628   7.349 -0.0628 -0.0605  0.1932
  180SOPE   H9120544   6.345   0.654   7.242 -1.4556 -2.0855 -0.1751
  180SOPE  C21020545   6.248   0.622   7.425 -0.5299  0.4956 -0.2880
  180SOPE  H10120546   6.151   0.660   7.389 -1.1984  0.6158  1.5916
  180SOPE  C21120547   6.256   0.575   7.568 -0.2322  0.5944  0.2016
  180SOPE  H11R20548   6.341   0.509   7.598  0.2083  0.7061 -0.8065
  180SOPE  H11S20549   6.176   0.507   7.606  1.1924 -1.3356 -0.1349
  180SOPE  C21220550   6.255   0.692   7.667  0.2861  0.0051  0.4422
  180SOPE  H12R20551   6.165   0.757   7.656 -1.2417 -2.1592 -0.2656
  180SOPE  H12S20552   6.339   0.763   7.657  0.4639 -0.3669 -0.6923
  180SOPE  C21320553   6.235   0.636   7.806 -0.7749 -0.3214  0.0270
  180SOPE  H13R20554   6.140   0.582   7.823 -0.7789 -0.4653 -0.4494
  180SOPE  H13S20555   6.247   0.715   7.883 -0.5137  1.5743 -1.9039
  180SOPE  C21420556   6.347   0.535   7.849  0.3197 -0.2942  0.5290
  180SOPE  H14R20557   6.447   0.576   7.827  0.9410 -1.3356  1.3923
  180SOPE  H14S20558   6.326   0.440   7.795 -1.2561  0.9530 -1.1273
  180SOPE  C21520559   6.353   0.498   8.000 -0.7426  0.2057 -0.1573
  180SOPE  H15R20560   6.401   0.586   8.048 -0.8487 -0.7702  1.8113
  180SOPE  H15S20561   6.421   0.411   8.013  0.9995  1.9088  2.7104
  180SOPE  C21620562   6.223   0.458   8.075  0.8894 -0.4254 -0.3696
  180SOPE  H16R20563   6.181   0.376   8.013  1.1926  1.0428 -2.5494
  180SOPE  H16S20564   6.144   0.535   8.066  0.3267 -1.1668 -2.1131
  180SOPE  C21720565   6.240   0.421   8.223 -0.8489 -0.0589  0.9250
  180SOPE  H17R20566   6.277   0.510   8.279  0.8563  0.9857 -1.8015
  180SOPE  H17S20567   6.319   0.345   8.242 -0.2780  0.6353  1.3257
  180SOPE  C21820568   6.111   0.366   8.283  0.1216  0.0305 -0.4852
  180SOPE  H18R20569   6.025   0.434   8.261  0.0904 -0.0604 -0.6548
  180SOPE  H18S20570   6.129   0.358   8.392 -0.2941  1.5671 -0.2906
  180SOPE  H18T20571   6.086   0.260   8.260 -1.1062 -0.6367  3.5945
  180SOPE   C3320572   6.610   1.206   7.122 -0.7829  0.0366  0.6774
  180SOPE   H3X20573   6.563   1.297   7.079 -1.4688 -1.3645 -1.6566
  180SOPE   H3Y20574   6.668   1.226   7.214  2.3316 -1.2564 -0.9151
  180SOPE   C3420575   6.508   1.104   7.172 -0.0628 -0.0732 -0.2659
  180SOPE   H4X20576   6.450   1.136   7.261 -0.4290 -0.6880 -0.2777
  180SOPE   H4Y20577   6.570   1.014   7.193 -1.4817 -0.6526  1.5681
  180SOPE   C3520578   6.404   1.080   7.068  0.0258 -0.4407  0.2360
  180SOPE   H5X20579   6.457   1.056   6.973 -1.2392 -1.4660 -0.2189
  180SOPE   H5Y20580   6.349   1.171   7.038 -3.1762 -2.4362 -0.1346
  180SOPE   C3620581   6.304   0.972   7.101  0.1167 -0.6899  0.3405
  180SOPE   H6X20582   6.361   0.882   7.134 -0.2873 -1.2211 -0.3870
  180SOPE   H6Y20583   6.266   0.944   7.000  0.7246 -1.2066  0.2522
  180SOPE   C3720584   6.186   1.009   7.194  0.6380  1.2436  0.0788
  180SOPE   H7X20585   6.135   1.100   7.156 -0.8355  0.3410 -0.1139
  180SOPE   H7Y20586   6.233   1.036   7.291  1.2793  0.2104  0.0582
  180SOPE   C3820587   6.092   0.891   7.219 -1.4981  0.1084  0.3983
  180SOPE   H8X20588   6.151   0.802   7.250  0.0282  0.8807 -0.2510
  180SOPE   H8Y20589   6.047   0.873   7.119 -2.1833  1.2963  0.4863
  180SOPE   C3920590   5.978   0.919   7.311 -0.5621 -0.4603 -0.4478
  180SOPE   H9X20591   5.890   0.866   7.270 -0.1575  0.6307 -2.8656
  180SOPE   H9Y20592   5.960   1.028   7.297  0.5350 -0.0412  1.2599
  180SOPE  C31020593   5.997   0.896   7.467  0.2661 -0.5771  0.2428
  180SOPE  H10X20594   6.096   0.938   7.494 -0.5669  1.3942  0.2988
  180SOPE  H10Y20595   6.001   0.785   7.477  1.0968 -0.4820  0.9779
  180SOPE  C31120596   5.878   0.954   7.558 -0.7624  0.5252  0.5150
  180SOPE  H11X20597   5.786   0.893   7.546 -1.9041  2.2346  0.5156
  180SOPE  H11Y20598   5.853   1.051   7.511  1.0043  1.6370  1.8200
  180SOPE  C31220599   5.908   0.971   7.710 -0.5811 -0.1761 -0.2674
  180SOPE  H12X20600   5.947   0.876   7.754 -0.7132 -1.7055 -3.3645
  180SOPE  H12Y20601   5.817   1.012   7.759 -0.2499  0.3335 -0.0735
  180SOPE  C31320602   6.012   1.076   7.736 -0.0407  0.3954 -0.1220
  180SOPE  H13X20603   6.000   1.162   7.666 -2.5661 -0.5985 -0.9738
  180SOPE  H13Y20604   6.111   1.032   7.712 -0.7123 -0.8623 -0.6381
  180SOPE  C31420605   6.028   1.115   7.879  0.4866 -0.2395  0.2734
  180SOPE  H14X20606   5.926   1.134   7.919  0.6878 -3.1912  2.3416
  180SOPE  H14Y20607   6.082   1.212   7.879  0.5392 -0.2696  0.3357
  180SOPE  C31520608   6.106   1.003   7.953 -0.1828  0.4244 -0.2358
  180SOPE  H15X20609   6.205   1.000   7.903 -0.6628 -1.6258 -1.1316
  180SOPE  H15Y20610   6.066   0.900   7.947 -0.8167  0.3272  4.1801
  180SOPE  C31620611   6.108   1.037   8.108  0.1641  0.2720  0.3983
  180SOPE  H16X20612   6.008   1.040   8.157  0.0305  3.6140  0.0943
  180SOPE  H16Y20613   6.156   1.138   8.108  0.0851  0.3133 -0.0950
  180SOPE  C31720614   6.192   0.935   8.186 -0.8196 -0.6308  0.1684
  180SOPE  H17X20615   6.297   0.963   8.163  0.1864 -3.4650  1.1487
  180SOPE  H17Y20616   6.180   0.827   8.163  2.2846 -0.8190 -0.7297
  180SOPE  C31820617   6.170   0.934   8.337  0.2652  0.1965 -0.0287
  180SOPE  H18X20618   6.201   1.032   8.378  0.0059  0.4391 -0.4131
  180SOPE  H18Y20619   6.226   0.850   8.383 -1.1176  0.4167  2.0966
  180SOPE  H18Z20620   6.062   0.929   8.361 -0.5836  0.4818 -3.4067
  181SOPE     N20621   6.150   5.055   5.901 -0.2724 -0.0628  0.1213
  181SOPE   HN120622   6.169   5.057   5.799  0.6350 -2.3115  0.2315
  181SOPE   HN220623   6.212   4.984   5.944 -0.4048  0.5605  1.3549
  181SOPE   HN320624   6.054   5.028   5.930 -0.9463 -1.5832 -3.2940
  181SOPE   C1220625   6.193   5.186   5.961  0.4149  0.7268 -0.1711
  181SOPE  H12A20626   6.191   5.175   6.071  2.4483 -0.8365 -0.2638
  181SOPE  H12B20627   6.119   5.265   5.933 -1.0718 -1.1468 -1.6385
  181SOPE   C1120628   6.334   5.227   5.901 -1.3982 -0.1083 -0.1865
  181SOPE  H11A20629   6.315   5.247   5.793 -0.9869  1.8032  0.0730
  181SOPE  H11B20630   6.410   5.145   5.902 -1.2076  0.0676 -0.1272
  181SOPE     P20631   6.491   5.351   6.080 -0.0731 -0.1175 -0.0383
  181SOPE   O1320632   6.506   5.489   6.110 -0.2658 -0.6001 -0.2694
  181SOPE   O1420633   6.611   5.287   6.023 -0.1096  0.0794  0.7677
  181SOPE   O1220634   6.380   5.345   5.969  0.1043 -0.1985 -0.2293
  181SOPE   O1120635   6.422   5.264   6.199 -0.0083  0.1825  0.4389
  181SOPE    C120636   6.369   5.334   6.305 -0.9028  0.2316  0.5096
  181SOPE    HA20637   6.276   5.392   6.282 -1.4641  0.4741  3.2131
  181SOPE    HB20638   6.440   5.403   6.356  0.7482 -0.6881 -0.5042
  181SOPE    C220639   6.311   5.252   6.417  0.6553 -0.3047  0.0386
  181SOPE    HS20640   6.391   5.203   6.477  1.2745 -0.4615 -0.9098
  181SOPE   O2120641   6.214   5.152   6.368 -0.3182  0.2351 -0.5236
  181SOPE   C2120642   6.214   5.037   6.438  0.0673 -0.0036  0.4047
  181SOPE   O2220643   6.299   5.013   6.525 -0.3399 -0.6505 -0.2703
  181SOPE   C2220644   6.087   4.961   6.388  0.4055  0.0274  0.1273
  181SOPE   H2R20645   6.108   4.933   6.282 -1.0853 -2.3503  0.4127
  181SOPE   H2S20646   6.010   5.040   6.396 -0.0902 -0.3266 -1.0513
  181SOPE    C320647   6.236   5.359   6.512  0.2740  0.2269  0.4641
  181SOPE    HX20648   6.147   5.408   6.466 -0.1909  0.1055  1.2232
  181SOPE    HY20649   6.314   5.436   6.527  1.0340 -0.3539 -0.4052
  181SOPE   O3120650   6.190   5.292   6.633  0.4271  0.4972 -0.8709
  181SOPE   C3120651   6.283   5.286   6.727 -0.3644 -0.3621  1.0325
  181SOPE   O3220652   6.398   5.335   6.719 -0.0317 -0.2877 -0.2058
  181SOPE   C3220653   6.229   5.210   6.845  0.2128  0.4810 -0.0643
  181SOPE   H2X20654   6.209   5.106   6.813  0.7504  0.6947 -1.0987
  181SOPE   H2Y20655   6.136   5.254   6.889  1.0599  1.0411  1.1894
  181SOPE   C2320656   6.064   4.837   6.473  0.2744  0.2378 -0.1877
  181SOPE   H3R20657   6.158   4.789   6.508 -0.3142  0.8031  2.3144
  181SOPE   H3S20658   6.029   4.764   6.396  1.7910  0.4450 -1.0863
  181SOPE   C2420659   5.963   4.858   6.594  0.0152  0.0571 -0.5478
  181SOPE   H4R20660   5.863   4.895   6.563 -0.9579 -1.8391  0.2453
  181SOPE   H4S20661   5.944   4.761   6.645 -2.1165  0.9586  0.4603
  181SOPE   C2520662   6.038   4.951   6.696 -1.1363 -0.3081  0.6104
  181SOPE   H5R20663   6.141   4.915   6.714 -1.6232 -1.8526  0.3223
  181SOPE   H5S20664   6.049   5.049   6.645  1.4335 -0.7062  0.3395
  181SOPE   C2620665   5.949   4.977   6.825  0.4471 -0.7134 -0.0898
  181SOPE   H6R20666   5.947   5.087   6.843 -0.4668 -0.4095 -1.9333
  181SOPE   H6S20667   5.841   4.955   6.812  0.5630  0.0098 -2.6869
  181SOPE   C2720668   5.995   4.923   6.959 -0.2028 -0.4006  0.3073
  181SOPE   H7R20669   5.993   4.813   6.949  0.6570 -0.5135  1.2838
  181SOPE   H7S20670   6.103   4.946   6.969  0.4313 -2.7489 -0.9365
  181SOPE   C2820671   5.928   4.988   7.086 -0.0903 -0.8384  0.8108
  181SOPE   H8R20672   5.981   4.950   7.176 -2.8538 -0.7413  2.5564
  181SOPE   H8S20673   5.940   5.097   7.074  1.9978 -1.2350 -1.0006
  181SOPE   C2920674   5.789   4.941   7.115 -0.8574  0.6073  0.6973
  181SOPE   H9120675   5.738   4.907   7.024  1.6764  1.2895 -1.0357
  181SOPE  C21020676   5.724   4.923   7.233  0.4212 -0.1242  0.7644
  181SOPE  H10120677   5.622   4.880   7.229  0.2298  0.4561 -0.8455
  181SOPE  C21120678   5.776   4.949   7.364 -0.1020  0.6449  0.1486
  181SOPE  H11R20679   5.879   4.990   7.373  0.0416  0.2699  0.2133
  181SOPE  H11S20680   5.802   4.850   7.407 -2.2119  0.8166  1.8860
  181SOPE  C21220681   5.688   5.028   7.450  0.2857 -0.1545  0.2011
  181SOPE  H12R20682   5.582   4.998   7.438 -0.0832  0.3540  2.1413
  181SOPE  H12S20683   5.690   5.135   7.420 -0.2808 -0.0600  0.5199
  181SOPE  C21320684   5.729   5.031   7.598 -1.0117  0.5643  0.2893
  181SOPE  H13R20685   5.784   4.936   7.617 -0.2509  0.8365 -0.5168
  181SOPE  H13S20686   5.635   5.041   7.656 -1.8970 -0.0075 -1.0376
  181SOPE  C21420687   5.827   5.145   7.626  0.5456  0.3229 -0.9617
  181SOPE  H14R20688   5.776   5.244   7.633  0.8670  0.4776 -0.8030
  181SOPE  H14S20689   5.911   5.148   7.553  0.5177 -1.4442 -1.0806
  181SOPE  C21520690   5.887   5.112   7.767 -0.5185 -0.5957  0.4581
  181SOPE  H15R20691   5.811   5.042   7.809 -1.5900  0.0804 -0.3406
  181SOPE  H15S20692   5.892   5.203   7.831 -4.8344 -0.4567  0.7337
  181SOPE  C21620693   6.022   5.040   7.759 -1.1871 -0.3853  0.0616
  181SOPE  H16R20694   6.099   5.109   7.718  1.5081 -1.1723  3.5035
  181SOPE  H16S20695   6.007   4.958   7.686 -0.4508  1.0189 -1.6984
  181SOPE  C21720696   6.073   4.979   7.890 -0.0705  0.4964  0.3507
  181SOPE  H17R20697   6.180   4.947   7.885  0.5124  2.1148  1.8784
  181SOPE  H17S20698   6.008   4.890   7.907  0.5910 -0.1681 -0.5150
  181SOPE  C21820699   6.061   5.070   8.012 -0.7265  0.6310  0.0252
  181SOPE  H18R20700   5.955   5.100   8.025 -1.3995 -0.5328 -2.4214
  181SOPE  H18S20701   6.121   5.163   8.001 -0.3621  0.4595  0.5755
  181SOPE  H18T20702   6.100   5.014   8.100  0.2125  1.3709  0.0843
  181SOPE   C3320703   6.326   5.201   6.969 -0.3366  0.2441  0.7451
  181SOPE   H3X20704   6.350   5.308   6.984  0.0469  0.5383 -1.8041
  181SOPE   H3Y20705   6.421   5.152   6.938 -1.2423 -1.0304 -0.0637
  181SOPE   C3420706   6.269   5.147   7.098  0.3976 -0.0912  0.2955
  181SOPE   H4X20707   6.238   5.040   7.095 -1.6418  0.4771  0.1912
  181SOPE   H4Y20708   6.185   5.210   7.134  1.4127 -0.2342  3.0485
  181SOPE   C3520709   6.365   5.168   7.209  0.4047 -0.2281 -0.2580
  181SOPE   H5X20710   6.407   5.271   7.201  1.6221 -0.8916 -2.9537
  181SOPE   H5Y20711   6.448   5.095   7.204  0.9538  0.5101 -2.7915
  181SOPE   C3620712   6.311   5.154   7.351 -0.6219 -0.6185 -0.2385
  181SOPE   H6X20713   6.275   5.050   7.369 -2.7338  0.2190  0.5878
  181SOPE   H6Y20714   6.221   5.220   7.357  0.0367  0.2057  0.8633
  181SOPE   C3720715   6.403   5.196   7.462 -0.0020 -0.3472 -0.0353
  181SOPE   H7X20716   6.439   5.297   7.434 -0.2568 -0.1360  0.3752
  181SOPE   H7Y20717   6.489   5.126   7.469 -0.6833 -1.0590  1.5499
  181SOPE   C3820718   6.340   5.196   7.602 -0.5884 -0.1830  0.0866
  181SOPE   H8X20719   6.295   5.095   7.613 -1.6201  0.2210 -0.4499
  181SOPE   H8Y20720   6.265   5.275   7.620  0.4093  0.9978 -0.8152
  181SOPE   C3920721   6.443   5.208   7.714  0.3186  0.4510 -0.7095
  181SOPE   H9X20722   6.496   5.306   7.710  0.5810  0.4529  1.6857
  181SOPE   H9Y20723   6.518   5.126   7.702  1.4857  1.4942 -0.6377
  181SOPE  C31020724   6.385   5.177   7.857 -0.2985 -0.2246 -0.1045
  181SOPE  H10X20725   6.353   5.070   7.853  1.6489 -0.9217  2.0861
  181SOPE  H10Y20726   6.296   5.232   7.896  1.1225  0.8683  1.6613
  181SOPE  C31120727   6.494   5.190   7.960  0.0231  0.4067 -0.5100
  181SOPE  H11X20728   6.511   5.300   7.954  1.5578  0.1501 -0.9533
  181SOPE  H11Y20729   6.590   5.146   7.925 -0.8793 -0.8711 -1.3781
  181SOPE  C31220730   6.448   5.152   8.101 -0.7323 -0.9338 -0.0987
  181SOPE  H12X20731   6.422   5.044   8.110  0.8063 -1.2521  0.6994
  181SOPE  H12Y20732   6.348   5.200   8.109 -0.6753 -0.8481  0.1014
  181SOPE  C31320733   6.554   5.179   8.209  0.1818  0.2957 -0.1746
  181SOPE  H13X20734   6.635   5.110   8.177  0.0111 -0.0246  0.0836
  181SOPE  H13Y20735   6.528   5.144   8.311 -0.3002 -0.2907 -0.4917
  181SOPE  C31420736   6.593   5.330   8.199 -0.0000  0.6099 -0.4755
  181SOPE  H14X20737   6.496   5.382   8.210 -0.4893 -0.4713  0.4730
  181SOPE  H14Y20738   6.648   5.358   8.107  0.0202  2.1283 -0.0221
  181SOPE  C31520739   6.675   5.375   8.322  0.7066  0.4536 -0.7980
  181SOPE  H15X20740   6.697   5.484   8.314  1.7945  0.3971  1.1180
  181SOPE  H15Y20741   6.770   5.317   8.320  1.8806  2.2723  0.1658
  181SOPE  C31620742   6.603   5.363   8.462  0.0439  0.1889  0.5648
  181SOPE  H16X20743   6.687   5.358   8.534 -1.3633  0.1368  2.2235
  181SOPE  H16Y20744   6.553   5.264   8.466  0.3300 -0.1335 -2.3352
  181SOPE  C31720745   6.525   5.491   8.498  0.1797 -0.1439  0.0899
  181SOPE  H17X20746   6.445   5.501   8.422  0.2435 -2.2151 -0.2561
  181SOPE  H17Y20747   6.593   5.578   8.487 -0.0476 -0.2324 -2.2749
  181SOPE  C31820748   6.462   5.500   8.636 -0.3509 -0.0701  1.5180
  181SOPE  H18X20749   6.538   5.482   8.716  0.9925 -0.8210  0.1079
  181SOPE  H18Y20750   6.386   5.420   8.651 -0.6449 -0.2014 -0.4958
  181SOPE  H18Z20751   6.427   5.603   8.657 -2.0790 -0.3004 -0.1784
  182SOPE     N20752   0.002   6.224   6.042  0.4398  0.7019 -0.3206
  182SOPE   HN120753   0.033   6.323   6.050 -0.5171  0.8999  1.1364
  182SOPE   HN220754   0.033   6.167   6.122  0.6947  0.2143 -0.7625
  182SOPE   HN320755   0.056   6.182   5.963  0.4630 -0.6192  0.3921
  182SOPE   C1220756  -0.144   6.209   6.017 -0.5854  0.5479 -0.5448
  182SOPE  H12A20757  -0.180   6.109   6.050 -0.1239 -0.2638 -2.3848
  182SOPE  H12B20758  -0.161   6.230   5.909 -1.0010  0.3954 -0.5091
  182SOPE   C1120759  -0.229   6.321   6.101  0.2970  0.5352 -0.3533
  182SOPE  H11A20760  -0.193   6.316   6.206  0.3461 -0.4973 -0.4078
  182SOPE  H11B20761  -0.327   6.268   6.097  0.8770 -0.6339  0.3955
  182SOPE     P20762  -0.121   6.559   6.084 -0.4035 -0.1311  0.3488
  182SOPE   O1320763  -0.156   6.679   6.005 -0.6058  0.1132 -0.8211
  182SOPE   O1420764   0.010   6.497   6.065 -0.0814  0.3796 -0.3138
  182SOPE   O1220765  -0.238   6.456   6.054 -0.2159 -0.8302  0.1853
  182SOPE   O1120766  -0.151   6.578   6.235  0.4618  0.5697 -0.1037
  182SOPE    C120767  -0.073   6.519   6.338 -0.0832 -0.5052  0.0458
  182SOPE    HA20768  -0.007   6.603   6.369 -0.2996  0.5919 -2.3819
  182SOPE    HB20769  -0.006   6.439   6.301 -0.1202  0.0184 -1.1983
  182SOPE    C220770  -0.154   6.489   6.461  1.0099 -0.3881  0.0892
  182SOPE    HS20771  -0.216   6.400   6.434  0.2935  0.2868 -0.5417
  182SOPE   O2120772  -0.248   6.594   6.498  0.6337  0.2415 -0.6305
  182SOPE   C2120773  -0.197   6.708   6.554  0.4293  0.8109  0.3645
  182SOPE   O2220774  -0.085   6.751   6.541  0.3786  0.5326 -0.3934
  182SOPE   C2220775  -0.307   6.794   6.625 -0.1366  0.7389  0.2152
  182SOPE   H2R20776  -0.397   6.799   6.559  0.6428  0.1636 -0.8942
  182SOPE   H2S20777  -0.268   6.898   6.626  2.4666 -0.1873 -0.2743
  182SOPE    C320778  -0.059   6.453   6.579  0.7448  0.9202  0.2107
  182SOPE    HX20779   0.004   6.535   6.619 -1.3743  2.0510  1.2938
  182SOPE    HY20780   0.019   6.382   6.543  1.4507  1.9601 -0.3541
  182SOPE   O3120781  -0.131   6.415   6.701  0.1455  0.3293  0.1750
  182SOPE   C3120782  -0.167   6.285   6.703  0.0495  1.8818  0.1340
  182SOPE   O3220783  -0.155   6.211   6.610  0.6168  0.1485  0.3756
  182SOPE   C3220784  -0.229   6.259   6.837  0.5219 -0.5755  0.3894
  182SOPE   H2X20785  -0.284   6.350   6.871  0.0523 -0.3546 -0.9501
  182SOPE   H2Y20786  -0.146   6.235   6.906  0.1904  0.0547  1.0201
  182SOPE   C2320787  -0.340   6.741   6.775 -0.0896 -0.8119  0.0509
  182SOPE   H3R20788  -0.358   6.632   6.778  3.4383 -1.5209 -1.9576
  182SOPE   H3S20789  -0.428   6.794   6.817 -2.0110 -2.6193 -1.6008
  182SOPE   C2420790  -0.232   6.769   6.876 -0.1196  0.0063 -1.0179
  182SOPE   H4R20791  -0.130   6.769   6.830  0.0912  0.4407 -0.5426
  182SOPE   H4S20792  -0.241   6.868   6.924  0.6684 -0.1637 -0.4913
  182SOPE   C2520793  -0.227   6.675   7.000 -0.1277 -0.4649  0.0852
  182SOPE   H5R20794  -0.233   6.572   6.957 -1.6060 -0.8587  1.1923
  182SOPE   H5S20795  -0.127   6.683   7.046 -0.6024 -1.7946  1.3808
  182SOPE   C2620796  -0.345   6.684   7.096  0.4947 -0.3340 -0.0958
  182SOPE   H6R20797  -0.356   6.793   7.114 -0.1688 -0.3489 -0.3998
  182SOPE   H6S20798  -0.436   6.644   7.046  0.1368  0.3498 -0.0062
  182SOPE   C2720799  -0.327   6.594   7.217 -0.0988 -0.7169  0.8991
  182SOPE   H7R20800  -0.417   6.611   7.279  1.1050  1.8465  2.0193
  182SOPE   H7S20801  -0.326   6.488   7.186 -1.6217 -0.7146  0.7927
  182SOPE   C2820802  -0.198   6.602   7.300  0.3246  0.0546  0.9672
  182SOPE   H8R20803  -0.113   6.595   7.229 -0.3962 -1.3003  0.2322
  182SOPE   H8S20804  -0.202   6.699   7.355 -1.8520  0.2808  0.4585
  182SOPE   C2920805  -0.200   6.497   7.407 -0.1299  0.6987  0.7408
  182SOPE   H9120806  -0.300   6.452   7.423  1.0624 -2.5557 -0.5821
  182SOPE  C21020807  -0.098   6.449   7.482 -0.0282  0.5932  0.2020
  182SOPE  H10120808  -0.117   6.361   7.545 -1.0802  0.4956 -0.2384
  182SOPE  C21120809   0.044   6.493   7.455 -0.5643 -0.1119 -0.1621
  182SOPE  H11R20810   0.080   6.504   7.559 -2.1493  1.8945  0.2027
  182SOPE  H11S20811   0.050   6.584   7.391 -1.8229 -0.3894 -0.6850
  182SOPE  C21220812   0.131   6.398   7.376 -0.6072  0.1327 -0.0684
  182SOPE  H12R20813   0.107   6.292   7.400 -1.1827  0.5723  1.3974
  182SOPE  H12S20814   0.237   6.412   7.405 -0.3881  0.8727 -1.2270
  182SOPE  C21320815   0.124   6.409   7.222 -0.3710  0.6609  0.5623
  182SOPE  H13R20816   0.171   6.501   7.181  0.9942 -0.7446 -1.1850
  182SOPE  H13S20817   0.020   6.418   7.186  0.0016  1.7486 -0.2520
  182SOPE  C21420818   0.204   6.294   7.156 -0.2495 -0.1416  0.0261
  182SOPE  H14R20819   0.142   6.203   7.168 -0.9301  0.3424  0.2560
  182SOPE  H14S20820   0.299   6.289   7.214  0.7156 -0.0145 -1.5317
  182SOPE  C21520821   0.223   6.323   7.001 -0.0487  0.0180 -0.0312
  182SOPE  H15R20822   0.252   6.425   6.969  1.7252 -0.4365  0.0810
  182SOPE  H15S20823   0.120   6.306   6.962  0.2404  0.2952 -0.9335
  182SOPE  C21620824   0.328   6.222   6.941  0.8525  0.1309 -0.5482
  182SOPE  H16R20825   0.325   6.215   6.830  0.4190  0.6995 -0.5740
  182SOPE  H16S20826   0.283   6.132   6.988  0.5184 -0.2376 -1.5685
  182SOPE  C21720827   0.469   6.233   7.002  0.2921 -0.1784 -0.5253
  182SOPE  H17R20828   0.472   6.264   7.109  0.6263  0.2976 -0.6718
  182SOPE  H17S20829   0.523   6.311   6.944  0.4287  1.4243  1.6784
  182SOPE  C21820830   0.536   6.094   6.989 -0.6171 -0.3172 -0.8007
  182SOPE  H18R20831   0.647   6.103   6.987 -0.5755  0.1105  1.6004
  182SOPE  H18S20832   0.502   6.030   6.905  0.4597 -1.7993 -0.1206
  182SOPE  H18T20833   0.526   6.035   7.082  2.2635 -0.9814 -0.8625
  182SOPE   C3320834  -0.319   6.132   6.830  0.6151  0.5857  0.1013
  182SOPE   H3X20835  -0.254   6.043   6.817 -1.3652 -1.0993  1.3836
  182SOPE   H3Y20836  -0.388   6.140   6.743 -1.1917 -0.0901  1.4185
  182SOPE   C3420837  -0.398   6.131   6.958 -0.2679 -0.2931  0.6634
  182SOPE   H4X20838  -0.481   6.057   6.957 -0.5985  0.0710  1.1178
  182SOPE   H4Y20839  -0.437   6.233   6.974 -1.7889 -0.8396  0.5746
  182SOPE   C3520840  -0.319   6.112   7.084  0.2478 -0.0677 -0.8464
  182SOPE   H5X20841  -0.237   6.187   7.080 -0.4592  0.9351  2.5510
  182SOPE   H5Y20842  -0.272   6.011   7.075  1.3862  0.3767  0.0087
  182SOPE   C3620843  -0.408   6.130   7.207  0.0118  0.3612  0.1358
  182SOPE   H6X20844  -0.493   6.061   7.188  1.0475 -0.2009 -2.7202
  182SOPE   H6Y20845  -0.447   6.234   7.213 -0.4295  0.2610 -0.8121
  182SOPE   C3720846  -0.342   6.103   7.339 -0.1311 -0.2549 -0.2518
  182SOPE   H7X20847  -0.242   6.151   7.341 -0.2291 -0.0601  3.3189
  182SOPE   H7Y20848  -0.333   5.992   7.336  1.3036 -0.1202 -1.7713
  182SOPE   C3820849  -0.428   6.155   7.455  0.4749  0.0587  0.7178
  182SOPE   H8X20850  -0.529   6.114   7.432  1.7519 -1.9838 -1.4992
  182SOPE   H8Y20851  -0.417   6.265   7.450 -0.7995  0.1722  0.0812
  182SOPE   C3920852  -0.390   6.112   7.596  0.0836  0.2749  0.0811
  182SOPE   H9X20853  -0.313   6.181   7.638 -1.1756 -0.6622  4.1365
  182SOPE   H9Y20854  -0.365   6.004   7.588 -1.9615 -0.3360  1.6068
  182SOPE  C31020855  -0.505   6.140   7.693  0.4416 -0.3620  0.1231
  182SOPE  H10X20856  -0.595   6.096   7.645  0.5350 -0.7949  0.3452
  182SOPE  H10Y20857  -0.525   6.249   7.698 -0.1379 -0.5751  3.4097
  182SOPE  C31120858  -0.481   6.093   7.831 -0.7748  0.5732  0.5924
  182SOPE  H11X20859  -0.387   6.136   7.870  0.4791 -2.9525  1.6278
  182SOPE  H11Y20860  -0.471   5.984   7.850 -1.8413  0.4902  0.7230
  182SOPE  C31220861  -0.592   6.135   7.923 -0.2151 -0.6468 -0.6140
  182SOPE  H12X20862  -0.684   6.104   7.870 -0.2392 -2.4090  0.4415
  182SOPE  H12Y20863  -0.595   6.246   7.932  1.7597 -0.6257  0.0287
  182SOPE  C31320864  -0.587   6.066   8.056 -0.9058  0.3424  1.0831
  182SOPE  H13X20865  -0.493   6.097   8.107 -0.8603 -0.6971  1.6515
  182SOPE  H13Y20866  -0.571   5.958   8.033  0.4893  1.1283 -1.9575
  182SOPE  C31420867  -0.701   6.098   8.150 -0.1765  0.5896 -0.2030
  182SOPE  H14X20868  -0.795   6.051   8.112  0.5216  0.2007 -1.4941
  182SOPE  H14Y20869  -0.723   6.206   8.146 -1.1205  0.3505 -1.9759
  182SOPE  C31520870  -0.680   6.058   8.300 -0.4760  0.3293 -0.0354
  182SOPE  H15X20871  -0.663   5.949   8.313  2.5892  0.6760 -0.7321
  182SOPE  H15Y20872  -0.771   6.096   8.350 -1.6790  0.3342 -2.1695
  182SOPE  C31620873  -0.556   6.125   8.365  0.2337  0.1494  0.1335
  182SOPE  H16X20874  -0.563   6.234   8.345  2.7254  0.2489 -0.3673
  182SOPE  H16Y20875  -0.463   6.085   8.319 -0.1713 -1.0074  0.3134
  182SOPE  C31720876  -0.544   6.101   8.518  0.4231  0.0345 -0.6944
  182SOPE  H17X20877  -0.439   6.094   8.553  0.2891  0.3550 -0.2145
  182SOPE  H17Y20878  -0.600   6.007   8.539 -1.7454  0.7281 -3.1625
  182SOPE  C31820879  -0.625   6.207   8.595 -0.3915 -0.2980  0.4565
  182SOPE  H18X20880  -0.619   6.183   8.703  1.0128 -0.5760  0.3371
  182SOPE  H18Y20881  -0.727   6.213   8.551 -0.2553  2.7910  0.4637
  182SOPE  H18Z20882  -0.572   6.303   8.577 -0.2493 -0.4229  0.1982
  183SOPE     N20883   2.022   4.459   6.380  0.1435  0.4902  0.0259
  183SOPE   HN120884   1.993   4.371   6.428 -1.1109  1.0327  0.2843
  183SOPE   HN220885   1.939   4.496   6.330 -0.8846 -1.2375  0.4217
  183SOPE   HN320886   2.090   4.430   6.307 -2.6860 -1.8437 -1.7251
  183SOPE   C1220887   2.065   4.572   6.465  0.2458 -0.2231  0.3795
  183SOPE  H12A20888   2.119   4.534   6.555  1.6720 -0.6791 -0.6646
  183SOPE  H12B20889   1.983   4.630   6.514  0.6812  0.0184  0.8343
  183SOPE   C1120890   2.152   4.654   6.371 -0.0241  0.0066 -0.4642
  183SOPE  H11A20891   2.183   4.744   6.428  0.0619 -0.9349  1.0102
  183SOPE  H11B20892   2.116   4.679   6.269  1.2924  2.8855 -0.2690
  183SOPE     P20893   2.402   4.649   6.283  0.2955 -0.4721  0.3385
  183SOPE   O1320894   2.404   4.793   6.303  0.1799 -0.0187 -0.2877
  183SOPE   O1420895   2.417   4.614   6.141  0.0747  0.0171  0.1484
  183SOPE   O1220896   2.274   4.585   6.353 -0.2461 -0.8521 -0.0817
  183SOPE   O1120897   2.524   4.604   6.368  0.2424 -0.1672  0.3478
  183SOPE    C120898   2.525   4.472   6.430  0.5862 -0.9194  0.0527
  183SOPE    HA20899   2.629   4.434   6.433  0.8979  0.0068  1.8661
  183SOPE    HB20900   2.469   4.395   6.373 -0.5711 -1.6745  2.1723
  183SOPE    C220901   2.478   4.474   6.577  0.2127 -0.4252 -0.5682
  183SOPE    HS20902   2.382   4.529   6.579 -0.8705 -2.2173 -1.8637
  183SOPE   O2120903   2.574   4.535   6.668 -0.3238  0.4584  0.2190
  183SOPE   C2120904   2.559   4.656   6.699 -0.4087  0.0444  0.0601
  183SOPE   O2220905   2.468   4.735   6.665 -0.3344  0.2953  1.0485
  183SOPE   C2220906   2.675   4.692   6.803  0.1367  0.1201 -0.5112
  183SOPE   H2R20907   2.770   4.686   6.746  0.7159  1.2583  0.3212
  183SOPE   H2S20908   2.669   4.617   6.885 -0.3031  1.2199  0.4753
  183SOPE    C320909   2.438   4.332   6.629 -0.0443 -0.0074 -0.3490
  183SOPE    HX20910   2.525   4.271   6.595  1.5191  2.6782 -1.3552
  183SOPE    HY20911   2.351   4.293   6.572  0.7115 -2.0216 -0.1893
  183SOPE   O3120912   2.421   4.326   6.773 -0.1689 -0.4177  0.0589
  183SOPE   C3120913   2.318   4.395   6.820 -0.0413  0.3053  0.2447
  183SOPE   O3220914   2.224   4.431   6.755  0.1501 -0.5196  0.1276
  183SOPE   C3220915   2.332   4.410   6.968 -0.9491  0.3624 -0.4762
  183SOPE   H2X20916   2.426   4.356   6.994 -0.3767  1.7068  0.3133
  183SOPE   H2Y20917   2.241   4.363   7.011  0.0371 -0.9927  0.1466
  183SOPE   C2320918   2.661   4.841   6.852 -0.0025  0.0901 -0.1408
  183SOPE   H3R20919   2.580   4.852   6.927  0.1870 -0.9508  0.2325
  183SOPE   H3S20920   2.624   4.896   6.763 -1.6181  0.9532  1.0372
  183SOPE   C2420921   2.793   4.896   6.904  0.3685 -0.3623 -0.5051
  183SOPE   H4R20922   2.862   4.893   6.817  1.9700  0.3293  0.7022
  183SOPE   H4S20923   2.779   4.999   6.942  0.7366 -1.1360  1.8063
  183SOPE   C2520924   2.856   4.812   7.017 -1.0000  0.0934 -0.2650
  183SOPE   H5R20925   2.888   4.712   6.982 -0.4286 -0.2954  1.3693
  183SOPE   H5S20926   2.947   4.870   7.044 -1.9775  0.8570  1.4408
  183SOPE   C2620927   2.772   4.810   7.146  0.2742  0.0465 -0.0417
  183SOPE   H6R20928   2.764   4.912   7.189 -0.4793  0.6382 -1.5571
  183SOPE   H6S20929   2.667   4.784   7.121 -0.6261  2.1004  1.5081
  183SOPE   C2720930   2.816   4.698   7.243 -0.4138  0.3721 -0.2753
  183SOPE   H7R20931   2.732   4.662   7.306 -2.1671  0.6226 -2.3992
  183SOPE   H7S20932   2.848   4.624   7.167 -2.1064  0.6835 -1.3232
  183SOPE   C2820933   2.947   4.731   7.322 -0.0501 -0.7790 -0.4880
  183SOPE   H8R20934   3.019   4.774   7.249 -0.7382  0.8852 -0.2016
  183SOPE   H8S20935   2.924   4.817   7.388  0.8868 -1.6996  1.0634
  183SOPE   C2920936   3.014   4.614   7.390  0.8641  0.0541  0.2798
  183SOPE   H9120937   3.006   4.519   7.335  0.6369 -0.7038  1.6008
  183SOPE  C21020938   3.058   4.606   7.520  0.3857 -0.2336  0.3587
  183SOPE  H10120939   3.103   4.512   7.555 -0.6591 -0.8714 -0.0056
  183SOPE  C21120940   3.055   4.709   7.622  0.4332 -0.0291 -0.2128
  183SOPE  H11R20941   2.984   4.687   7.705 -0.0645 -1.5283 -1.0144
  183SOPE  H11S20942   3.028   4.810   7.583  0.6907  0.3272  0.5105
  183SOPE  C21220943   3.195   4.726   7.693 -0.1383 -0.3557  0.8543
  183SOPE  H12R20944   3.277   4.727   7.619 -0.2440 -1.3917  0.7124
  183SOPE  H12S20945   3.225   4.629   7.739  0.7910 -0.0150  0.9802
  183SOPE  C21320946   3.209   4.851   7.780 -0.2615 -0.0923  0.8516
  183SOPE  H13R20947   3.110   4.861   7.830 -1.0261 -0.3864 -0.5635
  183SOPE  H13S20948   3.225   4.944   7.721  2.8310 -0.1410  1.5528
  183SOPE  C21420949   3.314   4.836   7.886  0.3242 -0.0253  0.0321
  183SOPE  H14R20950   3.417   4.849   7.847  0.5695  0.9971  0.9697
  183SOPE  H14S20951   3.314   4.743   7.947 -2.2355  0.4923  0.9063
  183SOPE  C21520952   3.293   4.962   7.973  0.3123  0.4525 -0.0615
  183SOPE  H15R20953   3.213   4.944   8.047 -0.7783  2.2273 -0.7713
  183SOPE  H15S20954   3.293   5.049   7.904 -0.4244  1.5283  1.2660
  183SOPE  C21620955   3.413   4.989   8.063 -0.2791  0.2102 -0.2190
  183SOPE  H16R20956   3.471   4.895   8.068  0.0347  0.3235 -1.6949
  183SOPE  H16S20957   3.377   5.014   8.166 -0.3568 -1.6593  0.2172
  183SOPE  C21720958   3.499   5.104   8.021 -0.4491 -0.6616 -0.1898
  183SOPE  H17R20959   3.529   5.084   7.916 -0.9161 -1.2800 -0.2056
  183SOPE  H17S20960   3.591   5.097   8.085 -0.8236 -0.9726  0.3206
  183SOPE  C21820961   3.434   5.244   8.042  0.0462 -0.2725  0.2061
  183SOPE  H18R20962   3.516   5.317   8.025  0.6555 -1.0638 -0.3251
  183SOPE  H18S20963   3.405   5.257   8.148 -2.8497  0.1286 -0.5799
  183SOPE  H18T20964   3.348   5.267   7.975  0.3592 -0.4796 -0.2651
  183SOPE   C3320965   2.345   4.549   7.029  0.4067 -0.1557  0.2814
  183SOPE   H3X20966   2.250   4.606   7.026  0.6594  0.3245  1.2770
  183SOPE   H3Y20967   2.414   4.607   6.964 -1.0847  2.3360  0.8559
  183SOPE   C3420968   2.383   4.569   7.177 -0.4604 -0.1932 -0.3338
  183SOPE   H4X20969   2.491   4.545   7.186 -0.6446 -0.7552  0.4459
  183SOPE   H4Y20970   2.327   4.498   7.242  0.3360 -0.5027  0.0304
  183SOPE   C3520971   2.356   4.712   7.233  1.0459  0.3119 -0.4969
  183SOPE   H5X20972   2.246   4.727   7.238  1.0560  0.1939  0.2485
  183SOPE   H5Y20973   2.390   4.781   7.154  0.3865  0.9287 -0.2495
  183SOPE   C3620974   2.417   4.747   7.370 -0.1460 -0.0289 -0.2149
  183SOPE   H6X20975   2.383   4.839   7.422 -0.1258 -0.3227  0.3260
  183SOPE   H6Y20976   2.528   4.753   7.366 -0.2140  2.9985  1.3001
  183SOPE   C3720977   2.392   4.629   7.462  0.5611 -0.1361  0.3984
  183SOPE   H7X20978   2.449   4.543   7.419 -2.2468 -1.1793 -1.3292
  183SOPE   H7Y20979   2.284   4.606   7.470  0.4410  0.7257  1.2955
  183SOPE   C3820980   2.425   4.659   7.610 -0.1187 -0.6169 -0.1256
  183SOPE   H8X20981   2.399   4.573   7.675 -0.2580 -0.4573  0.0308
  183SOPE   H8Y20982   2.369   4.750   7.640  0.5557 -1.0645  2.6955
  183SOPE   C3920983   2.570   4.690   7.644 -0.3724 -0.2411 -0.5091
  183SOPE   H9X20984   2.605   4.783   7.594  1.7707 -0.7152  0.0790
  183SOPE   H9Y20985   2.634   4.606   7.606  1.0663 -0.0380  1.4180
  183SOPE  C31020986   2.606   4.708   7.789  0.2331  0.2290  0.2412
  183SOPE  H10X20987   2.708   4.753   7.791 -0.4393  1.7353  1.2597
  183SOPE  H10Y20988   2.590   4.612   7.842 -0.2129  0.1061 -0.1138
  183SOPE  C31120989   2.514   4.820   7.860  0.2810 -0.5922  0.1822
  183SOPE  H11X20990   2.413   4.776   7.856  0.4089 -0.8650 -0.0393
  183SOPE  H11Y20991   2.503   4.911   7.798  0.3237 -0.1513  0.8186
  183SOPE  C31220992   2.552   4.847   8.007  1.1254 -0.0331  0.5830
  183SOPE  H12X20993   2.643   4.909   7.988  1.0777  0.0888  0.7571
  183SOPE  H12Y20994   2.571   4.750   8.057  1.5302 -0.1646  0.1852
  183SOPE  C31320995   2.455   4.942   8.078 -0.3586  0.0745  0.2412
  183SOPE  H13X20996   2.446   5.026   8.006  1.9506 -0.4442 -0.6951
  183SOPE  H13Y20997   2.512   4.973   8.168 -1.5085  0.6494  0.7846
  183SOPE  C31420998   2.314   4.888   8.115 -0.4708  0.3469  0.0958
  183SOPE  H14X20999   2.346   4.811   8.188  0.2649 -1.5161 -2.1525
  183SOPE  H14Y21000   2.264   4.832   8.033  1.8561  0.5697 -1.5287
  183SOPE  C31521001   2.217   5.000   8.159 -0.1243  0.5520  0.7376
  183SOPE  H15X21002   2.209   5.070   8.073 -1.4783 -0.0285  0.3861
  183SOPE  H15Y21003   2.259   5.056   8.245  1.8938 -1.0399  0.8127
  183SOPE  C31621004   2.085   4.932   8.204 -0.6626  0.1296  0.0819
  183SOPE  H16X21005   2.102   4.842   8.266  0.5270  1.0284  1.0679
  183SOPE  H16Y21006   2.030   4.895   8.115  1.0340  1.0850 -1.3979
  183SOPE  C31721007   2.001   5.034   8.292 -0.0196 -0.5279  1.2265
  183SOPE  H17X21008   2.060   5.067   8.380  4.0627 -0.2164 -1.4937
  183SOPE  H17Y21009   1.910   4.989   8.337  0.5747 -1.3635  1.6027
  183SOPE  C31821010   1.948   5.151   8.209 -0.1345 -0.3671 -0.3807
  183SOPE  H18X21011   2.022   5.193   8.138 -0.6007  1.6924  0.3253
  183SOPE  H18Y21012   1.908   5.238   8.265  0.1086 -0.3303 -0.2621
  183SOPE  H18Z21013   1.855   5.121   8.156  0.0668  0.0264 -0.9528
  184SOPE     N21014   1.906   5.375   6.180 -0.2405  0.4917  0.2097
  184SOPE   HN121015   1.901   5.476   6.156  0.8951  0.8423  1.3943
  184SOPE   HN221016   1.839   5.358   6.258 -1.0783  2.6742 -0.0166
  184SOPE   HN321017   2.000   5.348   6.213 -1.1069 -2.6608  0.2771
  184SOPE   C1221018   1.868   5.278   6.071 -0.2688 -0.2044  0.5836
  184SOPE  H12A21019   1.961   5.259   6.013 -0.0043  2.4773  0.0751
  184SOPE  H12B21020   1.791   5.334   6.015 -0.8082 -1.7326 -0.2294
  184SOPE   C1121021   1.815   5.143   6.121  0.4857  0.5235  0.0214
  184SOPE  H11A21022   1.794   5.086   6.028  1.2814 -0.0847  0.2085
  184SOPE  H11B21023   1.729   5.158   6.189 -0.4097 -2.2687 -0.4409
  184SOPE     P21024   1.929   4.915   6.205 -0.2339 -0.0997  0.2065
  184SOPE   O1321025   2.057   4.899   6.132  0.3613 -0.4690  0.2020
  184SOPE   O1421026   1.808   4.845   6.158  0.1383  0.2817 -0.9851
  184SOPE   O1221027   1.902   5.078   6.211  0.2330 -0.3310 -0.2258
  184SOPE   O1121028   1.957   4.888   6.356  0.6182  0.1628  0.1823
  184SOPE    C121029   1.837   4.886   6.441 -0.7695 -0.0195 -0.8753
  184SOPE    HA21030   1.789   4.785   6.444  3.4134 -2.0792  2.5710
  184SOPE    HB21031   1.758   4.956   6.405  0.0962  0.3084 -2.1660
  184SOPE    C221032   1.876   4.927   6.586  0.1465  0.3221  0.3173
  184SOPE    HS21033   1.946   5.014   6.581  0.9406 -0.3093  0.4627
  184SOPE   O2121034   1.942   4.817   6.654 -0.0188  0.5933 -0.5613
  184SOPE   C2121035   2.048   4.859   6.731  0.1290  0.6516 -0.4273
  184SOPE   O2221036   2.086   4.978   6.735 -0.7854  0.0460 -0.3502
  184SOPE   C2221037   2.116   4.739   6.796 -0.4138 -0.1789 -0.7330
  184SOPE   H2R21038   2.189   4.788   6.865 -3.1683  0.8867  1.5225
  184SOPE   H2S21039   2.167   4.679   6.718  1.4557  0.2891  0.0946
  184SOPE    C321040   1.748   4.970   6.667  1.0030  0.1665 -0.2661
  184SOPE    HX21041   1.692   4.879   6.695  1.2563  0.7617  2.3247
  184SOPE    HY21042   1.685   5.034   6.601  0.0544 -0.5265 -0.0416
  184SOPE   O3121043   1.787   5.046   6.782  0.2296 -0.0642  0.1259
  184SOPE   C3121044   1.806   5.181   6.770 -0.5062 -0.2340 -0.1026
  184SOPE   O3221045   1.797   5.244   6.664  0.4240  0.0540  0.0009
  184SOPE   C3221046   1.850   5.236   6.911  0.4298 -0.5752 -0.5129
  184SOPE   H2X21047   1.910   5.324   6.881 -0.5076 -0.9307 -3.5429
  184SOPE   H2Y21048   1.912   5.161   6.966  0.1740 -0.5551 -0.1993
  184SOPE   C2321049   2.018   4.648   6.873 -0.0538 -0.5369  0.2285
  184SOPE   H3R21050   2.064   4.578   6.945  0.1476  0.0434  0.6634
  184SOPE   H3S21051   1.962   4.600   6.789  2.2652 -0.6250 -1.3155
  184SOPE   C2421052   1.927   4.727   6.968 -0.5157  0.2810  0.3983
  184SOPE   H4R21053   1.886   4.815   6.914  1.3163  2.4947  2.5217
  184SOPE   H4S21054   1.849   4.657   7.006 -2.2286  0.4957 -2.5337
  184SOPE   C2521055   1.996   4.782   7.094  0.3343 -0.2547 -0.2283
  184SOPE   H5R21056   2.064   4.710   7.145  1.3904 -1.1135 -2.7446
  184SOPE   H5S21057   2.063   4.857   7.046  1.6988 -1.2815  0.0322
  184SOPE   C2621058   1.905   4.849   7.191 -0.2965  0.3765 -0.3399
  184SOPE   H6R21059   1.956   4.930   7.248  0.5956 -1.1718  1.1287
  184SOPE   H6S21060   1.832   4.912   7.136  0.4880  1.9639  0.3977
  184SOPE   C2721061   1.857   4.758   7.302 -0.2326 -1.2646  0.5172
  184SOPE   H7R21062   1.777   4.804   7.364  1.4189  1.7749  0.4641
  184SOPE   H7S21063   1.801   4.676   7.252 -0.6941 -0.2183 -0.7057
  184SOPE   C2821064   1.965   4.693   7.396  0.6682 -0.0319  0.2634
  184SOPE   H8R21065   1.915   4.611   7.453  0.0958 -1.1211 -1.7540
  184SOPE   H8S21066   2.038   4.629   7.342 -0.8824 -1.9629  0.3888
  184SOPE   C2921067   2.045   4.786   7.486  0.4477 -0.7518 -0.7891
  184SOPE   H9121068   2.099   4.863   7.429 -1.4211  0.6068 -0.8031
  184SOPE  C21021069   2.059   4.761   7.618 -0.0499 -0.8829  0.2100
  184SOPE  H10121070   2.117   4.836   7.675 -0.9219 -1.6888  2.2177
  184SOPE  C21121071   1.995   4.656   7.697  0.5622 -0.3481 -0.1865
  184SOPE  H11R21072   1.907   4.608   7.651 -0.6501  0.8792  0.8097
  184SOPE  H11S21073   1.952   4.709   7.785  1.3430 -0.3387  0.2025
  184SOPE  C21221074   2.082   4.541   7.753 -0.1333  0.4444  0.6854
  184SOPE  H12R21075   2.148   4.496   7.675 -0.0642 -1.6009  1.9038
  184SOPE  H12S21076   2.006   4.464   7.774 -0.8361  1.0692  0.4400
  184SOPE  C21321077   2.152   4.576   7.883  0.3727 -0.1059 -0.2276
  184SOPE  H13R21078   2.075   4.607   7.957 -0.1566 -3.5121  0.7561
  184SOPE  H13S21079   2.221   4.661   7.867  1.3302 -0.6224  1.1151
  184SOPE  C21421080   2.244   4.466   7.954 -0.1034 -0.5039  0.4867
  184SOPE  H14R21081   2.322   4.437   7.880  1.0097  4.4721 -0.4539
  184SOPE  H14S21082   2.183   4.376   7.977 -1.4511  0.4950  0.9194
  184SOPE  C21521083   2.305   4.523   8.085 -0.3688 -0.6657  0.1469
  184SOPE  H15R21084   2.349   4.623   8.067  0.2542 -0.9697 -0.0679
  184SOPE  H15S21085   2.383   4.449   8.114  0.2528 -0.9337 -2.0678
  184SOPE  C21621086   2.218   4.547   8.216 -0.1491 -0.1331  0.7967
  184SOPE  H16R21087   2.158   4.456   8.237 -0.0478 -0.8291 -1.7352
  184SOPE  H16S21088   2.149   4.633   8.205 -0.2245 -0.4602 -1.5582
  184SOPE  C21721089   2.295   4.577   8.344  0.6956 -0.3558 -0.6532
  184SOPE  H17R21090   2.221   4.618   8.416  2.1261 -0.4936  0.9382
  184SOPE  H17S21091   2.369   4.659   8.326  0.5949 -0.0363  0.3691
  184SOPE  C21821092   2.374   4.466   8.408  0.3709 -0.3783 -0.4043
  184SOPE  H18R21093   2.453   4.514   8.469  0.3430 -0.1046 -0.5854
  184SOPE  H18S21094   2.428   4.398   8.339 -0.9607 -0.1957 -1.6528
  184SOPE  H18T21095   2.310   4.400   8.471  0.3564  0.1015  0.0924
  184SOPE   C3321096   1.727   5.265   6.997  0.5011 -0.0581 -0.4983
  184SOPE   H3X21097   1.667   5.171   7.007  2.0386 -0.9566  0.4614
  184SOPE   H3Y21098   1.651   5.338   6.961 -1.5048 -1.1416  1.3800
  184SOPE   C3421099   1.770   5.302   7.138  0.0473 -0.3214 -0.0767
  184SOPE   H4X21100   1.755   5.411   7.153 -0.7713 -0.3709 -0.4800
  184SOPE   H4Y21101   1.878   5.279   7.151  0.6747  1.3611 -2.0714
  184SOPE   C3521102   1.705   5.204   7.239 -0.4022 -0.7770 -0.4657
  184SOPE   H5X21103   1.721   5.099   7.206 -1.3875 -1.0314 -0.1344
  184SOPE   H5Y21104   1.595   5.218   7.232 -0.4804 -1.1157  0.0128
  184SOPE   C3621105   1.752   5.241   7.381 -0.2131  0.0956  1.0296
  184SOPE   H6X21106   1.667   5.210   7.446  0.0043 -0.0876  1.2259
  184SOPE   H6Y21107   1.758   5.352   7.383  0.4193  0.0358  3.1950
  184SOPE   C3721108   1.886   5.193   7.424 -0.5213  0.6037  0.1753
  184SOPE   H7X21109   1.952   5.230   7.343 -1.2557 -0.7899 -1.0830
  184SOPE   H7Y21110   1.884   5.082   7.428  0.5799  0.3663 -3.8189
  184SOPE   C3821111   1.936   5.252   7.557  0.0956 -0.2456  0.3258
  184SOPE   H8X21112   1.928   5.362   7.551 -0.4433 -0.3033  0.0297
  184SOPE   H8Y21113   2.040   5.214   7.575  1.4388  2.4663 -1.4703
  184SOPE   C3921114   1.854   5.206   7.685 -0.2662  0.6829 -0.1712
  184SOPE   H9X21115   1.857   5.096   7.700  0.0408  0.7166  0.0168
  184SOPE   H9Y21116   1.748   5.226   7.661 -0.1091  0.1258 -1.4116
  184SOPE  C31021117   1.885   5.294   7.813 -0.6276  0.0669 -0.0416
  184SOPE  H10X21118   1.922   5.391   7.775  1.2041 -0.1798  1.0538
  184SOPE  H10Y21119   1.967   5.239   7.864 -0.3371  1.2198  0.7448
  184SOPE  C31121120   1.774   5.299   7.924 -0.0631  0.3146  0.3033
  184SOPE  H11X21121   1.768   5.201   7.976 -1.7846 -0.7563 -1.8528
  184SOPE  H11Y21122   1.677   5.299   7.870 -0.8561  0.9040  1.6960
  184SOPE  C31221123   1.791   5.423   8.004  0.2751 -0.5440 -0.2142
  184SOPE  H12X21124   1.762   5.501   7.930 -1.2701 -2.2023 -1.3960
  184SOPE  H12Y21125   1.897   5.444   8.032 -0.4021  1.2860  1.0067
  184SOPE  C31321126   1.702   5.439   8.129  0.6650  0.0495 -0.6072
  184SOPE  H13X21127   1.727   5.372   8.213  1.8893  2.3371  0.8866
  184SOPE  H13Y21128   1.594   5.420   8.106  0.0588 -0.3114  2.3893
  184SOPE  C31421129   1.688   5.585   8.185 -0.6364 -0.4648 -0.1271
  184SOPE  H14X21130   1.612   5.643   8.128 -1.0871 -0.5373  0.3961
  184SOPE  H14Y21131   1.788   5.634   8.183  0.6131 -2.8970 -2.9292
  184SOPE  C31521132   1.654   5.580   8.340  0.0953 -0.1902 -0.7235
  184SOPE  H15X21133   1.731   5.513   8.383  0.0993  0.1385 -0.2242
  184SOPE  H15Y21134   1.557   5.534   8.371 -0.2920 -0.2208 -1.9489
  184SOPE  C31621135   1.658   5.714   8.412  0.6697 -0.2043  0.1685
  184SOPE  H16X21136   1.596   5.785   8.352  2.0639 -2.2815 -3.9132
  184SOPE  H16Y21137   1.765   5.740   8.407  1.0871 -1.9910 -0.7823
  184SOPE  C31721138   1.629   5.702   8.560  0.6663 -0.7632 -0.5357
  184SOPE  H17X21139   1.694   5.624   8.606  0.3770 -0.8545 -0.2757
  184SOPE  H17Y21140   1.527   5.664   8.582 -0.5001  2.6068  0.1824
  184SOPE  C31821141   1.641   5.838   8.639 -0.9943  0.0979 -0.0551
  184SOPE  H18X21142   1.575   5.909   8.584 -3.2882 -1.3245  0.7609
  184SOPE  H18Y21143   1.747   5.870   8.642 -1.3827  1.2741  1.6718
  184SOPE  H18Z21144   1.601   5.816   8.741 -2.8837 -1.9686 -1.1771
  185SAPI   C1221145   4.054   2.208  11.283 -0.6973 -0.5876 -0.2913
  185SAPI    H221146   4.019   2.313  11.273  1.5006 -0.0206 -2.4255
  185SAPI    O221147   4.154   2.219  11.386  0.0472 -0.5388 -0.6800
  185SAPI   HO221148   4.175   2.313  11.390  0.8360 -0.7961  2.9566
  185SAPI   C1321149   3.943   2.120  11.333  0.7020  0.6901 -0.5049
  185SAPI    H321150   3.872   2.107  11.248 -0.0198 -0.8017  0.3102
  185SAPI    O321151   3.865   2.177  11.442  0.2814 -0.0440 -0.3619
  185SAPI   HO321152   3.928   2.235  11.486 -0.7796  0.7658  0.1200
  185SAPI   C1421153   3.999   1.982  11.355  0.9382 -0.0208  0.0291
  185SAPI    H421154   4.078   2.004  11.431  1.0437 -0.2035 -0.0293
  185SAPI    O421155   3.907   1.890  11.412  0.2757 -0.1313  0.2697
  185SAPI   HO421156   3.895   1.808  11.363  1.1783 -1.3733  2.0566
  185SAPI   C1521157   4.059   1.925  11.226  0.0275  0.5193  0.2412
  185SAPI    H521158   3.974   1.913  11.156 -0.9165  0.9885  1.2988
  185SAPI    O521159   4.125   1.795  11.243 -0.1228 -0.8566 -0.2281
  185SAPI   HO521160   4.139   1.759  11.155 -0.8563  1.5228 -1.3726
  185SAPI   C1621161   4.158   2.021  11.160  0.1794  0.1932 -0.1202
  185SAPI    H621162   4.247   2.030  11.226  1.1059 -0.9049 -1.1877
  185SAPI    O621163   4.189   1.975  11.029 -0.2540  0.2907  0.8369
  185SAPI   HO621164   4.235   2.048  10.987 -1.8870  0.2124 -1.1505
  185SAPI   C1121165   4.107   2.169  11.145 -0.2228 -0.5341  1.0467
  185SAPI    H121166   4.028   2.156  11.068 -0.5447  0.4321  1.2184
  185SAPI     P21167   4.167   2.380  10.986  0.5443  0.0644 -0.1471
  185SAPI   O1321168   4.277   2.483  10.987  0.4486 -0.1029 -0.2818
  185SAPI   O1421169   4.034   2.433  11.016  0.4059  0.0074 -0.3733
  185SAPI   O1221170   4.211   2.263  11.100  0.0375  0.6252  0.2383
  185SAPI   O1121171   4.172   2.299  10.851 -0.1361 -0.4051 -0.7452
  185SAPI    C121172   4.060   2.247  10.790  0.3653  0.0439  0.2013
  185SAPI    HA21173   4.045   2.140  10.815  1.4718  0.0327  0.8223
  185SAPI    HB21174   3.966   2.297  10.821  1.1204  0.7283  1.4532
  185SAPI    C221175   4.053   2.244  10.633 -0.0662 -0.3230  0.3218
  185SAPI    HS21176   3.965   2.179  10.615  1.1412 -2.1326  0.9196
  185SAPI   O2121177   4.178   2.206  10.563 -0.3012 -0.1826 -0.1064
  185SAPI   C2121178   4.187   2.077  10.540  0.0752  0.4241  0.1702
  185SAPI   O2221179   4.107   1.992  10.585 -0.3688 -0.1096 -0.1271
  185SAPI   C2221180   4.298   2.052  10.442 -0.6919 -0.5319  0.4993
  185SAPI   H2R21181   4.373   2.132  10.461  0.9580 -2.6176  3.0712
  185SAPI   H2S21182   4.337   1.949  10.453 -1.2875 -0.6515  1.6127
  185SAPI    C321183   4.022   2.388  10.587  0.2241  0.2114 -0.1012
  185SAPI    HX21184   4.100   2.449  10.637  1.4681 -0.3046 -1.3880
  185SAPI    HY21185   3.925   2.411  10.636  0.2266  0.9266 -0.4177
  185SAPI   O3121186   4.028   2.406  10.449  0.9949  0.2216  1.1298
  185SAPI   C3121187   3.928   2.357  10.375 -1.1016  0.2338  0.1176
  185SAPI   O3221188   3.834   2.296  10.416  0.4110  0.5703  0.1304
  185SAPI   C3221189   3.948   2.389  10.230  0.3491 -0.5849  0.0094
  185SAPI   H2X21190   4.047   2.342  10.214  0.0721 -2.0044  2.2793
  185SAPI   H2Y21191   3.946   2.500  10.225  0.4964 -0.5160  1.4055
  185SAPI   C2321192   4.231   2.072  10.299  0.0671 -0.3498  0.0087
  185SAPI   H3R21193   4.172   2.166  10.291 -0.2047 -0.7590 -3.8913
  185SAPI   H3S21194   4.157   1.989  10.294  0.6821 -0.8171 -1.8515
  185SAPI   C2421195   4.324   2.061  10.182  0.2726 -0.4436 -0.1831
  185SAPI   H4R21196   4.273   1.988  10.115 -3.4851  2.7228 -0.9912
  185SAPI   H4S21197   4.416   2.009  10.216  0.9810  0.6140 -0.4301
  185SAPI   C2521198   4.362   2.181  10.112 -0.0008  0.1277  0.4188
  185SAPI   H5R21199   4.377   2.272  10.172  2.2988 -0.1148  0.2531
  185SAPI   C2621200   4.386   2.180   9.982  0.2555 -0.4753  0.1519
  185SAPI   H6R21201   4.405   2.272   9.924  0.1732 -0.8243 -0.4318
  185SAPI   C2721202   4.380   2.057   9.894  0.8014 -0.6168 -0.0314
  185SAPI   H7R21203   4.420   1.968   9.947  0.8829  0.5661  1.9486
  185SAPI   H7S21204   4.452   2.064   9.810 -0.3124 -0.8656 -1.0294
  185SAPI   C2821205   4.256   2.002   9.827 -0.0869  0.6518 -0.2432
  185SAPI   H8R21206   4.186   1.959   9.900 -0.4526  0.8504 -0.4778
  185SAPI   C2921207   4.224   2.014   9.701  0.2750  0.8486  0.3543
  185SAPI   H9R21208   4.144   1.948   9.663  0.4744  1.6115 -1.4363
  185SAPI  C21021209   4.297   2.092   9.592  0.4119 -0.1685 -0.0918
  185SAPI  H10R21210   4.381   2.157   9.623 -0.4517  1.7200 -1.6172
  185SAPI  H10S21211   4.219   2.154   9.543  0.1285 -0.7647 -0.3919
  185SAPI  C21121212   4.365   2.005   9.490 -0.1763 -0.5134  0.7583
  185SAPI  H11R21213   4.471   1.994   9.517  0.5523  3.2091 -0.2741
  185SAPI  C21221214   4.325   1.955   9.370 -0.0261  0.2496  0.0468
  185SAPI  H12R21215   4.401   1.894   9.321 -0.0588 -1.6541  2.2473
  185SAPI  C21321216   4.178   1.966   9.311 -0.2312 -0.2130  0.2929
  185SAPI  H13R21217   4.179   1.964   9.200  1.7660  0.0807  0.2906
  185SAPI  H13S21218   4.141   2.066   9.343 -0.2517  0.3892 -1.5350
  185SAPI  C21421219   4.084   1.856   9.358  0.2690  0.0901 -0.4130
  185SAPI  H14R21220   4.090   1.817   9.461  0.0191 -2.1333 -1.2034
  185SAPI  C21521221   3.984   1.803   9.280 -0.1933 -0.3710  0.5681
  185SAPI  H15R21222   3.911   1.741   9.335  0.2875 -1.4081  0.0382
  185SAPI  C21621223   3.944   1.839   9.135 -0.1543 -0.3564  0.5000
  185SAPI  H16R21224   3.940   1.949   9.129 -0.6072 -0.2678  2.0965
  185SAPI  H16S21225   3.838   1.806   9.121  0.0993 -1.6856  1.5909
  185SAPI  C21721226   4.015   1.776   9.016  0.1674  0.0582 -0.6235
  185SAPI  H17R21227   4.123   1.793   9.037 -0.1955 -0.6277  1.9268
  185SAPI  H17S21228   3.990   1.832   8.923 -0.6095  1.5516  0.4840
  185SAPI  C21821229   3.979   1.624   8.998  0.3259 -0.0677  0.0084
  185SAPI  H18R21230   3.876   1.615   8.959  0.4079  1.2251 -0.5421
  185SAPI  H18S21231   3.983   1.582   9.101  2.6022  0.1724  0.0421
  185SAPI  C21921232   4.065   1.552   8.904 -0.1914 -0.1155  0.1315
  185SAPI  H19R21233   4.037   1.445   8.896  0.1311 -0.3308  1.5473
  185SAPI  H19S21234   4.170   1.546   8.942  0.4779 -1.1332 -1.8298
  185SAPI  C22021235   4.078   1.623   8.772  0.0606  0.0014  0.4897
  185SAPI  H20R21236   4.152   1.705   8.779  0.9202 -0.4634 -2.2751
  185SAPI  H20S21237   3.977   1.659   8.745  0.9383  2.4930  0.4393
  185SAPI  H20T21238   4.125   1.552   8.700 -0.5107 -0.4076  0.5195
  185SAPI   C3321239   3.848   2.319  10.132  0.0725  0.5810 -0.1980
  185SAPI   H3X21240   3.746   2.363  10.123 -0.7455 -0.2570  4.1753
  185SAPI   H3Y21241   3.839   2.210  10.151 -0.0913  1.2793  4.0894
  185SAPI   C3421242   3.907   2.307   9.988 -0.0159  0.1252  0.9271
  185SAPI   H4X21243   4.014   2.276   9.989  0.1075  0.5541  0.9859
  185SAPI   H4Y21244   3.900   2.414   9.962  0.4067 -0.1788 -0.5020
  185SAPI   C3521245   3.815   2.230   9.894 -0.0819  0.0814 -0.3407
  185SAPI   H5X21246   3.706   2.248   9.899 -0.0973  0.2371 -1.1887
  185SAPI   H5Y21247   3.830   2.128   9.937  2.5804 -0.3080 -2.0811
  185SAPI   C3621248   3.868   2.233   9.753  0.5147 -0.7570  0.5898
  185SAPI   H6X21249   3.978   2.224   9.750  0.5940 -1.1462  3.4172
  185SAPI   H6Y21250   3.853   2.332   9.703  2.0897 -2.2009 -2.8714
  185SAPI   C3721251   3.803   2.133   9.660 -1.0317  0.0010  0.5053
  185SAPI   H7X21252   3.696   2.117   9.687 -1.1936  0.8383  0.3701
  185SAPI   H7Y21253   3.851   2.035   9.678  1.8548  1.0383 -1.1606
  185SAPI   C3821254   3.819   2.146   9.506  0.6404 -0.0981 -0.2496
  185SAPI   H8X21255   3.926   2.138   9.477  0.9707  0.3818  0.8018
  185SAPI   H8Y21256   3.798   2.252   9.477 -0.0451 -0.0156  0.5091
  185SAPI   C3921257   3.724   2.055   9.435 -0.4018  0.5446  0.4245
  185SAPI   H9X21258   3.627   2.059   9.490 -0.0191  1.4253  1.0553
  185SAPI   H9Y21259   3.764   1.953   9.457  0.5867  0.8038 -0.1830
  185SAPI  C31021260   3.700   2.076   9.284  0.0596 -0.0136  0.4871
  185SAPI  H10X21261   3.671   1.981   9.235  0.1703 -0.6712  1.6770
  185SAPI  H10Y21262   3.799   2.097   9.239 -0.5758  3.3313  0.4612
  185SAPI  C31121263   3.581   2.173   9.251  0.4511 -0.5783  0.3524
  185SAPI  H11X21264   3.598   2.270   9.303  0.7285  0.8223 -2.3099
  185SAPI  H11Y21265   3.488   2.123   9.286  2.1218 -2.7749  1.8151
  185SAPI  C31221266   3.570   2.210   9.105  0.0337  0.7908 -0.4057
  185SAPI  H12X21267   3.654   2.281   9.087 -0.3256  1.1794 -0.5492
  185SAPI  H12Y21268   3.472   2.260   9.094  0.0948  1.1558  0.6522
  185SAPI  C31321269   3.573   2.093   9.000 -0.0252  0.1543 -0.1143
  185SAPI  H13X21270   3.519   2.002   9.035 -0.8059  0.1508 -1.2821
  185SAPI  H13Y21271   3.681   2.068   8.999  0.3546  1.7257  1.0089
  185SAPI  C31421272   3.528   2.129   8.863 -0.1318  0.5106  0.8850
  185SAPI  H14X21273   3.580   2.220   8.824  0.0550 -1.4049 -3.6654
  185SAPI  H14Y21274   3.418   2.142   8.865 -0.4202 -0.6622 -3.4130
  185SAPI  C31521275   3.586   2.033   8.759 -1.1537 -0.4298 -0.9990
  185SAPI  H15X21276   3.695   2.053   8.753 -1.5155  0.9924 -3.4407
  185SAPI  H15Y21277   3.547   2.068   8.661 -1.6307  0.5696 -0.4588
  185SAPI  C31621278   3.539   1.888   8.772  0.2994 -0.3745  0.3377
  185SAPI  H16X21279   3.428   1.896   8.778  0.3868 -0.1845  1.8512
  185SAPI  H16Y21280   3.583   1.842   8.863 -0.6696 -0.1961  0.9130
  185SAPI  C31721281   3.570   1.806   8.643 -0.2256 -0.3706 -0.7769
  185SAPI  H17X21282   3.677   1.776   8.647 -0.7444 -2.1390  1.3642
  185SAPI  H17Y21283   3.551   1.864   8.551 -0.9725 -0.8979 -0.9651
  185SAPI  C31821284   3.477   1.683   8.629  0.2394  0.2753  0.2674
  185SAPI  H18X21285   3.371   1.711   8.611 -0.3625 -2.7964 -1.3912
  185SAPI  H18Y21286   3.474   1.619   8.719  1.3442  1.2046  0.9869
  185SAPI  H18Z21287   3.501   1.629   8.534 -0.1074  1.7947 -0.7145
  186SAPI   C1221288   4.017   6.698  10.656 -0.3363 -0.3641  0.2330
  186SAPI    H221289   4.059   6.679  10.555  1.8022  1.8395  0.6713
  186SAPI    O221290   3.915   6.801  10.643 -0.3412  0.2509  0.0076
  186SAPI   HO221291   3.873   6.781  10.559 -0.3228 -1.1532  0.3240
  186SAPI   C1321292   3.953   6.562  10.697 -0.0028  0.3609  0.0722
  186SAPI    H321293   4.042   6.495  10.702  1.3829  2.1041 -0.4534
  186SAPI    O321294   3.850   6.516  10.607  0.5235  0.2845 -0.9250
  186SAPI   HO321295   3.775   6.576  10.608  2.0938  2.2835 -0.0506
  186SAPI   C1421296   3.905   6.578  10.844 -0.4619  0.2109 -0.3778
  186SAPI    H421297   3.832   6.662  10.850 -1.1346 -0.2526 -1.8694
  186SAPI    O421298   3.834   6.456  10.893 -0.0947 -0.4062  0.5456
  186SAPI   HO421299   3.892   6.381  10.878  0.7191  0.6341 -1.7473
  186SAPI   C1521300   4.020   6.620  10.935  0.2895 -0.1927  0.2001
  186SAPI    H521301   4.088   6.533  10.932  1.9193  1.0854 -0.5210
  186SAPI    O521302   3.979   6.632  11.068 -0.2073  0.0300 -0.1792
  186SAPI   HO521303   4.028   6.570  11.123  0.0362 -0.5573 -1.0500
  186SAPI   C1621304   4.084   6.747  10.883  0.3273 -0.6568  0.4780
  186SAPI    H621305   4.010   6.829  10.893  0.6943 -0.1621 -0.7921
  186SAPI    O621306   4.199   6.774  10.965  0.0031  0.0101 -0.2543
  186SAPI   HO621307   4.256   6.834  10.916 -0.1487 -0.6433 -1.2467
  186SAPI   C1121308   4.137   6.739  10.742  0.1226  0.1345  0.4451
  186SAPI    H121309   4.202   6.650  10.743  1.0898  0.8387  0.5150
  186SAPI     P21310   4.363   6.852  10.642  0.3083  0.3671 -0.1821
  186SAPI   O1321311   4.432   6.737  10.702 -0.6261  0.0265  0.0658
  186SAPI   O1421312   4.430   6.983  10.652  0.0918  0.2270 -0.0906
  186SAPI   O1221313   4.210   6.853  10.701  0.8012 -0.0410 -0.0578
  186SAPI   O1121314   4.326   6.823  10.497  0.1886 -0.3943  0.2023
  186SAPI    C121315   4.414   6.747  10.418 -0.2917 -0.6092  0.3325
  186SAPI    HA21316   4.449   6.659  10.477 -0.7358  0.1731  1.7917
  186SAPI    HB21317   4.358   6.719  10.327  0.6633  0.3535 -0.5616
  186SAPI    C221318   4.541   6.827  10.359  0.1318  0.2179  0.0948
  186SAPI    HS21319   4.613   6.823  10.443 -1.3994 -0.6049  1.4071
  186SAPI   O2121320   4.507   6.968  10.333 -0.4496  0.6805 -0.5005
  186SAPI   C2121321   4.600   7.041  10.298  0.6393 -0.0232 -0.2500
  186SAPI   O2221322   4.720   7.009  10.299  0.0744 -0.1467 -0.1212
  186SAPI   C2221323   4.557   7.178  10.253  0.1610  0.7904 -0.5781
  186SAPI   H2R21324   4.545   7.245  10.341 -0.1472 -1.3530  1.0593
  186SAPI   H2S21325   4.649   7.213  10.201  1.3910 -0.5787  0.6409
  186SAPI    C321326   4.580   6.750  10.233 -0.1593 -0.9665 -0.7958
  186SAPI    HX21327   4.676   6.782  10.187 -0.0870  1.3441  0.8641
  186SAPI    HY21328   4.497   6.774  10.164 -0.0175 -1.4172 -1.1268
  186SAPI   O3121329   4.570   6.604  10.250  0.4255  0.1832 -0.2348
  186SAPI   C3121330   4.665   6.566  10.338 -0.1196  0.4512  0.2126
  186SAPI   O3221331   4.746   6.637  10.392  0.3452  0.6008  0.2316
  186SAPI   C3221332   4.666   6.414  10.360  0.3484  0.0856 -0.3584
  186SAPI   H2X21333   4.577   6.369  10.311  0.7574 -1.6126  0.4257
  186SAPI   H2Y21334   4.644   6.392  10.466  0.3627 -1.1864 -0.6147
  186SAPI   C2321335   4.427   7.179  10.171 -0.3402  0.2109 -0.1018
  186SAPI   H3R21336   4.377   7.276  10.196  0.6562  0.4253  1.1147
  186SAPI   H3S21337   4.359   7.099  10.206  2.1099 -2.8072 -2.0741
  186SAPI   C2421338   4.454   7.159  10.018  0.2889  0.0541  0.2531
  186SAPI   H4R21339   4.365   7.132   9.958  1.0521 -0.6954 -0.5619
  186SAPI   H4S21340   4.507   7.063   9.998  2.1215  1.5028 -2.2099
  186SAPI   C2521341   4.501   7.288   9.961  0.6909 -0.8062 -0.4975
  186SAPI   H5R21342   4.457   7.381  10.000  1.7380  0.5852 -2.5212
  186SAPI   C2621343   4.593   7.294   9.864  0.1606  0.0822  0.1830
  186SAPI   H6R21344   4.615   7.393   9.820 -0.6087 -0.2839 -1.0469
  186SAPI   C2721345   4.648   7.176   9.792 -0.6726 -0.8260  0.8341
  186SAPI   H7R21346   4.694   7.104   9.862  0.5367  0.5091  1.4471
  186SAPI   H7S21347   4.728   7.212   9.725 -1.8990 -3.4203 -2.1071
  186SAPI   C2821348   4.541   7.096   9.712  0.8858  0.7567  0.4764
  186SAPI   H8R21349   4.489   7.015   9.764  0.0502  0.7579 -0.3350
  186SAPI   C2921350   4.514   7.115   9.584  0.1248  0.4286  0.6279
  186SAPI   H9R21351   4.442   7.052   9.531 -0.2720  1.1029  0.3630
  186SAPI  C21021352   4.568   7.231   9.507 -0.0926  0.0954  0.8706
  186SAPI  H10R21353   4.661   7.199   9.454 -2.5352 -1.8731 -2.3899
  186SAPI  H10S21354   4.596   7.304   9.586 -0.2602  0.8169  0.2697
  186SAPI  C21121355   4.458   7.294   9.419 -0.1271  0.2921  0.4300
  186SAPI  H11R21356   4.381   7.337   9.485 -0.0878 -0.7914  1.1961
  186SAPI  C21221357   4.446   7.308   9.287 -0.5616 -0.0372  0.1718
  186SAPI  H12R21358   4.355   7.355   9.248  0.3658  0.8982 -0.8942
  186SAPI  C21321359   4.546   7.245   9.184  0.0226 -0.2423 -0.8986
  186SAPI  H13R21360   4.617   7.179   9.238 -0.4462  0.3124  0.4226
  186SAPI  H13S21361   4.606   7.327   9.139  0.6183 -0.0079  0.3032
  186SAPI  C21421362   4.476   7.171   9.087 -0.3352 -0.1067  0.4381
  186SAPI  H14R21363   4.387   7.124   9.131 -0.3663 -0.9059 -0.4574
  186SAPI  C21521364   4.507   7.160   8.951  0.7137 -0.1918 -0.5381
  186SAPI  H15R21365   4.438   7.096   8.894  0.4205  0.3321 -0.7787
  186SAPI  C21621366   4.621   7.218   8.878  0.3799 -0.4178  0.1246
  186SAPI  H16R21367   4.664   7.140   8.812 -0.2252 -1.3717  0.8325
  186SAPI  H16S21368   4.695   7.247   8.955 -1.8523  2.3309  1.3089
  186SAPI  C21721369   4.585   7.333   8.791  0.4291  0.3285 -0.4737
  186SAPI  H17R21370   4.673   7.395   8.765  0.5610  0.3361 -0.0082
  186SAPI  H17S21371   4.532   7.403   8.860  0.7619  0.3753 -0.2652
  186SAPI  C21821372   4.509   7.296   8.669 -0.0024  0.0774  0.9101
  186SAPI  H18R21373   4.412   7.243   8.683 -0.3467  0.4434 -0.0488
  186SAPI  H18S21374   4.574   7.234   8.604 -0.7201  0.3829 -0.1218
  186SAPI  C21921375   4.464   7.419   8.577  0.1120 -0.1700  0.0616
  186SAPI  H19R21376   4.554   7.479   8.554 -0.3304  0.5455  0.1622
  186SAPI  H19S21377   4.385   7.483   8.622  0.2456 -0.5495  0.8407
  186SAPI  C22021378   4.410   7.364   8.437  0.4296  0.4178 -0.1391
  186SAPI  H20R21379   4.479   7.288   8.394  0.7529  0.6093  0.0424
  186SAPI  H20S21380   4.380   7.445   8.368  0.1283  0.3843 -0.0501
  186SAPI  H20T21381   4.327   7.295   8.461  1.4571  0.1107  2.7677
  186SAPI   C3321382   4.795   6.344  10.308 -0.2764  0.0199  0.2441
  186SAPI   H3X21383   4.790   6.238  10.340 -0.3511  0.3480  1.3386
  186SAPI   H3Y21384   4.891   6.383  10.348  0.7089  0.0731 -2.1013
  186SAPI   C3421385   4.803   6.355  10.160 -0.1060  0.7051  0.2600
  186SAPI   H4X21386   4.774   6.458  10.132 -1.7320 -0.0521 -0.8725
  186SAPI   H4Y21387   4.720   6.293  10.122  0.8975 -0.6511  0.2590
  186SAPI   C3521388   4.941   6.320  10.095  0.2899  0.3919  0.2177
  186SAPI   H5X21389   4.989   6.233  10.144 -1.5412 -0.5014  0.4997
  186SAPI   H5Y21390   5.008   6.405  10.120 -1.3907  1.5299  1.0366
  186SAPI   C3621391   4.934   6.307   9.943 -0.2395  0.1678 -0.2429
  186SAPI   H6X21392   4.887   6.391   9.888  0.7037  0.2042 -1.0035
  186SAPI   H6Y21393   4.880   6.213   9.916  0.9352 -0.3574 -0.8106
  186SAPI   C3721394   5.085   6.291   9.893 -0.0159  0.2100 -0.1871
  186SAPI   H7X21395   5.140   6.220   9.958  1.2701 -1.4276 -2.9848
  186SAPI   H7Y21396   5.149   6.382   9.896 -0.9720  0.8743  0.6451
  186SAPI   C3821397   5.112   6.245   9.752 -0.3269 -0.0679  0.1159
  186SAPI   H8X21398   5.062   6.148   9.730  1.2164 -0.2577 -2.6934
  186SAPI   H8Y21399   5.219   6.215   9.742 -0.4955 -0.7042  0.1690
  186SAPI   C3921400   5.070   6.338   9.645  0.1891  0.8100  1.1372
  186SAPI   H9X21401   5.116   6.439   9.652 -0.9699  1.5401 -1.2231
  186SAPI   H9Y21402   4.963   6.361   9.665 -0.4536 -0.1394 -1.0433
  186SAPI  C31021403   5.090   6.282   9.503  0.0749  0.0113 -0.6198
  186SAPI  H10X21404   5.054   6.177   9.499 -0.0838  0.0093  0.6173
  186SAPI  H10Y21405   5.200   6.281   9.492  0.2093 -0.0673  0.6237
  186SAPI  C31121406   5.014   6.343   9.386 -0.2104  0.1133 -0.2436
  186SAPI  H11X21407   5.039   6.450   9.370  1.7932 -0.1903  0.6389
  186SAPI  H11Y21408   4.909   6.333   9.418 -0.6212 -0.3972 -1.7241
  186SAPI  C31221409   5.031   6.271   9.252  1.2009 -0.0052  0.3921
  186SAPI  H12X21410   5.006   6.162   9.254 -0.3833  0.3391 -0.1737
  186SAPI  H12Y21411   5.132   6.297   9.216  0.1981 -0.1968 -2.7267
  186SAPI  C31321412   4.941   6.343   9.143  0.6885  0.1700  0.0310
  186SAPI  H13X21413   4.961   6.452   9.145 -1.2609  0.5360  2.1280
  186SAPI  H13Y21414   4.841   6.349   9.192  0.7560 -0.0782  0.2028
  186SAPI  C31421415   4.922   6.283   9.006  0.5821 -0.8045 -0.4892
  186SAPI  H14X21416   4.888   6.178   9.018  0.8394 -0.9838 -1.2559
  186SAPI  H14Y21417   5.023   6.279   8.961  0.5242  1.1425 -0.8337
  186SAPI  C31521418   4.842   6.370   8.918 -0.5488 -0.1005 -0.0475
  186SAPI  H15X21419   4.893   6.466   8.894  1.2237 -0.8706  0.5160
  186SAPI  H15Y21420   4.745   6.401   8.961 -0.3741  1.7786 -0.9585
  186SAPI  C31621421   4.799   6.304   8.782 -0.4306  0.6360  0.0089
  186SAPI  H16X21422   4.719   6.371   8.743 -1.7199 -0.3432  0.9452
  186SAPI  H16Y21423   4.752   6.205   8.797  1.4398 -0.4700 -1.2790
  186SAPI  C31721424   4.921   6.281   8.693  0.1319 -0.9341  0.3855
  186SAPI  H17X21425   4.983   6.206   8.746 -0.2090  0.0020  2.1293
  186SAPI  H17Y21426   4.965   6.381   8.678 -1.8439 -0.1534 -0.4744
  186SAPI  C31821427   4.899   6.227   8.555  0.8055  0.0615  0.0399
  186SAPI  H18X21428   4.842   6.300   8.493 -0.9766 -1.2466  0.1069
  186SAPI  H18Y21429   4.840   6.133   8.556  2.4267 -1.0354 -2.0883
  186SAPI  H18Z21430   4.994   6.203   8.502 -0.0388  2.5145 -2.7213
  187SAPI   C1221431   1.492   1.022   6.198 -0.4066 -0.9318 -0.3069
  187SAPI    H221432   1.410   1.057   6.264  0.2422  0.3226 -0.1579
  187SAPI    O221433   1.578   0.921   6.256 -0.3855 -0.7951  0.0426
  187SAPI   HO221434   1.609   0.965   6.335 -0.1838 -0.3729 -0.2661
  187SAPI   C1321435   1.419   0.966   6.075  0.0882 -0.4346  0.0436
  187SAPI    H321436   1.347   1.038   6.030 -0.4325  0.3438  2.0422
  187SAPI    O321437   1.338   0.855   6.108  0.0793 -0.1357  0.2413
  187SAPI   HO321438   1.394   0.785   6.143 -2.5758 -2.0933  0.7316
  187SAPI   C1421439   1.517   0.927   5.962 -0.5633  0.1714 -0.5149
  187SAPI    H421440   1.585   0.846   5.998  0.7053  0.9574 -1.1002
  187SAPI    O421441   1.441   0.885   5.851 -0.6954 -0.4185 -0.2711
  187SAPI   HO421442   1.392   0.806   5.875 -2.1528  0.4767 -0.2285
  187SAPI   C1521443   1.604   1.050   5.928  0.4717 -0.1011 -0.4675
  187SAPI    H521444   1.544   1.137   5.892 -1.2086 -1.3842 -0.8385
  187SAPI    O521445   1.684   1.014   5.821  0.6396 -0.3628 -0.1970
  187SAPI   HO521446   1.656   1.071   5.749 -0.1177 -0.2076  0.2143
  187SAPI   C1621447   1.676   1.095   6.053 -0.3748 -1.0856  0.3405
  187SAPI    H621448   1.736   1.012   6.097  0.8123  0.1111  1.0088
  187SAPI    O621449   1.767   1.203   6.015 -0.1076  0.6837 -0.5152
  187SAPI   HO621450   1.778   1.261   6.092  0.4950 -0.0894 -0.0094
  187SAPI   C1121451   1.576   1.140   6.153  0.0713  0.2877  0.0452
  187SAPI    H121452   1.511   1.221   6.115 -0.9621  0.4391  2.0295
  187SAPI     P21453   1.567   1.317   6.354  0.2271  0.1620  0.0150
  187SAPI   O1321454   1.468   1.391   6.281 -0.0548 -0.4397 -0.3561
  187SAPI   O1421455   1.669   1.402   6.412  0.2361 -0.3815  0.0795
  187SAPI   O1221456   1.644   1.197   6.260 -0.3194  0.1769 -0.0296
  187SAPI   O1121457   1.504   1.226   6.469  0.0570 -0.6588 -0.2021
  187SAPI    C121458   1.579   1.127   6.549 -0.0138 -0.2686  0.2236
  187SAPI    HA21459   1.501   1.059   6.589 -0.2046  0.8411  1.7746
  187SAPI    HB21460   1.650   1.070   6.486 -0.4323  0.1513 -0.6370
  187SAPI    C221461   1.666   1.180   6.665 -0.3683  0.5992  0.3061
  187SAPI    HS21462   1.741   1.253   6.628  1.2056 -0.3303  1.5841
  187SAPI   O2121463   1.718   1.074   6.737 -0.1544 -0.2892  0.2223
  187SAPI   C2121464   1.835   1.035   6.683  0.8355 -0.0434  0.0958
  187SAPI   O2221465   1.882   1.088   6.581 -0.1635 -0.4948  0.4840
  187SAPI   C2221466   1.911   0.939   6.771  0.7125 -0.0306  0.2370
  187SAPI   H2R21467   1.838   0.856   6.783 -0.4993  1.1911  1.4221
  187SAPI   H2S21468   2.005   0.907   6.720  1.4870  1.6728  0.5777
  187SAPI    C321469   1.578   1.270   6.758 -0.7957 -0.6061 -0.2346
  187SAPI    HX21470   1.494   1.209   6.797  0.6383 -1.6930  1.2348
  187SAPI    HY21471   1.560   1.363   6.700  1.9104 -0.5042 -1.0143
  187SAPI   O3121472   1.659   1.308   6.868  0.3205 -0.0817  0.1617
  187SAPI   C3121473   1.611   1.396   6.962  0.3283 -0.0189 -0.5463
  187SAPI   O3221474   1.502   1.454   6.942 -0.6953 -0.0800  0.0627
  187SAPI   C3221475   1.709   1.427   7.075 -0.4794  0.5445 -0.3351
  187SAPI   H2X21476   1.657   1.504   7.135 -1.8507  1.8116 -3.0448
  187SAPI   H2Y21477   1.787   1.489   7.025 -0.4829  0.5944 -0.2784
  187SAPI   C2321478   1.944   1.008   6.912 -0.5575  0.2679 -0.0119
  187SAPI   H3R21479   1.997   0.936   6.979 -0.0735 -1.2836 -2.0150
  187SAPI   H3S21480   1.846   1.020   6.961 -2.0884 -0.4754 -2.7823
  187SAPI   C2421481   2.033   1.134   6.904 -0.4154 -0.2013  0.3623
  187SAPI   H4R21482   2.032   1.193   6.999  1.5074 -0.9458  0.8777
  187SAPI   H4S21483   1.991   1.209   6.834 -0.5613  0.5438  1.2396
  187SAPI   C2521484   2.175   1.114   6.852 -0.6302  0.0530  0.2834
  187SAPI   H5R21485   2.188   1.091   6.745 -1.9571  1.7340 -0.2717
  187SAPI   C2621486   2.284   1.151   6.920 -0.0782  0.0657  0.0007
  187SAPI   H6R21487   2.376   1.107   6.880  1.6848  2.4402  1.3067
  187SAPI   C2721488   2.297   1.217   7.058  0.5278  0.2046  0.4043
  187SAPI   H7R21489   2.205   1.268   7.093  0.8688  2.9674 -2.5137
  187SAPI   H7S21490   2.370   1.300   7.055  0.7077  0.1120  2.1806
  187SAPI   C2821491   2.328   1.111   7.157 -0.6856 -0.0380  0.4088
  187SAPI   H8R21492   2.309   1.006   7.132  0.1349 -0.0286 -0.2897
  187SAPI   C2921493   2.405   1.138   7.261 -0.5298 -0.1493 -0.4382
  187SAPI   H9R21494   2.432   1.054   7.327 -0.1493  0.5085  0.2506
  187SAPI  C21021495   2.465   1.269   7.301 -0.0793 -0.8790 -0.1677
  187SAPI  H10R21496   2.522   1.311   7.216  1.0627 -0.2886  0.8833
  187SAPI  H10S21497   2.537   1.258   7.384 -0.7164 -1.3517  0.3267
  187SAPI  C21121498   2.364   1.372   7.349 -1.6254 -0.0397 -0.2289
  187SAPI  H11R21499   2.345   1.453   7.276 -0.9401 -1.2700 -1.7920
  187SAPI  C21221500   2.313   1.384   7.474  0.5971 -0.5022 -0.7284
  187SAPI  H12R21501   2.246   1.464   7.508 -1.4549 -1.3173 -2.7035
  187SAPI  C21321502   2.330   1.280   7.580 -0.1804 -0.2927  0.7057
  187SAPI  H13R21503   2.397   1.201   7.539 -2.5765 -1.8868 -0.2598
  187SAPI  H13S21504   2.232   1.228   7.593 -1.0094  1.4201  1.3487
  187SAPI  C21421505   2.391   1.346   7.704 -0.3021 -0.4490 -0.0952
  187SAPI  H14R21506   2.497   1.374   7.693 -0.6758  0.7306 -0.6925
  187SAPI  C21521507   2.339   1.352   7.830 -0.1248  0.1139 -0.2414
  187SAPI  H15R21508   2.401   1.410   7.901  0.3210 -0.7917  0.1095
  187SAPI  C21621509   2.205   1.291   7.878  0.0339  0.5855  0.3712
  187SAPI  H16R21510   2.135   1.267   7.795 -0.0002 -0.2769  0.6407
  187SAPI  H16S21511   2.155   1.365   7.943 -0.0759  0.1682  0.7605
  187SAPI  C21721512   2.226   1.162   7.955 -0.0815  0.1151 -0.0803
  187SAPI  H17R21513   2.129   1.128   7.997  0.8245 -1.7362  0.5850
  187SAPI  H17S21514   2.302   1.172   8.035 -1.7228 -1.1845  1.6832
  187SAPI  C21821515   2.272   1.054   7.859 -0.6159  0.1263 -0.7091
  187SAPI  H18R21516   2.372   1.065   7.810 -0.0068 -2.4151 -0.0995
  187SAPI  H18S21517   2.192   1.055   7.782 -1.7699 -0.8738  0.4696
  187SAPI  C21921518   2.279   0.915   7.921 -0.0842 -0.8970  0.3718
  187SAPI  H19R21519   2.206   0.911   8.005 -0.8703  2.7507 -0.0703
  187SAPI  H19S21520   2.379   0.893   7.964  0.5190  0.6661 -0.2023
  187SAPI  C22021521   2.253   0.800   7.822 -0.4088  0.5817 -0.4384
  187SAPI  H20R21522   2.259   0.698   7.866  1.1680 -0.4428 -2.9376
  187SAPI  H20S21523   2.332   0.798   7.743  1.3894  1.8177  1.2802
  187SAPI  H20T21524   2.151   0.800   7.780 -0.7238  0.5894  0.3250
  187SAPI   C3321525   1.770   1.302   7.147  0.4999 -0.2140  0.3236
  187SAPI   H3X21526   1.807   1.227   7.074  0.0745 -0.6814  0.5838
  187SAPI   H3Y21527   1.693   1.247   7.205  1.5724 -1.7834  0.2919
  187SAPI   C3421528   1.880   1.331   7.250  0.0454  0.1151 -0.0878
  187SAPI   H4X21529   1.951   1.403   7.203  1.3923  0.5548  2.5215
  187SAPI   H4Y21530   1.931   1.236   7.273  1.5935  0.4362 -2.0322
  187SAPI   C3521531   1.832   1.388   7.383  0.6383 -0.6545  0.3022
  187SAPI   H5X21532   1.747   1.334   7.431 -0.7120  1.2334  0.0711
  187SAPI   H5Y21533   1.777   1.479   7.352 -2.9768 -2.6088  0.7060
  187SAPI   C3621534   1.933   1.419   7.492 -0.4419  0.1820  0.2876
  187SAPI   H6X21535   1.986   1.511   7.458 -0.2478 -0.0653 -0.0837
  187SAPI   H6Y21536   2.012   1.341   7.499  0.5527  1.0186 -1.2314
  187SAPI   C3721537   1.873   1.442   7.632 -0.1002 -0.3496 -0.0265
  187SAPI   H7X21538   1.877   1.355   7.701  1.6288  1.3402  2.0925
  187SAPI   H7Y21539   1.766   1.468   7.618 -0.2317 -1.8442 -1.9905
  187SAPI   C3821540   1.964   1.552   7.711  1.0417 -0.4131 -0.0530
  187SAPI   H8X21541   1.954   1.647   7.654  0.6571  0.1908  1.0143
  187SAPI   H8Y21542   2.071   1.523   7.708  2.0954  3.0657  1.2218
  187SAPI   C3921543   1.908   1.587   7.850 -0.3091 -0.1088  0.0980
  187SAPI   H9X21544   1.973   1.664   7.896  0.5032 -0.6617 -0.1254
  187SAPI   H9Y21545   1.925   1.496   7.912  1.0977  0.0734 -0.0222
  187SAPI  C31021546   1.758   1.618   7.851 -0.0407  0.1920  0.3879
  187SAPI  H10X21547   1.698   1.569   7.772 -2.6606 -1.4774  3.3085
  187SAPI  H10Y21548   1.731   1.726   7.851  0.9495  0.4462  0.2843
  187SAPI  C31121549   1.687   1.582   7.983  0.2349 -0.2755  0.0723
  187SAPI  H11X21550   1.717   1.483   8.024  0.0304 -0.5120 -0.3436
  187SAPI  H11Y21551   1.579   1.586   7.959 -0.5944  0.0692  3.6447
  187SAPI  C31221552   1.712   1.691   8.087  0.3405  0.2915  0.3171
  187SAPI  H12X21553   1.680   1.784   8.035 -1.6397 -1.1817 -1.1590
  187SAPI  H12Y21554   1.822   1.710   8.093  0.6195  0.2222 -3.4873
  187SAPI  C31321555   1.644   1.660   8.220  0.1752 -0.1087  0.8624
  187SAPI  H13X21556   1.674   1.561   8.263  2.4274  1.2982  2.6656
  187SAPI  H13Y21557   1.533   1.651   8.219  0.0546  0.7530  3.4471
  187SAPI  C31421558   1.680   1.758   8.327 -0.6668 -0.0040  0.5621
  187SAPI  H14X21559   1.629   1.857   8.327  1.1905  0.9742 -0.1006
  187SAPI  H14Y21560   1.786   1.780   8.301 -0.7867 -0.0779 -0.0099
  187SAPI  C31521561   1.668   1.698   8.459 -0.3564  0.2215 -0.5437
  187SAPI  H15X21562   1.745   1.752   8.519 -1.9783  1.3258  0.5975
  187SAPI  H15Y21563   1.695   1.591   8.460 -0.8034  0.0679 -3.0309
  187SAPI  C31621564   1.540   1.732   8.532 -0.6029 -0.6656  0.1077
  187SAPI  H16X21565   1.461   1.692   8.465 -0.3760 -0.7604 -0.1062
  187SAPI  H16Y21566   1.539   1.843   8.544 -0.7137 -0.6029 -0.4468
  187SAPI  C31721567   1.541   1.662   8.669 -0.8861  0.0417  0.4959
  187SAPI  H17X21568   1.643   1.673   8.711 -1.6036  1.8015  1.8321
  187SAPI  H17Y21569   1.519   1.555   8.648 -0.4009 -0.0577  0.4933
  187SAPI  C31821570   1.443   1.713   8.772 -0.5344  0.7460 -0.3484
  187SAPI  H18X21571   1.340   1.691   8.739  0.0414 -0.1751 -1.5398
  187SAPI  H18Y21572   1.456   1.824   8.779 -2.8404  0.8996  2.4518
  187SAPI  H18Z21573   1.471   1.667   8.869  0.7601  2.0889 -0.0694
  188SAPI   C1221574   3.388   4.502   6.468  0.6550  0.3540  0.0565
  188SAPI    H221575   3.330   4.461   6.553 -0.4915  2.2755  0.2252
  188SAPI    O221576   3.289   4.528   6.367 -1.1506 -0.0325 -0.4085
  188SAPI   HO221577   3.250   4.446   6.336  0.5657 -1.3399  0.8305
  188SAPI   C1321578   3.460   4.628   6.512 -0.4056 -0.0392  0.4832
  188SAPI    H321579   3.526   4.600   6.597 -1.6706 -0.0350  1.4865
  188SAPI    O321580   3.378   4.728   6.565  0.0232 -0.1350  0.0466
  188SAPI   HO321581   3.399   4.815   6.531  0.2067 -0.1552  0.1091
  188SAPI   C1421582   3.546   4.684   6.393  0.0253  0.0767  0.3228
  188SAPI    H421583   3.480   4.718   6.311 -0.7168 -0.1262  0.8370
  188SAPI    O421584   3.624   4.796   6.443  0.8986 -0.0044 -0.2930
  188SAPI   HO421585   3.564   4.870   6.431  1.8719  0.7935 -0.3159
  188SAPI   C1521586   3.640   4.579   6.324  0.4515  0.0564  0.0497
  188SAPI    H521587   3.719   4.554   6.399  0.3292  0.7158  0.4049
  188SAPI    O521588   3.717   4.642   6.222 -0.3426 -0.0398 -0.0126
  188SAPI   HO521589   3.794   4.684   6.262  0.7834  1.1961 -3.2492
  188SAPI   C1621590   3.567   4.450   6.287  0.7007 -0.0937 -0.2557
  188SAPI    H621591   3.484   4.462   6.215  0.4998  0.0418 -0.0030
  188SAPI    O621592   3.655   4.350   6.235 -0.3373 -0.0744 -0.3338
  188SAPI   HO621593   3.739   4.339   6.281 -0.5441 -2.6690 -0.4884
  188SAPI   C1121594   3.494   4.400   6.414  0.3044 -0.8891  0.1641
  188SAPI    H121595   3.572   4.384   6.491  1.3838  3.2382  0.0356
  188SAPI     P21596   3.470   4.123   6.409 -0.4263  0.5349 -0.4773
  188SAPI   O1321597   3.617   4.115   6.403  0.8806 -0.7455  0.1566
  188SAPI   O1421598   3.403   4.049   6.296 -0.2479 -0.1313 -0.1765
  188SAPI   O1221599   3.422   4.279   6.393  0.2121  0.7720  0.5575
  188SAPI   O1121600   3.424   4.077   6.549 -0.1646 -0.5629 -0.0390
  188SAPI    C121601   3.296   4.085   6.602  0.4884 -0.8111  0.5649
  188SAPI    HA21602   3.253   4.188   6.605  0.8374 -0.6783  1.1136
  188SAPI    HB21603   3.221   4.033   6.538  0.5476 -1.6621  1.1834
  188SAPI    C221604   3.285   4.013   6.733 -0.9974 -0.1828 -0.3521
  188SAPI    HS21605   3.178   4.016   6.763 -0.5922 -1.2361  1.2850
  188SAPI   O2121606   3.363   4.082   6.829  0.1971 -0.5819  0.5400
  188SAPI   C2121607   3.300   4.178   6.898  0.2263  0.6555  0.3314
  188SAPI   O2221608   3.181   4.207   6.900 -0.4216  0.1904  0.2106
  188SAPI   C2221609   3.404   4.235   6.997 -0.7129 -0.2203  0.2714
  188SAPI   H2R21610   3.464   4.147   7.027  0.2113 -0.0883 -1.1204
  188SAPI   H2S21611   3.463   4.309   6.938 -2.6291  0.8098 -0.3950
  188SAPI    C321612   3.322   3.860   6.718  1.4020  0.2468 -0.2593
  188SAPI    HX21613   3.424   3.848   6.677  1.3135  0.6708 -0.6032
  188SAPI    HY21614   3.237   3.819   6.659  0.8914  0.6448  0.1787
  188SAPI   O3121615   3.319   3.812   6.851  0.4671 -0.3083 -0.0162
  188SAPI   C3121616   3.391   3.710   6.887 -0.4400 -0.2845  0.3129
  188SAPI   O3221617   3.447   3.630   6.813 -0.0073  0.0152 -0.0578
  188SAPI   C3221618   3.396   3.697   7.045  0.4393 -0.0640  0.1752
  188SAPI   H2X21619   3.313   3.627   7.069  0.9726 -0.4409  0.9534
  188SAPI   H2Y21620   3.366   3.791   7.096  1.6221  0.8641 -0.8428
  188SAPI   C2321621   3.334   4.307   7.119  0.6250 -0.8111 -0.6007
  188SAPI   H3R21622   3.269   4.388   7.080  1.5299  0.4854  0.5296
  188SAPI   H3S21623   3.428   4.343   7.166 -1.0444  1.4703  1.1049
  188SAPI   C2421624   3.254   4.207   7.201  0.2954 -0.5393 -0.4896
  188SAPI   H4R21625   3.328   4.129   7.229 -0.0897 -0.0601  2.0166
  188SAPI   H4S21626   3.178   4.158   7.138 -0.3773  1.0098 -0.9125
  188SAPI   C2521627   3.200   4.278   7.323 -0.8466  0.1282 -0.0648
  188SAPI   H5R21628   3.127   4.356   7.296 -1.2715  0.2641  1.4260
  188SAPI   C2621629   3.229   4.269   7.454  0.2729  1.1224  0.1019
  188SAPI   H6R21630   3.177   4.341   7.518  0.8362  1.6018  0.0184
  188SAPI   C2721631   3.341   4.181   7.515  0.2866  0.2982  0.1387
  188SAPI   H7R21632   3.436   4.237   7.531  0.0368  0.3607  1.4700
  188SAPI   H7S21633   3.381   4.104   7.446 -0.5496 -0.1851  0.1951
  188SAPI   C2821634   3.315   4.129   7.656 -0.1075 -0.8426  0.2280
  188SAPI   H8R21635   3.263   4.032   7.659 -1.7469  0.0453  1.1323
  188SAPI   C2921636   3.337   4.185   7.771 -0.0895 -0.0262  0.6243
  188SAPI   H9R21637   3.334   4.120   7.860 -1.8037 -0.6853  0.1014
  188SAPI  C21021638   3.398   4.321   7.789  0.4679 -0.3538  0.2816
  188SAPI  H10R21639   3.385   4.383   7.698 -1.1041  2.2404  2.1823
  188SAPI  H10S21640   3.505   4.309   7.813  0.3450 -1.3715  0.3238
  188SAPI  C21121641   3.320   4.389   7.900 -0.2194  0.8276  0.2007
  188SAPI  H11R21642   3.211   4.380   7.893 -0.1377  1.2170 -2.3728
  188SAPI  C21221643   3.365   4.463   8.005 -0.3250 -0.2547  0.0852
  188SAPI  H12R21644   3.294   4.501   8.080  0.4947  1.4217  0.0310
  188SAPI  C21321645   3.512   4.498   8.016 -0.1613  0.0986  0.5796
  188SAPI  H13R21646   3.538   4.604   8.032 -0.9344  0.3493  0.1947
  188SAPI  H13S21647   3.573   4.461   7.930  0.5337  0.0561  1.0836
  188SAPI  C21421648   3.557   4.414   8.135  0.5019 -0.3344  0.3665
  188SAPI  H14R21649   3.593   4.314   8.108  2.7462 -0.8166  4.5605
  188SAPI  C21521650   3.561   4.459   8.265  0.1850  0.1778  1.0816
  188SAPI  H15R21651   3.579   4.387   8.346 -1.0501  1.2736  2.3658
  188SAPI  C21621652   3.521   4.600   8.303  0.2376  0.5787 -0.3930
  188SAPI  H16R21653   3.507   4.671   8.218  2.9134 -0.6114 -1.9023
  188SAPI  H16S21654   3.608   4.633   8.364  0.3349 -1.0346  0.3581
  188SAPI  C21721655   3.400   4.586   8.398 -0.7369  0.4200  0.0790
  188SAPI  H17R21656   3.420   4.522   8.487  0.1678  1.5981  0.7567
  188SAPI  H17S21657   3.322   4.536   8.337  0.7984  0.0852 -1.6710
  188SAPI  C21821658   3.341   4.718   8.436  0.5352  0.5756 -0.4557
  188SAPI  H18R21659   3.339   4.789   8.351  1.1477  2.5443  1.1229
  188SAPI  H18S21660   3.402   4.759   8.519 -1.2938 -1.7429  2.1378
  188SAPI  C21921661   3.186   4.707   8.482 -0.3313  1.0036  0.2245
  188SAPI  H19R21662   3.173   4.649   8.576 -0.5354 -1.3256 -1.1802
  188SAPI  H19S21663   3.140   4.647   8.400  0.8228  0.5169 -0.0812
  188SAPI  C22021664   3.099   4.831   8.484 -0.4229 -1.5268  0.4636
  188SAPI  H20R21665   3.001   4.804   8.528 -0.8773  0.1970  0.5627
  188SAPI  H20S21666   3.097   4.883   8.386 -0.9426 -2.3152  0.0511
  188SAPI  H20T21667   3.157   4.910   8.537 -0.1201 -1.5543  0.1821
  188SAPI   C3321668   3.531   3.669   7.101  0.0166  0.9208 -0.1642
  188SAPI   H3X21669   3.595   3.759   7.096  3.1260 -1.0527  2.2870
  188SAPI   H3Y21670   3.577   3.591   7.037  0.4346  1.0147  0.0251
  188SAPI   C3421671   3.539   3.633   7.247 -0.5235 -0.2703 -0.0442
  188SAPI   H4X21672   3.645   3.616   7.276 -0.4199  1.5466  0.7442
  188SAPI   H4Y21673   3.481   3.543   7.276  0.1236 -0.1846  1.6073
  188SAPI   C3521674   3.491   3.746   7.337 -0.2997 -0.2413  0.4148
  188SAPI   H5X21675   3.380   3.749   7.323 -0.4101  1.5003  1.4990
  188SAPI   H5Y21676   3.543   3.840   7.310 -2.0180  0.6640  0.1696
  188SAPI   C3621677   3.515   3.744   7.491  0.7989 -0.0423 -0.6676
  188SAPI   H6X21678   3.472   3.834   7.540  0.8143 -0.5815  0.3453
  188SAPI   H6Y21679   3.624   3.741   7.510  0.3700  0.4092  1.9915
  188SAPI   C3721680   3.455   3.616   7.552 -0.0440 -0.0609 -0.3598
  188SAPI   H7X21681   3.499   3.532   7.495 -3.0077 -1.2329 -1.0182
  188SAPI   H7Y21682   3.347   3.596   7.534  0.0782 -1.0918  0.0514
  188SAPI   C3821683   3.479   3.602   7.704  0.0867  0.0542 -0.2421
  188SAPI   H8X21684   3.584   3.573   7.729  0.7829  1.6513 -1.1964
  188SAPI   H8Y21685   3.407   3.527   7.743 -0.4383  0.2457 -0.8491
  188SAPI   C3921686   3.452   3.734   7.788  0.1030  0.6080  0.0113
  188SAPI   H9X21687   3.346   3.762   7.768  1.0618  1.4427 -4.3561
  188SAPI   H9Y21688   3.509   3.824   7.754  1.7724 -0.0071  1.1042
  188SAPI  C31021689   3.481   3.725   7.939 -0.3725 -0.5526  0.3379
  188SAPI  H10X21690   3.590   3.705   7.950  0.1518  2.6040  1.3769
  188SAPI  H10Y21691   3.422   3.646   7.991 -0.7338  0.0781  0.8957
  188SAPI  C31121692   3.463   3.857   8.014 -0.2531 -0.1916  0.0683
  188SAPI  H11X21693   3.354   3.870   8.029 -0.1429 -0.8924  1.5310
  188SAPI  H11Y21694   3.493   3.939   7.945 -1.7510 -1.3002 -1.9721
  188SAPI  C31221695   3.531   3.871   8.145 -0.0356  0.7701 -0.2839
  188SAPI  H12X21696   3.641   3.860   8.136 -0.0727  0.3443 -0.2311
  188SAPI  H12Y21697   3.504   3.797   8.223 -0.5457  1.5760  0.3092
  188SAPI  C31321698   3.477   4.008   8.208 -0.0908 -0.6324 -0.7593
  188SAPI  H13X21699   3.369   4.020   8.182 -0.0814  1.3428  0.0019
  188SAPI  H13Y21700   3.532   4.095   8.165 -1.1905  0.1239 -0.6688
  188SAPI  C31421701   3.494   3.998   8.362  0.2945 -0.8316 -0.3263
  188SAPI  H14X21702   3.600   3.981   8.390  0.3460  0.6928  0.4414
  188SAPI  H14Y21703   3.442   3.906   8.397  0.6664  0.4370  3.7954
  188SAPI  C31521704   3.442   4.120   8.436  0.4995 -0.1981 -0.1361
  188SAPI  H15X21705   3.334   4.136   8.414 -0.3341 -1.1955  2.8918
  188SAPI  H15Y21706   3.499   4.202   8.388 -0.9816  0.5631 -0.6247
  188SAPI  C31621707   3.467   4.112   8.587 -0.1281  0.5564  0.5144
  188SAPI  H16X21708   3.574   4.082   8.592  0.0720  0.7322 -1.9211
  188SAPI  H16Y21709   3.396   4.037   8.629  1.3744  0.9090  3.8452
  188SAPI  C31721710   3.443   4.248   8.655 -0.4699 -0.2815 -0.0165
  188SAPI  H17X21711   3.417   4.226   8.761 -0.3241 -0.8236 -0.0915
  188SAPI  H17Y21712   3.361   4.303   8.604 -0.1937 -2.1666 -2.5334
  188SAPI  C31821713   3.569   4.328   8.649  0.1633 -0.2360 -0.7563
  188SAPI  H18X21714   3.620   4.321   8.550 -1.9422  2.1184 -2.0662
  188SAPI  H18Y21715   3.642   4.289   8.722  0.2089  1.7495  0.2914
  188SAPI  H18Z21716   3.560   4.436   8.674 -0.9969 -0.8798  1.6748
  189POPC     N21717   2.062   4.678  11.033  0.3457 -0.1695 -0.0361
  189POPC   C1221718   2.130   4.743  10.915 -0.1635  0.7942 -0.0971
  189POPC  H12A21719   2.055   4.754  10.838  1.0897 -3.9463 -2.2115
  189POPC  H12B21720   2.204   4.674  10.876 -0.0011  0.2124  1.2163
  189POPC   C1321721   1.986   4.770  11.123  0.5933 -0.1397 -0.3521
  189POPC  H13A21722   1.955   4.727  11.217  0.1296  0.2044 -0.3424
  189POPC  H13B21723   2.046   4.859  11.133  0.2511  0.0105  0.4115
  189POPC  H13C21724   1.897   4.806  11.074  1.4264  2.8716  0.2754
  189POPC   C1421725   1.980   4.567  10.985 -0.1384  0.0531 -0.1716
  189POPC  H14A21726   1.889   4.606  10.941  0.9900  0.1525 -2.4825
  189POPC  H14B21727   2.032   4.489  10.931 -0.6410 -1.9744  2.1703
  189POPC  H14C21728   1.957   4.518  11.079  1.0807 -3.2951 -1.5298
  189POPC   C1521729   2.156   4.602  11.126  0.7972 -0.3169 -0.0314
  189POPC  H15A21730   2.104   4.577  11.217  1.6156 -0.4721  0.3882
  189POPC  H15B21731   2.242   4.663  11.150  1.2543  0.4273 -3.2938
  189POPC  H15C21732   2.184   4.509  11.079  1.4003 -1.2374  2.0991
  189POPC   C1121733   2.184   4.891  10.926 -0.6149  0.0966 -0.1646
  189POPC  H11A21734   2.231   4.925  10.832  0.4118  1.9574  0.9891
  189POPC  H11B21735   2.265   4.887  11.002 -1.7754  1.7960  1.2006
  189POPC     P21736   1.971   5.035  10.877  0.4218 -0.1943  0.1100
  189POPC   O1321737   1.963   5.182  10.870 -0.7155  0.1431  0.3036
  189POPC   O1421738   1.850   4.963  10.927 -0.6141 -0.2907  0.4740
  189POPC   O1221739   2.091   4.989  10.971  0.2895  0.2787  0.3315
  189POPC   O1121740   2.013   4.967  10.738 -0.3761 -0.0666 -0.6117
  189POPC    C121741   2.081   5.049  10.639 -0.0823 -0.0742 -0.8318
  189POPC    HA21742   2.142   4.979  10.578 -1.3763 -0.4720 -1.6870
  189POPC    HB21743   2.138   5.131  10.688 -1.9914  0.1540  1.0920
  189POPC    C221744   1.975   5.117  10.546 -0.0253 -0.4070  0.5775
  189POPC    HS21745   1.876   5.075  10.571 -0.2923  0.9316  1.8152
  189POPC   O2121746   2.008   5.097  10.409  0.1726  0.1641  0.8135
  189POPC   C2121747   1.918   5.111  10.318  0.5163  0.0424  0.2125
  189POPC   O2221748   1.793   5.116  10.343 -0.2966 -0.2191 -0.0043
  189POPC   C2221749   1.979   5.126  10.178 -0.1216 -0.6179 -0.8388
  189POPC   H2R21750   2.044   5.038  10.160  1.2325 -0.0435  1.0737
  189POPC   H2S21751   2.043   5.216  10.183  0.4227 -1.0478  0.1476
  189POPC    C321752   1.953   5.271  10.577 -0.3294  0.4471  0.5533
  189POPC    HX21753   1.906   5.280  10.678  0.5732  0.6919  0.9518
  189POPC    HY21754   1.878   5.320  10.511  0.5586  0.7688 -0.2242
  189POPC   O3121755   2.067   5.356  10.576  0.0204  0.3932  0.8850
  189POPC   C3121756   2.106   5.413  10.465 -0.2583  0.2237  0.2893
  189POPC   O3221757   2.053   5.401  10.356  0.5435  0.4174  0.8537
  189POPC   C3221758   2.217   5.503  10.498 -0.6123 -0.1722 -0.1021
  189POPC   H2X21759   2.238   5.500  10.607 -0.6749 -3.2141 -0.1456
  189POPC   H2Y21760   2.179   5.604  10.469  0.2594  0.1502 -0.1531
  189POPC   C2321761   1.866   5.145  10.067 -0.7406  0.1158 -0.4931
  189POPC   H3R21762   1.820   5.242  10.096  2.2115  0.9803  1.5300
  189POPC   H3S21763   1.783   5.072  10.078  0.3745 -0.7559  2.7097
  189POPC   C2421764   1.920   5.158   9.920  0.6251  0.1010  0.1139
  189POPC   H4R21765   1.996   5.079   9.900 -1.9048 -2.8939  1.8892
  189POPC   H4S21766   1.973   5.255   9.929 -0.4190  0.5598  1.5960
  189POPC   C2521767   1.821   5.158   9.806 -0.1686  0.5263 -0.3806
  189POPC   H5R21768   1.755   5.248   9.802  0.9083  1.3850  0.9035
  189POPC   H5S21769   1.757   5.069   9.826  0.5369 -0.3874 -2.1396
  189POPC   C2621770   1.891   5.141   9.670  0.3647  0.5682  0.2616
  189POPC   H6R21771   1.945   5.045   9.660 -0.7209  0.0699 -1.0613
  189POPC   H6S21772   1.968   5.219   9.656  0.8149 -0.2414 -1.9419
  189POPC   C2721773   1.797   5.144   9.550  0.6862 -0.4580 -0.2475
  189POPC   H7R21774   1.724   5.226   9.565  0.6414 -0.4888 -0.2968
  189POPC   H7S21775   1.743   5.048   9.569 -0.4943  0.2894  0.2500
  189POPC   C2821776   1.862   5.144   9.413 -0.8461  0.5665 -0.2534
  189POPC   H8R21777   1.940   5.065   9.414 -1.6383 -0.2352 -1.3283
  189POPC   H8S21778   1.916   5.241   9.397 -0.5007 -0.1013 -3.4614
  189POPC   C2921779   1.762   5.120   9.305  0.4120  0.1521  0.1754
  189POPC   H9121780   1.697   5.032   9.312  0.1339  0.3662  0.2692
  189POPC  C21021781   1.730   5.211   9.213  0.1155  0.2240 -0.3267
  189POPC  H10121782   1.647   5.194   9.142  0.4288 -0.1826 -0.5967
  189POPC  C21121783   1.791   5.340   9.202 -0.6119 -0.0138 -0.3580
  189POPC  H11R21784   1.804   5.389   9.301 -0.8462  1.1156 -0.8810
  189POPC  H11S21785   1.721   5.405   9.146  0.5819  1.5291 -0.0880
  189POPC  C21221786   1.928   5.337   9.130 -0.3376  0.2599  0.2414
  189POPC  H12R21787   2.002   5.287   9.196  0.1098 -0.7363 -0.9856
  189POPC  H12S21788   1.950   5.442   9.102 -0.0430  0.1027 -0.1128
  189POPC  C21321789   1.947   5.263   8.993  0.5768  0.1816 -0.0123
  189POPC  H13R21790   1.879   5.176   8.980  1.1423 -0.1006 -1.1395
  189POPC  H13S21791   2.056   5.241   8.987  0.6315  0.9483 -2.0813
  189POPC  C21421792   1.917   5.362   8.877  0.1325  0.3101 -0.2481
  189POPC  H14R21793   1.817   5.403   8.900 -0.5980 -0.4992 -1.9182
  189POPC  H14S21794   1.925   5.296   8.788  0.0182  1.4798 -1.1297
  189POPC  C21521795   2.018   5.474   8.856 -0.2168 -0.5348 -0.0898
  189POPC  H15R21796   2.116   5.421   8.852 -0.4802 -0.9266 -1.7508
  189POPC  H15S21797   2.030   5.546   8.940 -1.7502 -0.3935  0.0291
  189POPC  C21621798   1.994   5.549   8.733 -0.5994  0.0485 -0.0728
  189POPC  H16R21799   1.909   5.617   8.755  0.1140  0.7155  0.7071
  189POPC  H16S21800   1.968   5.477   8.653  2.3377 -1.0012 -0.1467
  189POPC  C21721801   2.120   5.630   8.696 -0.5380  0.0357 -0.3722
  189POPC  H17R21802   2.200   5.559   8.664 -1.2014 -0.6407 -0.5649
  189POPC  H17S21803   2.168   5.677   8.785 -0.3747 -0.2013 -0.3338
  189POPC  C21821804   2.097   5.743   8.600  0.7617  0.3100 -0.3257
  189POPC  H18R21805   2.028   5.822   8.637  2.5274  2.8928 -2.2989
  189POPC  H18S21806   2.041   5.701   8.514  4.0257  0.6683 -2.7136
  189POPC  H18T21807   2.189   5.793   8.562  0.0768  1.9474  0.1143
  189POPC   C3321808   2.352   5.469  10.437  0.2384 -0.6792 -0.2093
  189POPC   H3X21809   2.333   5.447  10.330 -0.8592  0.1521 -0.1984
  189POPC   H3Y21810   2.394   5.384  10.495 -1.0451 -0.1328  1.5697
  189POPC   C3421811   2.447   5.586  10.443  0.1163 -0.1141  1.4642
  189POPC   H4X21812   2.453   5.645  10.537 -2.5171  0.1151  1.5329
  189POPC   H4Y21813   2.403   5.658  10.371  3.3772  1.1852  0.6746
  189POPC   C3521814   2.585   5.552  10.393  0.3143  0.6563 -0.0313
  189POPC   H5X21815   2.645   5.496  10.468  0.3458 -2.2432 -2.1186
  189POPC   H5Y21816   2.640   5.648  10.405  0.4103  0.9098 -2.2670
  189POPC   C3621817   2.602   5.495  10.248  0.6282  0.0365 -0.3058
  189POPC   H6X21818   2.539   5.566  10.191  0.0673  0.7809  1.2174
  189POPC   H6Y21819   2.572   5.388  10.246  3.8014 -0.9464  0.5174
  189POPC   C3721820   2.749   5.498  10.191  0.7156  0.6241  1.0889
  189POPC   H7X21821   2.816   5.432  10.251  4.0299  1.7648 -1.2442
  189POPC   H7Y21822   2.779   5.603  10.212  1.5703  0.0260  3.0218
  189POPC   C3821823   2.768   5.475  10.042  0.0567  0.0007  0.5445
  189POPC   H8X21824   2.877   5.468  10.020  0.1612 -2.6531  1.7482
  189POPC   H8Y21825   2.721   5.562   9.990  0.3415  2.1906  3.7989
  189POPC   C3921826   2.700   5.355   9.975 -0.8623  0.7240  0.3473
  189POPC   H9X21827   2.593   5.347  10.001 -0.3548  0.6474  2.4619
  189POPC   H9Y21828   2.756   5.265  10.010  0.1893  0.6687 -1.4156
  189POPC  C31021829   2.721   5.359   9.820 -1.0721  0.0068  1.4641
  189POPC  H10X21830   2.793   5.278   9.797  0.1135  2.1285 -2.6686
  189POPC  H10Y21831   2.757   5.458   9.786  0.3897 -0.8185  0.5818
  189POPC  C31121832   2.587   5.337   9.742 -0.1070  0.7627  0.2303
  189POPC  H11X21833   2.531   5.429   9.768  0.0944  0.8248  0.4393
  189POPC  H11Y21834   2.543   5.244   9.784  0.5498  0.4684  0.2675
  189POPC  C31221835   2.622   5.336   9.589  0.6473 -0.1612 -0.5989
  189POPC  H12X21836   2.555   5.264   9.536  0.6921 -0.8324  0.2479
  189POPC  H12Y21837   2.722   5.289   9.584 -0.4332 -2.5838 -0.2595
  189POPC  C31321838   2.606   5.473   9.527 -0.2192 -0.3406  0.2624
  189POPC  H13X21839   2.684   5.532   9.579 -1.3405  0.3900  1.1336
  189POPC  H13Y21840   2.504   5.513   9.547 -0.3366 -1.0621  1.1503
  189POPC  C31421841   2.651   5.481   9.383  0.4307 -0.2564 -0.3047
  189POPC  H14X21842   2.595   5.405   9.325 -2.4249  0.2311  1.6882
  189POPC  H14Y21843   2.761   5.479   9.375  0.8122  4.4815  1.6189
  189POPC  C31521844   2.606   5.614   9.320  0.4616 -0.6372  0.3123
  189POPC  H15X21845   2.652   5.696   9.381 -0.7870  0.2330  0.1046
  189POPC  H15Y21846   2.496   5.629   9.332  0.6100  0.2875  0.6078
  189POPC  C31621847   2.660   5.638   9.179 -0.1629  0.2103 -0.5528
  189POPC  H16X21848   2.639   5.729   9.121 -0.5473 -0.7054 -1.8616
  189POPC  H16Y21849   2.640   5.552   9.112 -1.4434  0.9754 -1.1743
  189POPC  H16Z21850   2.770   5.647   9.190 -0.2330  0.0985  0.3110
  190POPC     N21851   4.624   2.503  11.181  0.4703  0.4610 -0.5877
  190POPC   C1221852   4.764   2.455  11.229 -0.5540 -0.5078  0.2675
  190POPC  H12A21853   4.797   2.534  11.296  1.6815 -2.4680  1.5129
  190POPC  H12B21854   4.837   2.462  11.149 -0.4935  0.8821  0.4275
  190POPC   C1321855   4.555   2.408  11.098 -0.0879  0.5499  0.1053
  190POPC  H13A21856   4.448   2.417  11.085 -0.2562 -0.4773  0.7989
  190POPC  H13B21857   4.606   2.413  11.003  1.2308 -2.2693  0.6451
  190POPC  H13C21858   4.572   2.312  11.144  0.9590  0.0369 -1.3410
  190POPC   C1421859   4.543   2.538  11.298  0.5200 -0.0041 -0.1373
  190POPC  H14A21860   4.540   2.452  11.363 -2.8047 -0.8760 -1.3342
  190POPC  H14B21861   4.582   2.615  11.362  0.6830 -1.2054  1.2246
  190POPC  H14C21862   4.444   2.570  11.267  0.2973  2.1098  2.5690
  190POPC   C1521863   4.645   2.633  11.102 -0.3873 -0.1564  0.0528
  190POPC  H15A21864   4.546   2.671  11.079  0.4142  0.5057 -2.4563
  190POPC  H15B21865   4.688   2.627  11.003  0.4360  1.6098  0.2822
  190POPC  H15C21866   4.702   2.706  11.157  2.0294 -1.4809 -0.6591
  190POPC   C1121867   4.766   2.326  11.298 -0.8884  0.1689  0.7251
  190POPC  H11A21868   4.677   2.307  11.361 -1.7867 -1.8304 -1.0668
  190POPC  H11B21869   4.858   2.333  11.361  1.0686 -0.9556 -1.9291
  190POPC     P21870   4.887   2.206  11.089 -0.3043 -0.5208 -0.4811
  190POPC   O1321871   4.896   2.065  11.058 -0.0863  0.0661 -0.2503
  190POPC   O1421872   5.001   2.262  11.160  0.1493  0.3093  0.2372
  190POPC   O1221873   4.769   2.217  11.197  0.1594 -0.4354 -0.4113
  190POPC   O1121874   4.847   2.289  10.959 -0.0833  0.9170 -0.3508
  190POPC    C121875   4.862   2.233  10.829  0.8095  0.5167  0.1627
  190POPC    HA21876   4.792   2.149  10.808 -1.3366  2.7632 -2.0118
  190POPC    HB21877   4.967   2.205  10.806 -0.1219 -1.3704 -1.9451
  190POPC    C221878   4.832   2.335  10.720 -0.9385 -1.3596  0.0899
  190POPC    HS21879   4.891   2.425  10.747 -2.3185 -1.1188  2.3963
  190POPC   O2121880   4.689   2.366  10.735 -0.5409  0.3013 -0.0435
  190POPC   C2121881   4.649   2.488  10.669 -0.6411  0.4080 -0.2912
  190POPC   O2221882   4.735   2.552  10.611 -0.8006  0.0467 -0.1340
  190POPC   C2221883   4.502   2.521  10.696  0.7811 -0.2610  0.6947
  190POPC   H2R21884   4.489   2.632  10.690  0.2720 -0.4046 -1.3797
  190POPC   H2S21885   4.484   2.507  10.804 -2.6666 -0.5789  0.1463
  190POPC    C321886   4.864   2.292  10.573 -0.1543  0.5733  0.8259
  190POPC    HX21887   4.971   2.308  10.551 -0.1861 -0.0809  0.1737
  190POPC    HY21888   4.803   2.352  10.501  1.1922 -1.5464 -2.1560
  190POPC   O3121889   4.836   2.152  10.556  0.4691 -0.5889  0.1521
  190POPC   C3121890   4.711   2.119  10.540 -0.0745 -0.3063  0.2224
  190POPC   O3221891   4.622   2.198  10.525 -0.2840  0.1296 -0.5180
  190POPC   C3221892   4.693   1.966  10.559 -0.1596  0.2619 -0.1720
  190POPC   H2X21893   4.582   1.958  10.564 -0.4520  3.6157  0.1114
  190POPC   H2Y21894   4.727   1.939  10.661 -2.6781  1.2012  0.9372
  190POPC   C2321895   4.399   2.460  10.600  0.4798  0.0646  0.2873
  190POPC   H3R21896   4.301   2.503  10.629  0.7671  0.8772  0.0465
  190POPC   H3S21897   4.390   2.351  10.622 -0.7057  0.2202  0.6036
  190POPC   C2421898   4.433   2.494  10.452 -0.0115  0.1318  0.4125
  190POPC   H4R21899   4.505   2.419  10.415  1.0834  0.5430  1.6874
  190POPC   H4S21900   4.500   2.582  10.440 -0.8000  0.8158  0.9344
  190POPC   C2521901   4.307   2.507  10.364 -0.2847 -0.5682  0.4447
  190POPC   H5R21902   4.230   2.571  10.414  0.4699 -0.6637  1.7472
  190POPC   H5S21903   4.261   2.409  10.342 -0.6284 -0.1734 -0.6078
  190POPC   C2621904   4.355   2.558  10.225  0.1205  0.0432  0.2629
  190POPC   H6R21905   4.443   2.501  10.189 -1.6467 -0.5729 -3.2552
  190POPC   H6S21906   4.399   2.657  10.251  2.4401 -0.5884 -1.1182
  190POPC   C2721907   4.238   2.552  10.117  0.6701 -0.9319  0.0349
  190POPC   H7R21908   4.161   2.608  10.174  0.8943 -0.7063  0.1215
  190POPC   H7S21909   4.198   2.451  10.098 -1.1211 -0.2274  0.0062
  190POPC   C2821910   4.278   2.627   9.991  0.4293 -0.4024 -0.4001
  190POPC   H8R21911   4.330   2.724  10.006 -1.0186 -0.0695  2.9428
  190POPC   H8S21912   4.182   2.644   9.938  1.7690  3.1081 -1.8534
  190POPC   C2921913   4.366   2.547   9.898  0.3822 -0.6319 -0.1173
  190POPC   H9121914   4.467   2.531   9.938  0.2521 -0.9625  0.0851
  190POPC  C21021915   4.320   2.479   9.789  0.7210  0.4124 -0.2734
  190POPC  H10121916   4.395   2.417   9.738  1.8055 -0.7744  2.6633
  190POPC  C21121917   4.184   2.480   9.726 -0.4118  0.1387 -0.4585
  190POPC  H11R21918   4.106   2.505   9.800 -0.0139  1.1673 -0.3829
  190POPC  H11S21919   4.165   2.374   9.698 -0.1292  0.4040 -1.6766
  190POPC  C21221920   4.178   2.591   9.621 -0.4324 -0.4505 -0.0550
  190POPC  H12R21921   4.222   2.685   9.662  1.5937 -0.6677 -1.6646
  190POPC  H12S21922   4.071   2.610   9.596 -0.4254 -2.2297 -1.5155
  190POPC  C21321923   4.258   2.550   9.494  0.1322  0.0363 -0.3746
  190POPC  H13R21924   4.333   2.473   9.522  1.5169  0.8159 -1.8516
  190POPC  H13S21925   4.303   2.646   9.463 -2.2857  1.3162 -0.0509
  190POPC  C21421926   4.157   2.496   9.392 -0.0489  0.4890 -0.3073
  190POPC  H14R21927   4.076   2.563   9.357  0.6846  3.2392  3.0092
  190POPC  H14S21928   4.119   2.399   9.431  0.8439  0.7917  1.3505
  190POPC  C21521929   4.216   2.436   9.268  0.5542 -0.0857  0.3411
  190POPC  H15R21930   4.263   2.339   9.293 -1.4240 -0.7448  1.6652
  190POPC  H15S21931   4.297   2.500   9.226 -0.7526  0.0563 -2.0517
  190POPC  C21621932   4.113   2.426   9.149  0.0729 -0.1522  0.5468
  190POPC  H16R21933   4.153   2.488   9.066  1.9891  0.4476  1.8772
  190POPC  H16S21934   4.016   2.471   9.178 -0.4226 -0.2392 -0.9145
  190POPC  C21721935   4.072   2.285   9.098 -1.2557 -0.9224  0.1696
  190POPC  H17R21936   4.059   2.208   9.177  0.5180 -0.6395  0.7658
  190POPC  H17S21937   4.164   2.252   9.046  0.1468  0.3120  1.8079
  190POPC  C21821938   3.958   2.299   8.992  1.0329  0.8318  0.3301
  190POPC  H18R21939   3.973   2.372   8.909 -2.4695  1.8337  0.5045
  190POPC  H18S21940   3.867   2.324   9.049  1.0817  1.3747  0.1725
  190POPC  H18T21941   3.941   2.204   8.938 -2.4542  0.6963  1.5421
  190POPC   C3321942   4.771   1.886  10.455 -0.6634 -0.2716  0.3973
  190POPC   H3X21943   4.777   1.776  10.472 -1.7862 -0.3729  0.1873
  190POPC   H3Y21944   4.876   1.920  10.460 -0.1749 -1.1674 -2.5424
  190POPC   C3421945   4.708   1.911  10.314 -0.4603  1.1657  0.6143
  190POPC   H4X21946   4.691   2.018  10.289 -2.5478  1.2389  2.1755
  190POPC   H4Y21947   4.617   1.847  10.305  1.1983 -1.3596  1.3122
  190POPC   C3521948   4.804   1.883  10.189  0.0285 -0.1455 -0.3950
  190POPC   H5X21949   4.844   1.780  10.192 -2.0903 -0.9924 -0.0528
  190POPC   H5Y21950   4.900   1.937  10.206  0.2451 -0.7357  0.2851
  190POPC   C3621951   4.741   1.904  10.054 -0.7900 -0.2306 -0.4296
  190POPC   H6X21952   4.723   2.013  10.042  2.3102  0.2124 -1.3519
  190POPC   H6Y21953   4.643   1.852  10.042 -0.8089 -0.3238  0.1072
  190POPC   C3721954   4.824   1.851   9.931  0.1005 -0.3148  0.7906
  190POPC   H7X21955   4.830   1.741   9.944  1.3778 -0.2553  0.8030
  190POPC   H7Y21956   4.919   1.906   9.914 -0.6140  0.8635  0.5415
  190POPC   C3821957   4.756   1.887   9.798  0.0347 -0.4741 -0.1879
  190POPC   H8X21958   4.727   1.994   9.790 -1.2907 -0.8422 -0.3188
  190POPC   H8Y21959   4.660   1.833   9.798 -1.4161  1.9913  1.0109
  190POPC   C3921960   4.832   1.841   9.678  1.2382 -0.6534 -0.5251
  190POPC   H9X21961   4.837   1.730   9.669 -0.0400 -0.6137 -2.0945
  190POPC   H9Y21962   4.936   1.880   9.685  1.4015 -0.8795 -1.6020
  190POPC  C31021963   4.760   1.890   9.552  0.5468  0.4488 -0.7720
  190POPC  H10X21964   4.731   1.997   9.564 -0.7672 -0.1420  1.4295
  190POPC  H10Y21965   4.667   1.830   9.547  1.2886 -0.6576 -1.4968
  190POPC  C31121966   4.842   1.878   9.425  0.1112  0.0600  1.3853
  190POPC  H11X21967   4.887   1.776   9.425 -3.1405 -1.4430  1.1158
  190POPC  H11Y21968   4.924   1.952   9.414 -1.5247  1.9314  1.6402
  190POPC  C31221969   4.758   1.892   9.299 -0.0228 -0.1961 -0.1495
  190POPC  H12X21970   4.696   1.985   9.300  1.3036  0.7283 -0.9103
  190POPC  H12Y21971   4.678   1.817   9.280 -0.9743  0.5995  0.6681
  190POPC  C31321972   4.848   1.868   9.173  0.5749  0.1249  0.2098
  190POPC  H13X21973   4.937   1.802   9.182 -0.1681 -0.9459 -0.0429
  190POPC  H13Y21974   4.882   1.969   9.143  2.3127 -0.4308  0.2364
  190POPC  C31421975   4.761   1.794   9.074 -0.0109 -0.2814  0.6228
  190POPC  H14X21976   4.661   1.841   9.066  0.0395 -0.2536  0.1229
  190POPC  H14Y21977   4.739   1.692   9.113 -0.7921 -1.0065 -1.6405
  190POPC  C31521978   4.827   1.766   8.933 -0.5885 -0.5805  0.4229
  190POPC  H15X21979   4.771   1.683   8.886 -0.5951 -1.4834  2.0001
  190POPC  H15Y21980   4.933   1.733   8.925 -0.0522  1.2771 -0.6996
  190POPC  C31621981   4.809   1.890   8.844 -0.0471 -0.6823  0.0423
  190POPC  H16X21982   4.750   1.864   8.754  1.1406  0.9973 -1.2587
  190POPC  H16Y21983   4.908   1.933   8.814 -0.7296  1.2382  0.4636
  190POPC  H16Z21984   4.749   1.966   8.898 -0.1543 -0.2279 -0.6973
  191POPC     N21985   6.532   2.353   5.988 -0.1102 -0.2000 -0.1615
  191POPC   C1221986   6.462   2.488   5.991  0.8495  1.0914 -0.3074
  191POPC  H12A21987   6.369   2.470   5.939 -0.4037 -0.9392  2.4675
  191POPC  H12B21988   6.515   2.562   5.934  0.6304  1.0209 -0.6050
  191POPC   C1321989   6.590   2.331   5.847  0.9060 -0.0655  0.6134
  191POPC  H13A21990   6.508   2.300   5.784  1.0012  0.9724 -0.0436
  191POPC  H13B21991   6.644   2.413   5.800 -0.9684  1.2726  0.7421
  191POPC  H13C21992   6.661   2.250   5.846  0.3995 -0.5672 -3.7365
  191POPC   C1421993   6.646   2.344   6.088  0.4397  0.1548 -0.2066
  191POPC  H14A21994   6.694   2.249   6.069 -1.1879 -0.0909 -3.5432
  191POPC  H14B21995   6.718   2.424   6.086 -1.4625  1.9898  2.1169
  191POPC  H14C21996   6.625   2.349   6.194 -0.0440 -0.8663 -0.2458
  191POPC   C1521997   6.430   2.247   6.014 -0.7768  0.4945  0.5025
  191POPC  H15A21998   6.471   2.175   6.083  0.8727  2.1248  1.2666
  191POPC  H15B21999   6.394   2.195   5.927 -1.6077 -1.0641  1.7525
  191POPC  H15C22000   6.347   2.286   6.072 -1.2915  0.1759 -0.0147
  191POPC   C1122001   6.422   2.551   6.132 -0.4100 -0.2052 -0.6112
  191POPC  H11A22002   6.371   2.648   6.113  0.5033  0.0883 -1.5972
  191POPC  H11B22003   6.516   2.575   6.185 -0.5825 -3.0011  1.0667
  191POPC     P22004   6.354   2.440   6.358  0.0578  0.1847 -0.1219
  191POPC   O1322005   6.485   2.376   6.386  0.0094  0.1914 -0.1505
  191POPC   O1422006   6.229   2.378   6.400 -0.2920 -0.0234 -0.4587
  191POPC   O1222007   6.338   2.462   6.203 -0.4952 -0.4165 -0.9262
  191POPC   O1122008   6.359   2.589   6.409 -0.8249 -0.3222  0.6629
  191POPC    C122009   6.241   2.665   6.408 -0.6489  0.1499 -0.0817
  191POPC    HA22010   6.149   2.608   6.383 -1.5718  0.9526  1.3953
  191POPC    HB22011   6.261   2.739   6.328  2.9704 -1.9754 -1.2484
  191POPC    C222012   6.209   2.737   6.546 -0.4876 -0.6704  0.1762
  191POPC    HS22013   6.117   2.799   6.556  0.2227  0.3911  0.2336
  191POPC   O2122014   6.326   2.809   6.594  0.3213 -0.2795  0.0487
  191POPC   C2122015   6.329   2.930   6.531 -0.3345  0.2320  0.6194
  191POPC   O2222016   6.245   2.962   6.444  0.3331  0.1443  0.5289
  191POPC   C2222017   6.439   3.012   6.572  0.3749  0.1696  0.0413
  191POPC   H2R22018   6.536   2.959   6.572 -0.5687 -1.5924 -0.5554
  191POPC   H2S22019   6.422   3.039   6.679 -1.0794 -0.7002  0.0388
  191POPC    C322020   6.195   2.621   6.656 -0.1407 -0.0802 -0.9832
  191POPC    HX22021   6.295   2.581   6.681 -0.7966 -0.9446  0.2817
  191POPC    HY22022   6.142   2.540   6.601 -1.0694  1.1469 -1.9336
  191POPC   O3122023   6.120   2.667   6.773 -0.1060  0.7461 -0.1094
  191POPC   C3122024   6.071   2.563   6.848 -0.1916  0.3145 -0.2126
  191POPC   O3222025   6.078   2.447   6.812  0.0225  0.0635 -0.2567
  191POPC   C3222026   5.997   2.604   6.976  0.1217 -0.1492 -0.1857
  191POPC   H2X22027   5.927   2.523   7.003 -0.3521 -0.1308 -1.3088
  191POPC   H2Y22028   5.932   2.694   6.967  2.1203  1.2197 -1.7287
  191POPC   C2322029   6.454   3.145   6.497  0.4845 -0.5642  0.7346
  191POPC   H3R22030   6.473   3.125   6.390 -0.0721 -1.3171  0.7715
  191POPC   H3S22031   6.546   3.195   6.535 -1.7280  0.5885  4.8833
  191POPC   C2422032   6.349   3.254   6.522  0.0120 -0.4906  0.7767
  191POPC   H4R22033   6.250   3.212   6.494 -0.7061  1.3896  0.4499
  191POPC   H4S22034   6.357   3.334   6.445 -0.1418 -0.9832  0.2405
  191POPC   C2522035   6.345   3.304   6.671  0.2093  0.9121 -0.3553
  191POPC   H5R22036   6.448   3.331   6.702 -0.2742  1.7331  0.5868
  191POPC   H5S22037   6.323   3.215   6.733  1.4855  0.8565  0.0254
  191POPC   C2622038   6.251   3.420   6.713 -0.4726 -0.2564 -0.3644
  191POPC   H6R22039   6.148   3.379   6.722 -0.7262  0.5582  0.5307
  191POPC   H6S22040   6.242   3.497   6.633 -1.6187 -2.6833 -2.6364
  191POPC   C2722041   6.299   3.502   6.834 -0.0144 -0.5922 -0.6336
  191POPC   H7R22042   6.402   3.538   6.817 -0.1838  1.1104  1.6763
  191POPC   H7S22043   6.306   3.438   6.924  1.2337  1.6489  0.8835
  191POPC   C2822044   6.209   3.630   6.857  0.0708  0.4319 -0.3137
  191POPC   H8R22045   6.242   3.708   6.785  2.0958 -1.7987 -1.9157
  191POPC   H8S22046   6.243   3.658   6.959 -1.9054  0.5628  0.3208
  191POPC   C2922047   6.057   3.618   6.857 -0.4971  0.0745 -0.3720
  191POPC   H9122048   6.009   3.581   6.766  0.6076 -1.5549 -0.3171
  191POPC  C21022049   5.972   3.638   6.963  0.7093  0.3304  0.7118
  191POPC  H10122050   5.864   3.633   6.942  0.8064  1.5896 -0.1731
  191POPC  C21122051   6.000   3.675   7.105  0.1525  0.2445 -0.0466
  191POPC  H11R22052   5.993   3.784   7.125  1.0125  0.5301 -1.2719
  191POPC  H11S22053   6.092   3.631   7.147  0.5366  1.1932  0.1144
  191POPC  C21222054   5.890   3.608   7.196 -0.4876 -0.2891 -0.4830
  191POPC  H12R22055   5.879   3.501   7.168  0.1634 -1.0561  2.0440
  191POPC  H12S22056   5.793   3.656   7.167 -0.2425 -0.0429 -0.9127
  191POPC  C21322057   5.920   3.632   7.346  0.3928 -0.3420  0.8378
  191POPC  H13R22058   5.910   3.736   7.384 -0.8899 -0.0902 -0.1537
  191POPC  H13S22059   6.024   3.592   7.357 -0.7126 -3.5486  0.2026
  191POPC  C21422060   5.814   3.567   7.435  0.0971 -0.4139  0.5077
  191POPC  H14R22061   5.804   3.459   7.410  1.8384 -1.0826  2.4754
  191POPC  H14S22062   5.722   3.629   7.431  2.6872  3.6493  1.0965
  191POPC  C21522063   5.860   3.562   7.588 -0.2168  0.1874  0.3010
  191POPC  H15R22064   5.866   3.667   7.622 -1.7335  1.0810 -2.1139
  191POPC  H15S22065   5.958   3.512   7.605  0.6805  1.5892 -0.7071
  191POPC  C21622066   5.757   3.489   7.679  0.5709  0.0161  0.3254
  191POPC  H16R22067   5.750   3.384   7.643  1.0710 -0.0842  0.5154
  191POPC  H16S22068   5.662   3.540   7.652  0.9309 -0.5288 -2.0958
  191POPC  C21722069   5.783   3.492   7.829 -0.1860 -0.1627  0.6566
  191POPC  H17R22070   5.705   3.429   7.877 -3.0182  1.5811 -1.4358
  191POPC  H17S22071   5.764   3.599   7.852 -2.7437 -0.5467  0.4906
  191POPC  C21822072   5.923   3.449   7.866  0.0140 -0.2401  0.0710
  191POPC  H18R22073   5.939   3.353   7.812  0.2348  0.8092 -1.7688
  191POPC  H18S22074   5.938   3.432   7.975  1.3015 -1.5202 -0.2808
  191POPC  H18T22075   6.005   3.508   7.820 -0.7082  0.8131  0.1275
  191POPC   C3322076   6.078   2.621   7.104 -0.5865 -0.4143 -0.3785
  191POPC   H3X22077   6.138   2.715   7.104 -1.6097  0.2579  0.5572
  191POPC   H3Y22078   6.135   2.527   7.117 -0.8195 -0.3195  1.6204
  191POPC   C3422079   5.987   2.629   7.230  0.0615 -0.2593 -0.2859
  191POPC   H4X22080   5.893   2.574   7.212 -0.7631  0.9485  0.2799
  191POPC   H4Y22081   5.963   2.736   7.252 -1.1214 -0.9093  1.6698
  191POPC   C3522082   6.055   2.568   7.345 -0.1722  0.1435 -0.0770
  191POPC   H5X22083   6.156   2.612   7.353  0.0335  0.5950 -4.0325
  191POPC   H5Y22084   6.082   2.464   7.320 -0.5109 -0.2787  1.2775
  191POPC   C3622085   5.976   2.561   7.482 -0.7753  0.6556  0.3157
  191POPC   H6X22086   5.880   2.509   7.465 -0.3669 -0.2339  0.7186
  191POPC   H6Y22087   5.959   2.669   7.505 -0.9440  0.9879 -1.2690
  191POPC   C3722088   6.045   2.494   7.603 -0.2296 -0.1838  0.0545
  191POPC   H7X22089   6.101   2.576   7.654 -0.5735 -0.2081  0.4718
  191POPC   H7Y22090   6.116   2.423   7.555 -0.5995  1.2404 -2.7001
  191POPC   C3822091   5.943   2.423   7.687  0.5456 -0.7834  0.1592
  191POPC   H8X22092   5.995   2.384   7.777  0.8484  2.4211  1.4323
  191POPC   H8Y22093   5.904   2.335   7.631 -1.7975 -0.2558  0.9386
  191POPC   C3922094   5.829   2.512   7.730 -0.1493 -0.2438  0.3127
  191POPC   H9X22095   5.765   2.526   7.640  0.1454 -0.6735  0.0330
  191POPC   H9Y22096   5.865   2.616   7.742 -0.5512 -0.1351  0.5903
  191POPC  C31022097   5.756   2.457   7.850 -0.0164 -0.1952 -0.1138
  191POPC  H10X22098   5.734   2.349   7.837 -0.3753 -0.1996  0.5269
  191POPC  H10Y22099   5.659   2.511   7.856 -0.5335 -1.0530 -0.7028
  191POPC  C31122100   5.840   2.486   7.980 -0.2361 -0.0524 -0.3777
  191POPC  H11X22101   5.847   2.597   7.985  0.9784 -0.0830 -1.2090
  191POPC  H11Y22102   5.935   2.429   7.974  0.1571  0.4735  0.6060
  191POPC  C31222103   5.759   2.441   8.100 -0.7572 -0.3225  1.0561
  191POPC  H12X22104   5.767   2.331   8.108  1.9196 -0.1615  0.9813
  191POPC  H12Y22105   5.655   2.479   8.094 -0.0614  1.6267  0.8656
  191POPC  C31322106   5.803   2.509   8.225  0.4798  0.0888 -1.0704
  191POPC  H13X22107   5.812   2.618   8.209 -1.7174  0.5362  0.4870
  191POPC  H13Y22108   5.907   2.471   8.240  0.0513 -0.4268  0.8215
  191POPC  C31422109   5.714   2.479   8.350  0.5222  0.7253 -0.6324
  191POPC  H14X22110   5.709   2.372   8.376 -1.0358  1.5919  2.8986
  191POPC  H14Y22111   5.609   2.509   8.331 -0.1579 -0.6055  1.0044
  191POPC  C31522112   5.768   2.543   8.483 -0.1670  0.7630  0.0418
  191POPC  H15X22113   5.774   2.648   8.447  1.4984 -0.1403 -2.4864
  191POPC  H15Y22114   5.873   2.512   8.501 -0.4688  1.2187  2.7626
  191POPC  C31622115   5.675   2.513   8.603 -0.6412  0.4016 -0.1473
  191POPC  H16X22116   5.573   2.554   8.586 -0.7131 -0.4536 -1.9459
  191POPC  H16Y22117   5.713   2.555   8.698  2.8787  0.0573 -1.3396
  191POPC  H16Z22118   5.670   2.403   8.614  0.5124  0.2465 -1.0868
  192POPC     N22119   4.679   6.445   6.020 -0.4901 -1.0178 -0.0011
  192POPC   C1222120   4.721   6.479   6.162  0.2691  0.6741  0.1266
  192POPC  H12A22121   4.634   6.496   6.225 -0.2050  0.5731 -0.4978
  192POPC  H12B22122   4.778   6.570   6.163  0.5204  0.6126 -3.1175
  192POPC   C1322123   4.803   6.449   5.935 -0.0927  0.4211  0.3461
  192POPC  H13A22124   4.797   6.401   5.839 -1.4385  0.5834  0.3418
  192POPC  H13B22125   4.830   6.552   5.917 -0.5316  0.3674 -0.6438
  192POPC  H13C22126   4.878   6.389   5.986 -2.4599 -1.8184  1.2941
  192POPC   C1422127   4.599   6.318   6.019  0.4393  0.1313  0.6032
  192POPC  H14A22128   4.580   6.290   5.917  1.2129  3.1195 -0.4138
  192POPC  H14B22129   4.652   6.238   6.069  0.5790  0.0822  0.3741
  192POPC  H14C22130   4.502   6.337   6.062 -0.7680 -1.1332 -1.4403
  192POPC   C1522131   4.580   6.551   5.961  0.0719 -0.9645  0.3788
  192POPC  H15A22132   4.639   6.636   5.932  1.9044 -0.9162  3.9623
  192POPC  H15B22133   4.515   6.578   6.043 -1.7260 -4.0616  0.0935
  192POPC  H15C22134   4.517   6.506   5.886 -0.2115 -0.9944  0.6327
  192POPC   C1122135   4.805   6.370   6.240 -1.2370  0.2962 -0.2033
  192POPC  H11A22136   4.763   6.268   6.234  0.2362 -0.2832 -1.0969
  192POPC  H11B22137   4.810   6.395   6.348  0.5618 -1.5468  0.1735
  192POPC     P22138   5.051   6.447   6.218 -0.2562  0.2683  0.1695
  192POPC   O1322139   4.999   6.571   6.272 -0.2282 -0.4427  0.2774
  192POPC   O1422140   5.119   6.471   6.087  0.4691  0.1983 -0.0769
  192POPC   O1222141   4.933   6.353   6.188  0.2230  0.1831 -0.0190
  192POPC   O1122142   5.146   6.376   6.320 -0.2867 -0.0855 -0.1469
  192POPC    C122143   5.167   6.233   6.316 -0.2303  0.3663  0.4702
  192POPC    HA22144   5.273   6.211   6.341 -0.3820  1.0328  1.7552
  192POPC    HB22145   5.162   6.172   6.223  0.9778 -0.9788  1.2589
  192POPC    C222146   5.092   6.162   6.429 -0.8587 -0.1356  0.1159
  192POPC    HS22147   4.984   6.186   6.418 -0.7064 -0.0625 -1.3097
  192POPC   O2122148   5.142   6.210   6.553 -0.3420  0.6562 -0.4514
  192POPC   C2122149   5.061   6.263   6.650 -0.3849  0.1656 -0.1922
  192POPC   O2222150   4.958   6.324   6.626 -0.1193  0.0135  0.5356
  192POPC   C2222151   5.146   6.272   6.779  0.4555 -0.1538  0.0730
  192POPC   H2R22152   5.165   6.380   6.790  1.7653 -0.4410  0.7568
  192POPC   H2S22153   5.246   6.225   6.763  0.2371 -1.4689  2.4258
  192POPC    C322154   5.102   6.006   6.420 -0.4960 -0.0536  0.2836
  192POPC    HX22155   5.205   5.972   6.443 -1.3724 -3.4816 -0.5040
  192POPC    HY22156   5.076   5.982   6.314 -1.5267 -0.5302  0.6318
  192POPC   O3122157   5.016   5.931   6.508  0.0187 -0.3239 -0.5394
  192POPC   C3122158   4.887   5.940   6.469 -0.8992 -0.2619 -0.0014
  192POPC   O3222159   4.854   5.986   6.362  1.1920 -0.0181  0.0151
  192POPC   C3222160   4.787   5.877   6.574 -0.0880  1.1744  0.4937
  192POPC   H2X22161   4.800   5.767   6.575 -1.6492  0.9810  1.7727
  192POPC   H2Y22162   4.683   5.890   6.537 -0.0981 -1.3609 -0.4190
  192POPC   C2322163   5.067   6.210   6.892 -0.1903  0.8758 -0.5244
  192POPC   H3R22164   5.073   6.100   6.878 -2.8428  0.7275 -0.7087
  192POPC   H3S22165   4.958   6.231   6.885  0.1153  3.2776  1.1543
  192POPC   C2422166   5.120   6.251   7.030  0.0933  0.1655 -0.3485
  192POPC   H4R22167   5.083   6.354   7.046 -0.0686  0.0326  0.1606
  192POPC   H4S22168   5.231   6.249   7.029  0.0931  0.0725 -0.3145
  192POPC   C2522169   5.058   6.158   7.139 -0.4754 -0.1075  0.2668
  192POPC   H5R22170   5.098   6.056   7.123  2.6722  1.1023  0.0232
  192POPC   H5S22171   4.949   6.171   7.117 -1.1919  1.3345  4.3680
  192POPC   C2622172   5.072   6.197   7.287  0.3668  0.7778  0.8785
  192POPC   H6R22173   5.077   6.307   7.297  0.1557  1.0482 -1.5393
  192POPC   H6S22174   5.175   6.170   7.319 -0.8704 -2.5940  2.2489
  192POPC   C2722175   4.966   6.138   7.389 -0.8108  1.2021  0.7554
  192POPC   H7R22176   4.933   6.033   7.378  2.5651  0.2609 -1.0477
  192POPC   H7S22177   4.876   6.203   7.375 -1.6990 -0.4110 -1.2635
  192POPC   C2822178   5.026   6.166   7.527 -0.7392 -0.3703  0.0083
  192POPC   H8R22179   5.028   6.277   7.530 -2.9122 -0.3044 -0.0712
  192POPC   H8S22180   5.120   6.111   7.547 -1.6254 -0.7561  3.4263
  192POPC   C2922181   4.925   6.117   7.628 -0.0568  0.2037  0.6504
  192POPC   H9122182   4.873   6.025   7.597  0.8979 -0.0909 -0.1107
  192POPC  C21022183   4.884   6.170   7.740  0.0453  0.4634 -0.0310
  192POPC  H10122184   4.804   6.120   7.797 -1.1644  2.2591 -0.0857
  192POPC  C21122185   4.933   6.295   7.801 -0.0688  0.1142 -0.0003
  192POPC  H11R22186   4.864   6.379   7.778 -1.4645 -0.9698  0.1097
  192POPC  H11S22187   5.031   6.326   7.760  0.5515 -0.4660  1.0223
  192POPC  C21222188   4.951   6.293   7.961  0.3595 -0.3322  0.3048
  192POPC  H12R22189   5.011   6.201   7.977 -2.5844 -2.7673 -1.8345
  192POPC  H12S22190   4.849   6.274   8.002  0.3823  1.1064  1.0402
  192POPC  C21322191   5.015   6.421   8.014  0.1713  0.8407  0.0879
  192POPC  H13R22192   4.970   6.501   7.952 -0.7074 -0.1214 -0.5281
  192POPC  H13S22193   5.125   6.411   8.003  0.2478 -2.1903  2.7527
  192POPC  C21422194   4.974   6.455   8.157  0.2951  0.2659  0.4976
  192POPC  H14R22195   4.993   6.366   8.221 -2.9998 -1.1303 -0.3420
  192POPC  H14S22196   4.867   6.483   8.160  0.5164  1.2760 -0.6530
  192POPC  C21522197   5.041   6.583   8.214  0.0750 -0.2774 -1.0645
  192POPC  H15R22198   5.038   6.663   8.137 -1.0237  0.4613 -0.2635
  192POPC  H15S22199   5.147   6.551   8.228  0.3708  1.4965  1.2927
  192POPC  C21622200   4.981   6.637   8.344  0.6201 -0.0317 -0.3023
  192POPC  H16R22201   4.976   6.554   8.418  0.3460  0.1850 -0.0747
  192POPC  H16S22202   4.878   6.662   8.310  0.4111 -0.8991 -0.3264
  192POPC  C21722203   5.056   6.751   8.416  0.2102  0.5860  0.3146
  192POPC  H17R22204   5.086   6.819   8.333 -0.4762  0.1707 -0.2882
  192POPC  H17S22205   5.152   6.715   8.459  0.7382  0.9927 -0.5093
  192POPC  C21822206   4.984   6.823   8.523 -0.2940 -0.8092 -0.1826
  192POPC  H18R22207   4.886   6.850   8.478 -0.8402 -0.5220  1.1475
  192POPC  H18S22208   5.053   6.908   8.540 -2.2526  0.7120  0.4339
  192POPC  H18T22209   4.973   6.752   8.608  0.3684 -0.6544  0.0308
  192POPC   C3322210   4.811   5.928   6.714 -0.1816  0.4309  0.2061
  192POPC   H3X22211   4.807   6.039   6.722  2.2203  0.5002  0.5757
  192POPC   H3Y22212   4.913   5.903   6.750 -0.5313 -0.8679  0.3236
  192POPC   C3422213   4.714   5.864   6.817  0.0387  0.0631 -0.4086
  192POPC   H4X22214   4.720   5.754   6.824 -0.9548  0.0055 -0.3779
  192POPC   H4Y22215   4.617   5.894   6.771  0.2834 -0.4626 -1.2892
  192POPC   C3522216   4.739   5.932   6.954 -0.0467 -0.2510 -0.0938
  192POPC   H5X22217   4.672   6.020   6.961  0.4568  0.2150 -1.0598
  192POPC   H5Y22218   4.840   5.978   6.954 -0.0412 -0.2312  1.4963
  192POPC   C3622219   4.709   5.838   7.073  0.3567 -0.2515 -0.5434
  192POPC   H6X22220   4.787   5.758   7.078  1.7998  1.1607  0.0626
  192POPC   H6Y22221   4.608   5.798   7.052 -0.2103  0.3362  1.0342
  192POPC   C3722222   4.695   5.911   7.211 -0.1403 -0.1578 -0.1967
  192POPC   H7X22223   4.587   5.931   7.224  0.0644  0.4113  0.6379
  192POPC   H7Y22224   4.753   6.005   7.202  2.5457 -1.5647  1.5987
  192POPC   C3822225   4.731   5.837   7.339 -0.1160 -0.5298 -0.3465
  192POPC   H8X22226   4.838   5.841   7.369 -0.0947 -2.2027 -0.1287
  192POPC   H8Y22227   4.701   5.732   7.317 -0.6410 -0.5006  0.2067
  192POPC   C3922228   4.654   5.898   7.459  0.1035 -0.3138  0.4454
  192POPC   H9X22229   4.544   5.906   7.441  0.3709  0.3182 -1.0074
  192POPC   H9Y22230   4.685   6.001   7.485  0.9050 -0.3442 -0.3642
  192POPC  C31022231   4.666   5.808   7.579  0.2819  0.2161  1.0250
  192POPC  H10X22232   4.773   5.778   7.575  0.1665 -0.0611 -0.1905
  192POPC  H10Y22233   4.610   5.715   7.556  0.5572  0.5520 -1.0550
  192POPC  C31122234   4.614   5.875   7.708  0.1389 -0.2986  0.1476
  192POPC  H11X22235   4.514   5.915   7.680  0.6665 -0.3065 -1.8304
  192POPC  H11Y22236   4.672   5.965   7.740  0.7645 -0.7488  0.2990
  192POPC  C31222237   4.617   5.780   7.831 -0.3918  0.0144  0.4474
  192POPC  H12X22238   4.550   5.692   7.823 -0.0322 -0.3940  1.7612
  192POPC  H12Y22239   4.599   5.838   7.924 -0.4778  0.3877  0.1989
  192POPC  C31322240   4.757   5.723   7.862  0.3109  0.0863 -0.2846
  192POPC  H13X22241   4.767   5.638   7.791  1.1850 -0.3545  0.3557
  192POPC  H13Y22242   4.755   5.680   7.964  0.1707 -0.8470 -0.6771
  192POPC  C31422243   4.863   5.832   7.850 -0.3781  0.3062 -0.0293
  192POPC  H14X22244   4.831   5.920   7.910  2.4456  1.2291  0.1805
  192POPC  H14Y22245   4.870   5.873   7.747  1.3611  1.4553  0.5225
  192POPC  C31522246   5.011   5.790   7.892 -0.2660  0.2915  1.0551
  192POPC  H15X22247   5.051   5.736   7.803 -2.1208 -2.4627  1.8391
  192POPC  H15Y22248   4.990   5.725   7.979 -0.1007  0.7931  1.4673
  192POPC  C31622249   5.105   5.895   7.919  0.0094  0.1445 -0.0158
  192POPC  H16X22250   5.206   5.850   7.930 -0.0738 -0.1024 -0.2841
  192POPC  H16Y22251   5.071   5.941   8.015 -0.6539 -2.2805  0.9396
  192POPC  H16Z22252   5.114   5.975   7.842 -2.7466  1.0817  0.5679
  193SOD    SOD22253   3.047   3.467   0.226  0.4479 -0.0334 -0.4833
  194SOD    SOD22254   2.131   0.950   5.966  0.0218 -0.2573  0.4329
  195SOD    SOD22255   1.699   6.403  12.592  0.4646 -0.1391  0.1202
  196SOD    SOD22256   1.317   5.100  14.311  0.5323 -0.8644 -0.1136
  197SOD    SOD22257   4.545   0.778  17.133 -0.1911  0.1479  0.6567
  198SOD    SOD22258   6.259   4.134   1.398 -0.2831 -0.4663 -0.0564
  199SOD    SOD22259   6.423   1.519   3.803  0.3431  0.4035  0.3681
  200SOD    SOD22260   1.392   2.217   6.421 -0.0760  0.0611  0.4044
  201SOD    SOD22261   6.205   3.876  14.060  0.0492  0.5337  0.0588
  202SOD    SOD22262   1.606   4.112  13.367 -0.2994  0.2637  0.1751
  203SOD    SOD22263   3.645   6.604   3.504 -0.0211  0.2309  0.1982
  204SOD    SOD22264   6.499   2.324   2.012  0.2023 -0.2323  0.0938
  205SOD    SOD22265   3.170   1.075  11.670 -0.6110 -0.1475 -0.1413
  206SOD    SOD22266   1.556   5.651   4.504  0.0184 -0.2734 -0.1145
  207SOD    SOD22267   3.436   4.057  15.631  0.1869  0.4406  0.4578
  208SOD    SOD22268   4.062   2.456  12.864  0.4905  0.3023  0.1096
  209SOD    SOD22269   1.733   5.074   4.390 -0.0092  0.1871  0.3383
  210SOD    SOD22270   3.149   0.571  11.243 -0.0609  0.2201 -0.0855
  211SOD    SOD22271   6.549   2.707  17.223 -0.1228 -0.1608 -0.4173
  212SOD    SOD22272   3.510   0.620   0.068  0.1181 -0.1112  0.2762
  213SOD    SOD22273   0.836   4.338   5.197  0.2562  0.2377 -0.3238
  214SOD    SOD22274   3.073   0.743   2.839 -0.2198 -0.0412  0.3624
  215SOD    SOD22275   5.509   0.198  12.067  0.2264  0.1570 -0.6153
  216SOD    SOD22276   0.484   4.672  14.988  0.0089  0.0829  0.2141
  217SOD    SOD22277   4.882   6.720  10.566 -0.0960  0.0700 -0.8405
  218SOD    SOD22278   6.476   3.889  12.517  0.1280 -0.7899 -0.2503
  219SOD    SOD22279   3.663   2.331  12.319  0.1702 -0.6178  0.2201
  220SOD    SOD22280   6.756   3.412  12.753 -0.0535  0.4390 -0.0794
  221SOD    SOD22281   6.245   2.271   5.607  0.0318 -0.3928 -0.2310
  222SOD    SOD22282   5.057   2.060  13.494 -0.0873 -0.4702  0.2572
  223SOD    SOD22283   1.291   4.820  12.826 -0.4941 -0.4146 -0.2593
  224SOD    SOD22284   2.175   0.256   2.321  0.0326  0.2423  0.1667
  225SOD    SOD22285   0.485   6.759  13.853 -0.4509 -0.2669 -0.1387
  226SOD    SOD22286   0.746   2.521  14.988  0.3093 -0.2758  0.4585
  227SOD    SOD22287   5.308   6.336  10.789 -0.4245  0.3471 -0.0300
  228SOD    SOD22288   1.720   5.066  11.376  0.0787  0.5608  0.0733
  229SOD    SOD22289   4.471   0.271   3.634 -0.0091 -0.3730 -0.5311
  230SOD    SOD22290   5.429   2.873   5.353 -0.1034  0.0972  0.0750
  231SOD    SOD22291   1.375   5.783   3.360  0.0069  0.6859  0.0365
  232SOD    SOD22292   5.367   6.066  15.315  0.4854  0.2656  0.0578
  233SOD    SOD22293   1.318   6.446  11.333  0.1552  0.2482  0.5535
  234SOD    SOD22294   2.697   6.337   1.108 -0.0146 -0.1202  0.0835
  235SOD    SOD22295   4.696   1.351  13.932 -0.1818 -0.0282  0.3420
  236SOD    SOD22296   2.115   2.012  10.957  0.4334 -0.2368 -0.2215
  237SOD    SOD22297   3.831   3.746  11.312 -0.4465 -0.1426  0.4144
  238SOD    SOD22298   2.277   6.626  14.103 -0.1986  0.0739 -0.0864
  239SOD    SOD22299   4.341   3.305   4.489 -0.0814 -0.1971  0.9526
  240SOD    SOD22300   4.602   0.636   6.403  0.2348 -0.0597 -0.4521
  241SOD    SOD22301   3.326   2.320   5.571 -0.0049  0.5459 -0.3765
  242SOD    SOD22302   4.477   2.363   6.267  0.5303 -0.2880  0.1724
  243SOD    SOD22303   0.250   2.287  13.170  0.4745  0.6469 -0.0770
  244SOD    SOD22304   6.506   5.553  15.953 -0.0126 -0.1224 -0.3648
  245SOD    SOD22305   6.482   0.499   3.803  0.3195  0.1798  0.2147
  246SOD    SOD22306   5.051   2.142   6.804  0.0048  0.1034  0.4388
  247SOD    SOD22307   2.341   4.700   5.437  0.5821  0.1970 -0.0296
  248SOD    SOD22308   6.628   4.251  15.152  0.1074 -0.6878  0.1936
  249SOD    SOD22309   4.842   4.393   1.221 -0.2592  0.0313 -0.4801
  250SOD    SOD22310   3.155   1.824  16.527 -0.0942  0.0761 -0.2162
  251SOD    SOD22311   3.148   2.891   4.900 -0.0987  0.1544  0.0884
  252SOD    SOD22312   3.577   6.408  11.558  0.2838 -0.4578  0.1700
  253SOD    SOD22313   5.674   5.670  13.298 -0.6297 -0.1050  0.0739
  254SOD    SOD22314   0.602   5.525   0.236 -0.2938 -0.2881  0.1709
  255SOD    SOD22315   4.674   5.402   1.160 -0.1412  0.3803  0.0584
  256SOD    SOD22316   2.722   4.845   0.501  0.1007 -0.6277 -0.0764
  257SOD    SOD22317   3.188   5.332   5.447 -0.0103  0.1580  0.1233
  258SOD    SOD22318   2.226   3.819  15.897  0.4778  0.6695 -0.4035
  259SOD    SOD22319   0.931   4.098  10.768  0.4179  0.5783 -0.0512
  260SOD    SOD22320   5.499   3.959  11.478  0.2618  0.3505  0.5167
  261SOD    SOD22321   0.542   3.317   0.061  0.1573  0.0488  0.1471
  262SOD    SOD22322   0.350   0.499   6.163  0.2282 -0.0069 -0.1047
  263SOD    SOD22323   1.124   1.590   5.457  0.3746  0.0886 -0.1864
  264SOD    SOD22324   2.970   2.590   4.201 -0.2791  0.0958 -0.3929
  265SOD    SOD22325   2.456   3.500   0.875  0.1065  0.2127 -0.1955
  266SOD    SOD22326   6.044   1.503  13.082 -0.2177  0.1394 -0.3091
  267SOD    SOD22327   4.480   2.165   4.374 -0.4670 -0.8184  0.2373
  268SOD    SOD22328   1.706   2.355  10.688 -0.1081  0.0589  0.2040
  269SOD    SOD22329   0.020   5.516   0.224  0.6307  0.6303 -0.0249
  270CLA    CLA22330   2.158   1.691   3.552 -0.1919 -0.3148 -0.0802
  271CLA    CLA22331   6.627   2.302  15.651  0.1691  0.1681  0.0434
  272CLA    CLA22332   2.736   5.459   3.337 -0.3017 -0.4344  0.0797
  273CLA    CLA22333   0.353   1.375   0.687  0.3730  0.0560  0.0306
  274CLA    CLA22334   0.532   1.858   4.408  0.1611  0.2739 -0.3384
  275CLA    CLA22335   2.898   4.822   4.344  0.2577 -0.0627 -0.0724
  276CLA    CLA22336   2.117   3.557   0.324  0.1523  0.1271 -0.0215
  277CLA    CLA22337   1.366   5.306   0.115 -0.2217 -0.2353  0.2188
  278CLA    CLA22338   6.237   5.228  13.048 -0.3061 -0.1687 -0.2573
  279CLA    CLA22339   2.688   5.871  15.574  0.0687 -0.0640 -0.5219
  280CLA    CLA22340   5.704   6.234  15.706 -0.2075 -0.4169  0.5011
  281CLA    CLA22341   3.580   0.191  17.150 -0.4498  0.1998 -0.2102
  282CLA    CLA22342   6.215   0.493  14.129  0.2126  0.1784  0.2824
  283CLA    CLA22343   2.170   6.594   2.090  0.2327 -0.0081 -0.2900
  284CLA    CLA22344   0.436   6.445   4.102  0.3213  0.1178  0.2383
  285CLA    CLA22345   6.674   3.166   1.409  0.0575  0.0908 -0.2347
  286CLA    CLA22346   4.900   0.785   3.841  0.0614 -0.3044 -0.3555
  287CLA    CLA22347   1.876   5.447   3.918  0.1321 -0.0758 -0.0050
  288CLA    CLA22348   0.766   3.790  16.439  0.4339  0.1575 -0.2031
  289CLA    CLA22349   0.116   1.797   1.912 -0.3020  0.1093  0.5560
  290CLA    CLA22350   0.863   3.629  11.705 -0.3724 -0.1128 -0.0606
  291CLA    CLA22351   1.415   1.384   2.774  0.0775  0.5564 -0.1674
  292CLA    CLA22352   3.985   2.882  14.478 -0.0873  0.2188  0.3015
  293CLA    CLA22353   5.050   3.011   4.052 -0.0696 -0.1910 -0.4526
  294CLA    CLA22354   0.628   2.354  16.926  0.7012  0.1968 -0.3709
  295CLA    CLA22355   0.862   2.165  13.917  0.2722  0.3140  0.5872
  296CLA    CLA22356   5.555   4.201  12.591 -0.0610  0.0116  0.2425
  297CLA    CLA22357   1.774   6.359  16.124  0.1908  0.2330 -0.0189
  298CLA    CLA22358   2.219   5.310  14.599 -0.3344  0.0358  0.0428
  299CLA    CLA22359   1.026   5.522  13.054  0.5841 -0.1496  0.0006
  300CLA    CLA22360   4.169   0.620   5.485  0.1667 -0.3037 -0.1214
  301CLA    CLA22361   5.938   2.675  11.843 -0.0930  0.4433  0.2304
  302CLA    CLA22362   1.664   5.222  12.216 -0.1378  0.3008  0.2511
  303CLA    CLA22363   2.805   4.480   3.291  0.0448 -0.2679 -0.2026
  304CLA    CLA22364   1.087   4.380  12.683  0.4946 -0.1591 -0.0227
  305CLA    CLA22365   5.280   3.954  16.414  0.3272 -0.3772 -0.0132
  306CLA    CLA22366   2.765   2.340  13.226  0.3296  0.3260 -0.1127
  307CLA    CLA22367   5.116   3.733   0.567  0.0145 -0.2941 -0.7277
  308CLA    CLA22368   2.965   1.001   1.225  0.2994  0.1129 -0.5103
  309CLA    CLA22369   6.425   3.689   4.822 -0.0970 -0.4268  0.3983
  310CLA    CLA22370   6.195   4.388   5.195  0.1739 -0.0418 -0.1101
  311CLA    CLA22371   2.975   4.488  14.191 -0.0498  0.4998 -0.1056
  312CLA    CLA22372   3.500   3.587  15.590  0.1069  0.4457  0.4784
  313CLA    CLA22373   0.516   1.921  13.647  0.3335  0.2144 -0.0294
  314CLA    CLA22374   4.721   6.737  15.684 -0.1420 -0.1279 -0.0836
  315CLA    CLA22375   6.196   4.422  16.731  0.4388 -0.2121 -0.1551
  316CLA    CLA22376   2.371   3.872  16.615  0.1521  0.0701  0.5468
  317CLA    CLA22377   3.116   0.034   2.113 -0.0584  0.2633 -0.0832
  318CLA    CLA22378   1.292   3.829  15.632 -0.2673  0.1000  0.4401
  319CLA    CLA22379   0.036   4.902  14.960  0.1136  0.2225 -0.1881
  320CLA    CLA22380   4.842   0.135  11.002 -0.0050  0.6668  0.3078
  321CLA    CLA22381   2.936   2.508   3.635 -0.0906  0.0923 -0.0080
  322CLA    CLA22382   4.841   2.545  13.758 -0.2739 -0.1219 -0.3061
  323TIP3   OH222383   4.304   2.431  14.267  0.1606  0.0499 -0.0389
  323TIP3    H122384   4.232   2.372  14.242 -0.5068  0.5050  0.7519
  323TIP3    H222385   4.264   2.518  14.265  0.5314  0.2457  0.9746
  324TIP3   OH222386   1.790   1.956  14.017  0.2469  0.5756 -0.1586
  324TIP3    H122387   1.850   1.920  14.082 -0.3945  0.6712  0.4933
  324TIP3    H222388   1.817   1.915  13.934 -1.2937 -2.4450  0.7674
  325TIP3   OH222389   1.967   3.704   3.011 -0.1798 -0.2197 -0.3496
  325TIP3    H122390   1.902   3.666   2.952  0.1655  0.4408 -1.1590
  325TIP3    H222391   2.052   3.679   2.973  0.0506 -1.2130  0.7905
  326TIP3   OH222392   3.392   4.917   1.605  0.7325 -0.4779  0.1069
  326TIP3    H122393   3.400   4.909   1.510 -1.6671 -1.8458 -0.0405
  326TIP3    H222394   3.408   4.828   1.638 -1.1852 -0.6247  0.7207
  327TIP3   OH222395   1.473   5.496  13.290  0.5055  0.0810 -0.6985
  327TIP3    H122396   1.486   5.417  13.237  1.5339 -0.4685  0.3516
  327TIP3    H222397   1.379   5.501  13.303  0.5646 -2.1148  0.9080
  328TIP3   OH222398   0.795   5.364   4.222  0.1919 -0.3609  0.2097
  328TIP3    H122399   0.831   5.283   4.187 -0.7433 -1.0984  0.9118
  328TIP3    H222400   0.871   5.420   4.237  0.8917 -1.3023  0.2139
  329TIP3   OH222401   2.129   0.746   4.678 -0.1922  0.0618  0.7100
  329TIP3    H122402   2.150   0.756   4.586  0.9395  0.1715  0.9652
  329TIP3    H222403   2.199   0.793   4.724 -1.6857  1.4669  1.5783
  330TIP3   OH222404   4.741   1.495   0.871 -0.6971  0.1206 -0.4163
  330TIP3    H122405   4.803   1.564   0.848  0.6331 -1.0221 -0.3309
  330TIP3    H222406   4.678   1.537   0.928  0.6142  1.0524  0.3726
  331TIP3   OH222407   3.840   3.051  15.456 -0.0025  0.4946 -0.3276
  331TIP3    H122408   3.921   3.099  15.473  1.4205 -2.0298  0.1336
  331TIP3    H222409   3.798   3.044  15.542  0.2910  0.0168 -0.2231
  332TIP3   OH222410   3.713   3.811   6.241 -0.1360  0.4061  0.0117
  332TIP3    H122411   3.722   3.876   6.310  0.4174 -1.8153  2.1022
  332TIP3    H222412   3.632   3.835   6.195 -0.4382  1.9893  1.3529
  333TIP3   OH222413   6.069   4.372   4.712 -0.2504  0.3269  0.0032
  333TIP3    H122414   6.129   4.298   4.713 -1.0922 -0.3707 -0.8806
  333TIP3    H222415   6.120   4.445   4.677 -0.1743 -0.4853 -1.5865
  334TIP3   OH222416   2.195   3.747  17.179  0.2802  0.4624  0.0190
  334TIP3    H122417   2.233   3.798  17.107  0.2582  0.3907 -0.0430
  334TIP3    H222418   2.270   3.722  17.233  0.1035  2.3285  1.2048
  335TIP3   OH222419   0.517   4.769  13.211  0.7240 -0.2266 -0.0044
  335TIP3    H122420   0.517   4.803  13.121 -0.8836 -0.0942  0.0364
  335TIP3    H222421   0.453   4.823  13.257  0.2392 -1.4654  0.7917
  336TIP3   OH222422   0.067   4.932   3.017 -0.1822  0.3943  0.2589
  336TIP3    H122423  -0.002   4.880   3.058 -1.6924  1.7980 -0.4502
  336TIP3    H222424   0.064   5.016   3.062 -0.4003  1.2049 -1.2353
  337TIP3   OH222425   4.002   1.814   6.486  0.1371 -0.1472 -0.2289
  337TIP3    H122426   3.977   1.867   6.562  0.3067  0.9073 -0.8840
  337TIP3    H222427   4.088   1.779   6.509  0.8688  1.3882 -0.5049
  338TIP3   OH222428   3.890   1.894   2.281  0.3472  0.1089 -0.2548
  338TIP3    H122429   3.812   1.840   2.270 -0.8672  1.6805  0.3948
  338TIP3    H222430   3.915   1.882   2.372  1.2334 -0.8545 -0.6144
  339TIP3   OH222431   0.331   5.439   2.171 -0.7810  0.1349 -0.5838
  339TIP3    H122432   0.343   5.435   2.265 -1.3545 -1.2084 -0.5487
  339TIP3    H222433   0.237   5.453   2.159 -1.0445 -1.7554 -0.9502
  340TIP3   OH222434   1.743   1.725  15.979 -0.0531  0.0811 -0.0291
  340TIP3    H122435   1.770   1.690  16.064  0.1915  1.6188  0.5433
  340TIP3    H222436   1.669   1.783  15.998  2.1445  3.1479 -0.3385
  341TIP3   OH222437   0.708   2.726   1.451  0.1193  0.1393 -0.4291
  341TIP3    H122438   0.618   2.696   1.435  0.3232  0.3177 -1.9149
  341TIP3    H222439   0.720   2.800   1.391  2.5407 -2.2807 -3.0449
  342TIP3   OH222440   2.547   3.901  12.677 -0.0671  1.1085 -0.6650
  342TIP3    H122441   2.591   3.977  12.713 -0.8372  0.9332  0.7127
  342TIP3    H222442   2.456   3.911  12.704 -0.2016 -0.2232 -0.5538
  343TIP3   OH222443   3.891   6.517  16.734  0.7474  0.2856  0.2625
  343TIP3    H122444   3.804   6.503  16.771  0.9658  0.2908  0.7770
  343TIP3    H222445   3.947   6.453  16.776  1.3192  1.3299  1.1161
  344TIP3   OH222446   5.173   3.237   3.518  0.2576 -0.2674  0.8065
  344TIP3    H122447   5.161   3.227   3.424 -1.4568  2.2138  0.7223
  344TIP3    H222448   5.085   3.229   3.555  0.9805 -1.7359  2.2612
  345TIP3   OH222449   4.432   0.297  11.877  0.1759  0.2494  0.0631
  345TIP3    H122450   4.423   0.245  11.798  2.3801 -0.0073 -0.0513
  345TIP3    H222451   4.469   0.380  11.848  2.7618 -0.5349  1.0254
  346TIP3   OH222452   5.475   2.250  13.456  0.6825  0.3888 -0.1468
  346TIP3    H122453   5.417   2.308  13.505  0.5750 -0.4700  0.7313
  346TIP3    H222454   5.563   2.277  13.482  0.6522  0.6566 -0.3142
  347TIP3   OH222455   6.137   3.354   2.326 -0.2741 -0.3282 -0.1968
  347TIP3    H122456   6.104   3.332   2.238 -2.1627  0.2635  0.3468
  347TIP3    H222457   6.062   3.341   2.384  0.3903  1.2476  1.0538
  348TIP3   OH222458   4.866   6.082  14.349 -0.1696 -0.2434  0.2124
  348TIP3    H122459   4.875   6.144  14.421 -2.0012  0.4083 -0.0841
  348TIP3    H222460   4.837   6.135  14.275 -2.2390 -1.4905  0.0833
  349TIP3   OH222461   1.626   4.284   4.214  0.2610 -0.4762 -0.4489
  349TIP3    H122462   1.657   4.340   4.144  0.7123 -1.2933 -0.9076
  349TIP3    H222463   1.613   4.199   4.173 -1.6783 -0.4014 -0.0642
  350TIP3   OH222464   5.676   4.385  16.452 -0.0916  0.2141 -0.2056
  350TIP3    H122465   5.750   4.372  16.512 -1.3253  0.4024  1.3940
  350TIP3    H222466   5.600   4.390  16.509 -1.5110 -1.1722 -1.9175
  351TIP3   OH222467   1.243   3.619  15.392  0.5109 -0.0636 -0.2667
  351TIP3    H122468   1.246   3.678  15.468 -1.1993  1.2178 -1.1651
  351TIP3    H222469   1.152   3.589  15.388  0.7144 -0.5404 -1.4859
  352TIP3   OH222470   4.181   5.594  16.852 -0.6709 -0.7217 -0.2153
  352TIP3    H122471   4.165   5.603  16.946  0.0175 -1.0937 -0.0521
  352TIP3    H222472   4.219   5.678  16.826  2.8572 -1.9443  0.6639
  353TIP3   OH222473   4.129   4.223  12.381 -0.2390  0.2411  0.0822
  353TIP3    H122474   4.192   4.264  12.439 -0.2432 -0.0024  0.2614
  353TIP3    H222475   4.144   4.129  12.392 -1.6113  0.1382  1.2421
  354TIP3   OH222476   5.382   6.657   1.111  0.0556 -0.5854 -0.6505
  354TIP3    H122477   5.401   6.564   1.098  1.0866 -0.5580  0.5806
  354TIP3    H222478   5.370   6.666   1.206  0.6853  0.6640 -0.6803
  355TIP3   OH222479   2.175   6.203  16.450 -0.2705  0.3978 -0.6104
  355TIP3    H122480   2.144   6.144  16.519 -2.5328  1.5087 -0.6012
  355TIP3    H222481   2.100   6.211  16.392  0.5431  2.0363 -1.4412
  356TIP3   OH222482   1.091   6.399   2.595 -0.2438 -0.2160  0.3065
  356TIP3    H122483   0.997   6.399   2.578 -0.3906  0.7299  1.1057
  356TIP3    H222484   1.101   6.448   2.676  1.0682  0.8735 -0.5030
  357TIP3   OH222485   6.555   6.089  11.848 -0.5874 -0.0676  0.8038
  357TIP3    H122486   6.628   6.032  11.874 -0.2561  0.6061  1.3852
  357TIP3    H222487   6.550   6.153  11.919 -0.2460  1.2828 -0.3848
  358TIP3   OH222488   2.057   0.340   2.131  0.4684  0.1743 -0.4469
  358TIP3    H122489   2.042   0.249   2.104 -0.7308  0.3653 -0.4099
  358TIP3    H222490   2.013   0.393   2.065 -0.3333  0.6956  0.4867
  359TIP3   OH222491   4.381   6.207  17.213  0.1911  0.2935  0.5556
  359TIP3    H122492   4.423   6.243  17.134  0.4661 -0.5762  0.2984
  359TIP3    H222493   4.449   6.153  17.253 -0.5953 -0.9518  0.2556
  360TIP3   OH222494   6.099   0.254   2.399 -0.4588  0.3268  0.0069
  360TIP3    H122495   6.106   0.347   2.419  0.7909  0.4277 -0.8289
  360TIP3    H222496   6.172   0.237   2.339 -0.2145 -1.3456  0.7472
  361TIP3   OH222497   0.293   2.805  16.623  0.0743  0.2591 -0.4719
  361TIP3    H122498   0.282   2.887  16.576  0.0754  0.5992  0.1200
  361TIP3    H222499   0.347   2.751  16.565  0.6431  0.9210 -0.5529
  362TIP3   OH222500   3.009   0.836  17.118 -0.1426 -0.2668  0.3131
  362TIP3    H122501   3.033   0.746  17.096 -0.9166 -0.4173  0.0651
  362TIP3    H222502   2.923   0.849  17.077 -0.6497  0.1485  1.4899
  363TIP3   OH222503   1.945   0.339   2.858  0.0783  0.3773  0.2573
  363TIP3    H122504   1.912   0.409   2.915  0.5932 -0.0091  1.0320
  363TIP3    H222505   1.956   0.381   2.773 -1.4701  0.7563  0.2329
  364TIP3   OH222506   0.880   3.560   2.836  0.4098  0.3530 -0.4828
  364TIP3    H122507   0.839   3.500   2.897  1.8727  1.3099  1.4886
  364TIP3    H222508   0.814   3.628   2.821 -0.5991 -0.8002 -1.3757
  365TIP3   OH222509   6.511   2.459   3.425 -0.1900 -0.4617  0.2367
  365TIP3    H122510   6.483   2.404   3.351  0.5876 -1.7387  0.8862
  365TIP3    H222511   6.430   2.476   3.473 -0.2524 -2.2055  0.8042
  366TIP3   OH222512   1.913   2.162  10.955  0.4033  0.4308 -0.4600
  366TIP3    H122513   1.842   2.150  11.018  0.2223  1.8737 -0.3724
  366TIP3    H222514   1.960   2.240  10.986  0.8306  0.6450 -1.6182
  367TIP3   OH222515   2.500   1.772  12.868  0.3106 -0.6537  0.6971
  367TIP3    H122516   2.569   1.797  12.929 -1.1362 -1.8872  2.8840
  367TIP3    H222517   2.544   1.718  12.802  2.0908  1.6098 -0.0543
  368TIP3   OH222518   2.168   5.176   6.602  0.6169 -0.4576  0.6131
  368TIP3    H122519   2.135   5.097   6.644  1.6563 -0.8275  0.7402
  368TIP3    H222520   2.244   5.201   6.654  1.5727 -0.5953 -0.6940
  369TIP3   OH222521   4.245   4.141   4.713 -0.3976  0.2258  0.4107
  369TIP3    H122522   4.340   4.133   4.727 -0.2304 -0.4409 -1.0720
  369TIP3    H222523   4.233   4.123   4.620 -2.1777 -1.3312  0.9248
  370TIP3   OH222524   6.180   4.332   0.403 -0.7177 -0.4004  0.6850
  370TIP3    H122525   6.126   4.286   0.339 -0.4546  1.1829 -0.7355
  370TIP3    H222526   6.133   4.414   0.419  0.2744  0.1338  0.9083
  371TIP3   OH222527   0.949   0.134   1.339 -0.0525  0.0063 -0.0846
  371TIP3    H122528   0.888   0.177   1.399  0.8733 -0.7366  1.4098
  371TIP3    H222529   1.035   0.150   1.376  0.7305  1.4264 -2.4412
  372TIP3   OH222530   4.677   5.688   3.922  0.0583 -0.1795 -0.3432
  372TIP3    H122531   4.709   5.633   3.994  1.4886 -0.0520 -0.8610
  372TIP3    H222532   4.621   5.753   3.965  2.0477  0.8020  0.8894
  373TIP3   OH222533   6.486   3.914  16.390  0.9400  0.2689 -0.2375
  373TIP3    H122534   6.431   3.943  16.317  0.5199  0.9312  0.3471
  373TIP3    H222535   6.555   3.980  16.396  1.6143 -0.3749 -0.7439
  374TIP3   OH222536   6.465   4.632   1.051 -0.3132  0.0816 -0.1449
  374TIP3    H122537   6.454   4.716   1.005  1.4399  0.0118 -0.7180
  374TIP3    H222538   6.449   4.652   1.143  0.2801  1.0905 -0.2570
  375TIP3   OH222539   1.710   4.707  10.891  0.0485  0.1631  0.2036
  375TIP3    H122540   1.761   4.788  10.897  0.9675 -0.2489 -1.6303
  375TIP3    H222541   1.619   4.735  10.905  0.4525  1.3769  0.4763
  376TIP3   OH222542   1.187   6.084   1.074 -0.0195 -0.0040 -0.5491
  376TIP3    H122543   1.192   6.045   0.987  0.0584 -1.7027  0.1985
  376TIP3    H222544   1.136   6.021   1.126  1.2725  0.2030  1.0329
  377TIP3   OH222545   2.909   1.018  14.227  1.1048  0.3305 -0.0880
  377TIP3    H122546   2.962   1.001  14.149 -0.6228 -0.0006 -1.2338
  377TIP3    H222547   2.877   1.108  14.214  0.5482  0.1558  0.0627
  378TIP3   OH222548   1.946   2.158   6.440 -0.4005 -0.2823  0.7658
  378TIP3    H122549   1.885   2.100   6.395 -0.6952 -0.6469  1.6374
  378TIP3    H222550   1.914   2.246   6.421  1.1494 -0.2616 -2.1846
  379TIP3   OH222551   0.447   1.423  16.639 -0.4919 -0.4527 -0.7047
  379TIP3    H122552   0.365   1.404  16.595  0.2648 -1.4712 -1.7040
  379TIP3    H222553   0.486   1.494  16.588 -1.0440  0.5002  0.1666
  380TIP3   OH222554   3.852   5.492  11.428 -0.6081  0.9038 -0.2814
  380TIP3    H122555   3.842   5.435  11.504 -0.8683  0.6435 -0.5093
  380TIP3    H222556   3.907   5.564  11.459 -0.3461  0.5727  0.0312
  381TIP3   OH222557   0.475   5.825   0.371  0.2261  0.6009 -0.2138
  381TIP3    H122558   0.531   5.887   0.324  0.0749  1.2213  0.4232
  381TIP3    H222559   0.386   5.856   0.354  0.1725  0.8713  0.5417
  382TIP3   OH222560   6.149   6.306   3.586  0.0852  0.4911  0.0638
  382TIP3    H122561   6.132   6.273   3.498 -1.8745  0.9218  0.2655
  382TIP3    H222562   6.063   6.314   3.626  0.8413  1.7891  1.4938
  383TIP3   OH222563   1.579   0.874   3.804  0.3356  0.0368 -0.1053
  383TIP3    H122564   1.643   0.857   3.873  0.4679  1.7998  0.2051
  383TIP3    H222565   1.601   0.961   3.771  0.2537 -0.7506 -2.3501
  384TIP3   OH222566   5.848   6.085   4.697 -0.0907  0.0303  0.9264
  384TIP3    H122567   5.768   6.121   4.735 -0.5432 -0.3357  0.3295
  384TIP3    H222568   5.893   6.160   4.658 -0.7565  0.0416  0.1684
  385TIP3   OH222569   1.062   5.355   3.067  0.3662  0.2731  0.0953
  385TIP3    H122570   1.061   5.446   3.096  1.5468  0.4208 -0.2949
  385TIP3    H222571   0.974   5.322   3.088 -0.6708  1.9912 -1.3701
  386TIP3   OH222572   0.406   2.812   4.810 -0.1938  0.1934  0.1566
  386TIP3    H122573   0.324   2.764   4.825  0.8551 -1.5390  0.4640
  386TIP3    H222574   0.383   2.880   4.747 -1.4576 -1.4501 -1.1925
  387TIP3   OH222575   6.036   5.123  12.342  0.1199 -0.1896 -0.4239
  387TIP3    H122576   6.065   5.136  12.433  2.1612 -1.7786 -0.8175
  387TIP3    H222577   6.042   5.210  12.303  0.0352  0.3573  0.7457
  388TIP3   OH222578   1.058   6.457  14.109  0.5152 -0.0224 -0.3045
  388TIP3    H122579   0.965   6.472  14.128  1.1333  1.0678  2.0599
  388TIP3    H222580   1.100   6.540  14.133  2.4844 -1.5496  1.6596
  389TIP3   OH222581   3.191   0.063  13.922  0.4662  0.3645 -0.6449
  389TIP3    H122582   3.174   0.081  13.830 -0.8851 -2.5065 -1.0172
  389TIP3    H222583   3.105   0.072  13.964  0.5897 -0.8440 -0.1254
  390TIP3   OH222584   3.408   3.007  14.562  0.2259  0.1996  0.2913
  390TIP3    H122585   3.401   2.920  14.522  1.4596  0.6795 -1.0141
  390TIP3    H222586   3.499   3.032  14.548 -0.5663  2.4632 -0.9444
  391TIP3   OH222587   6.106   5.817  14.837  0.2843  0.2407  0.4482
  391TIP3    H122588   6.140   5.883  14.896  0.7617  1.7347 -1.4447
  391TIP3    H222589   6.178   5.799  14.776 -0.1948 -1.2353  0.2925
  392TIP3   OH222590   2.021   3.134   4.189  0.1886  0.3760  0.0609
  392TIP3    H122591   2.058   3.064   4.243 -1.1538 -1.3464 -1.2166
  392TIP3    H222592   2.095   3.193   4.174  1.1048 -0.2173  1.9819
  393TIP3   OH222593   0.212   3.347   5.042 -0.2230 -0.4320  0.3041
  393TIP3    H122594   0.269   3.345   5.118 -0.3811  1.1248  0.4765
  393TIP3    H222595   0.124   3.361   5.077 -0.1817  1.2082 -0.2012
  394TIP3   OH222596   1.376   6.515   6.514  0.5488  0.6857 -0.2071
  394TIP3    H122597   1.295   6.553   6.548 -0.0430  0.2414 -1.1044
  394TIP3    H222598   1.385   6.433   6.563  0.4762  0.7512 -0.0821
  395TIP3   OH222599   2.781   0.996  17.073 -0.2284  0.3907 -0.0622
  395TIP3    H122600   2.780   1.081  17.118 -0.4395 -0.1223  0.9031
  395TIP3    H222601   2.699   0.954  17.099 -0.1141 -0.1215 -0.5294
  396TIP3   OH222602   1.159   4.846   2.225  0.0389 -0.5937 -0.0924
  396TIP3    H122603   1.109   4.786   2.280  0.0486 -0.4608  0.0657
  396TIP3    H222604   1.100   4.869   2.154  0.5342 -1.9167 -0.9535
  397TIP3   OH222605   4.994   5.126  10.407  0.6146 -0.3116  0.1211
  397TIP3    H122606   4.911   5.142  10.453 -0.3599  0.4978 -1.8442
  397TIP3    H222607   5.061   5.162  10.465 -0.5503  0.3704  1.0745
  398TIP3   OH222608   0.336   1.320   4.716 -0.2162 -0.7135 -0.3311
  398TIP3    H122609   0.384   1.374   4.779  0.4801 -1.3937 -0.2698
  398TIP3    H222610   0.254   1.368   4.700 -0.3438 -0.4690  0.9957
  399TIP3   OH222611   2.422   0.150   4.424 -0.0687 -0.1250 -0.0890
  399TIP3    H122612   2.349   0.212   4.422  1.3179  1.6207  1.4126
  399TIP3    H222613   2.409   0.101   4.506  2.0646  2.2953  1.7754
  400TIP3   OH222614   3.267   3.926  12.902 -0.2428  0.0926 -0.7906
  400TIP3    H122615   3.219   3.979  12.965 -2.4013 -2.0942 -0.5174
  400TIP3    H222616   3.270   3.979  12.822 -1.5139  1.0095 -0.2361
  401TIP3   OH222617   2.889   0.576   0.641  0.0054  0.0937 -0.3179
  401TIP3    H122618   2.848   0.613   0.720  1.7499 -0.6033  0.9401
  401TIP3    H222619   2.980   0.561   0.666  0.0646 -2.2310 -1.7750
  402TIP3   OH222620   2.959   3.742  14.423  0.1453 -0.0363  0.4599
  402TIP3    H122621   2.928   3.720  14.336  0.0852  0.1772  0.4265
  402TIP3    H222622   2.932   3.668  14.478 -0.9288  0.4026  0.5432
  403TIP3   OH222623   2.867   4.303   0.465  0.3162 -0.0543  0.5570
  403TIP3    H122624   2.820   4.378   0.428  0.3463 -0.7748 -0.9608
  403TIP3    H222625   2.819   4.226   0.434  1.5512 -0.7422  0.3184
  404TIP3   OH222626   4.611   1.431  16.173  0.1956  0.1286  0.0242
  404TIP3    H122627   4.667   1.357  16.150 -1.9487 -1.8417  0.9010
  404TIP3    H222628   4.582   1.412  16.262 -2.3440  0.7628 -0.6334
  405TIP3   OH222629   6.023   0.209   3.150 -0.4425  0.0471  0.3366
  405TIP3    H122630   5.990   0.136   3.201 -0.1758 -0.3346 -0.0271
  405TIP3    H222631   5.952   0.230   3.089  1.0426 -2.7608 -2.5319
  406TIP3   OH222632   4.702   3.531   3.956 -0.1151  0.2504  0.1622
  406TIP3    H122633   4.790   3.557   3.984 -0.9781  4.4334 -0.7229
  406TIP3    H222634   4.716   3.492   3.869  0.9056  0.5450  0.1828
  407TIP3   OH222635   6.035   1.389  11.092 -0.2791  0.9588 -0.2902
  407TIP3    H122636   6.122   1.398  11.053 -0.4896 -0.7900 -1.2113
  407TIP3    H222637   5.978   1.366  11.018 -0.7015 -2.3865  0.9910
  408TIP3   OH222638   5.105   0.818  16.208 -0.0534 -0.3541 -0.1411
  408TIP3    H122639   5.191   0.838  16.171  0.1730  0.3300  0.7231
  408TIP3    H222640   5.059   0.770  16.139  0.6637  0.1508 -0.9786
  409TIP3   OH222641   5.973   4.588  14.936 -1.0788  0.0527  0.7671
  409TIP3    H122642   5.939   4.526  15.000 -0.3039 -1.1353  0.0650
  409TIP3    H222643   6.068   4.588  14.952 -0.9970  0.5048  0.2824
  410TIP3   OH222644   6.303   6.720  16.628 -0.4465  0.3127 -0.0350
  410TIP3    H122645   6.217   6.698  16.662 -0.7040  0.3003 -0.6928
  410TIP3    H222646   6.310   6.815  16.638 -0.9079  0.4286 -0.8603
  411TIP3   OH222647   1.708   3.605   6.050 -0.3753  0.4404 -0.5352
  411TIP3    H122648   1.748   3.667   6.110 -0.7519 -1.1112  1.3600
  411TIP3    H222649   1.744   3.627   5.964 -0.2333  3.0211  0.1607
  412TIP3   OH222650   6.714   3.004  12.252 -0.2505 -0.0192  0.0586
  412TIP3    H122651   6.648   3.032  12.317  1.9660 -1.2213  2.9105
  412TIP3    H222652   6.667   2.942  12.196 -1.8491 -0.0306  1.3612
  413TIP3   OH222653   6.341   0.738   5.872 -0.2617 -0.3829 -0.6446
  413TIP3    H122654   6.276   0.808   5.883 -0.7158 -0.9873  0.6422
  413TIP3    H222655   6.425   0.783   5.880 -0.5470  0.0615 -0.0866
  414TIP3   OH222656   3.150   0.718  12.619 -0.3220  0.1748  0.2419
  414TIP3    H122657   3.213   0.737  12.689  1.5330  1.6050 -1.7580
  414TIP3    H222658   3.071   0.689  12.666  0.8297  1.1507  2.9244
  415TIP3   OH222659   0.497   0.323  16.417  0.4049 -0.0458 -0.2732
  415TIP3    H122660   0.522   0.399  16.469 -1.9259  0.3219  0.3312
  415TIP3    H222661   0.500   0.249  16.479  0.7790 -0.1443 -0.4029
  416TIP3   OH222662   5.496   0.055  17.195  0.0821  0.5389  0.1378
  416TIP3    H122663   5.453   0.107  17.127  0.0359  1.8420  1.1514
  416TIP3    H222664   5.470  -0.035  17.175 -0.6821  0.9953 -1.0205
  417TIP3   OH222665   1.691   5.966  15.821  0.0659  0.1399 -0.1508
  417TIP3    H122666   1.745   5.902  15.867 -0.2535 -0.5193 -0.6722
  417TIP3    H222667   1.644   6.013  15.890  1.4232  0.8364  0.3121
  418TIP3   OH222668   1.966   2.953  16.345  0.3537 -1.3635 -0.1547
  418TIP3    H122669   1.926   2.873  16.378 -0.3565 -1.1406 -0.4605
  418TIP3    H222670   1.905   2.985  16.278  0.4430 -0.3703  0.2286
  419TIP3   OH222671   0.050   1.382  17.115 -0.4018  0.4710 -0.4067
  419TIP3    H122672   0.054   1.335  17.198 -0.6770 -0.5674 -0.9592
  419TIP3    H222673   0.118   1.340  17.062  0.7837  2.1072 -0.2235
  420TIP3   OH222674   6.108   4.322  17.232  0.1019 -0.1537  0.5234
  420TIP3    H122675   6.157   4.392  17.190  0.2728  0.1709  1.2477
  420TIP3    H222676   6.116   4.247  17.172 -1.6961  0.9872 -1.1930
  421TIP3   OH222677   4.491   3.876  15.220 -0.3351 -0.1215 -0.1260
  421TIP3    H122678   4.552   3.929  15.168  1.5840  0.7152  2.8653
  421TIP3    H222679   4.404   3.906  15.194  0.6263  1.7316 -1.3249
  422TIP3   OH222680   1.501   5.668   2.745 -0.6532  1.1278 -0.1108
  422TIP3    H122681   1.528   5.751   2.706 -1.8923  2.0676  0.9591
  422TIP3    H222682   1.442   5.629   2.680 -1.1538  1.7542 -0.0446
  423TIP3   OH222683   3.834   1.741   3.877 -0.1971  0.3027  0.3888
  423TIP3    H122684   3.788   1.785   3.806 -0.7666 -1.4984 -0.3859
  423TIP3    H222685   3.766   1.700   3.930  0.4399 -2.2804 -0.6972
  424TIP3   OH222686   5.256   2.622   1.480  0.1394 -0.5023 -0.0494
  424TIP3    H122687   5.282   2.670   1.401  0.2633  0.0036  0.2911
  424TIP3    H222688   5.162   2.606   1.468 -0.7751  3.0792  1.4545
  425TIP3   OH222689   4.757   4.064  10.941 -0.0804 -0.2236 -0.0832
  425TIP3    H122690   4.712   3.999  10.888 -0.3090 -0.4435  0.3784
  425TIP3    H222691   4.688   4.125  10.968  0.2515  0.6551 -1.1512
  426TIP3   OH222692   2.851   1.049  12.444 -0.4248  0.0223 -0.1375
  426TIP3    H122693   2.884   0.961  12.464  2.0498  1.4150  2.1472
  426TIP3    H222694   2.787   1.067  12.513 -2.0710 -0.5320 -1.4764
  427TIP3   OH222695   3.111   6.521  12.710  0.4686  0.4487 -0.3318
  427TIP3    H122696   3.172   6.486  12.776 -0.3307 -0.0571  0.1430
  427TIP3    H222697   3.024   6.500  12.744  0.0518 -0.0185 -1.6740
  428TIP3   OH222698   0.896   2.498  11.937 -0.1489 -0.4149 -0.3104
  428TIP3    H122699   0.820   2.525  11.989  0.1606  0.1037 -0.1223
  428TIP3    H222700   0.970   2.506  11.998  0.5781  2.5426 -1.5228
  429TIP3   OH222701   0.367   3.047   0.712 -0.2563  0.1544 -0.4963
  429TIP3    H122702   0.361   3.138   0.680 -0.0778  0.2756 -0.1892
  429TIP3    H222703   0.409   2.999   0.640  1.4148  0.7025  0.0902
  430TIP3   OH222704   4.148   2.371  14.927  0.7857  0.2501  0.3622
  430TIP3    H122705   4.166   2.388  14.834  0.3328  1.5210  0.4868
  430TIP3    H222706   4.209   2.429  14.973  0.3247  0.3600  0.8365
  431TIP3   OH222707   2.746   4.761   6.333  0.0087  0.2034  0.1213
  431TIP3    H122708   2.680   4.694   6.347 -0.1870  0.1769 -0.8948
  431TIP3    H222709   2.827   4.713   6.319  0.8755  0.2744  4.2623
  432TIP3   OH222710   2.096   1.685  13.364 -0.0955 -0.0968  0.1320
  432TIP3    H122711   2.044   1.759  13.396  0.1717  0.1768 -0.0652
  432TIP3    H222712   2.049   1.653  13.287  0.4265  0.6297 -0.4974
  433TIP3   OH222713   3.826   0.683   3.004 -0.3780  0.0543  0.4093
  433TIP3    H122714   3.775   0.603   2.991 -0.0504  0.2307 -2.3812
  433TIP3    H222715   3.761   0.750   3.026 -1.0444 -0.3139 -0.3905
  434TIP3   OH222716   1.097   5.915   5.735  0.0129  0.4912 -0.2362
  434TIP3    H122717   1.069   6.005   5.716 -0.2612  0.2604 -0.9609
  434TIP3    H222718   1.027   5.860   5.698  0.2168 -0.0230  0.1343
  435TIP3   OH222719   6.719   3.660   4.380  0.6358 -0.6815  0.0471
  435TIP3    H122720   6.726   3.669   4.285 -0.5085 -0.5943 -0.0347
  435TIP3    H222721   6.707   3.750   4.412 -1.5413 -0.9506  0.0395
  436TIP3   OH222722   4.461   2.110  16.957  0.0095  0.1609 -0.3005
  436TIP3    H122723   4.429   2.023  16.982 -0.7797  0.4517 -0.2908
  436TIP3    H222724   4.475   2.104  16.863 -0.0586  0.0293 -0.3002
  437TIP3   OH222725   5.843   6.411  13.637 -0.3230 -0.4813 -0.0569
  437TIP3    H122726   5.758   6.412  13.593  0.6441  0.5023 -1.9474
  437TIP3    H222727   5.856   6.319  13.661 -2.9294 -0.3047  2.3420
  438TIP3   OH222728   5.730   0.595  13.055  0.9696  0.3282  0.1120
  438TIP3    H122729   5.748   0.501  13.055 -1.1856 -0.1052 -1.0492
  438TIP3    H222730   5.654   0.605  13.113 -0.3652  1.0249 -1.7206
  439TIP3   OH222731   3.958   2.972  16.175 -0.0332  0.4108  0.0382
  439TIP3    H122732   3.867   2.989  16.201  0.0633  0.5900  0.2595
  439TIP3    H222733   3.951   2.919  16.096 -0.3643  2.8002 -1.5864
  440TIP3   OH222734   5.948   0.574   5.007  0.2586  0.4366  0.4756
  440TIP3    H122735   5.973   0.498   4.956  0.0424  0.6802  0.0048
  440TIP3    H222736   5.920   0.538   5.092  0.4245  0.0196  0.3527
  441TIP3   OH222737   0.862   6.769   2.160 -0.5596 -0.0595  0.1716
  441TIP3    H122738   0.777   6.803   2.131 -0.6921 -0.9650 -0.5125
  441TIP3    H222739   0.842   6.721   2.241 -0.7679 -0.6035 -0.1990
  442TIP3   OH222740   0.528   1.371   3.983 -0.4530 -0.2553 -0.3741
  442TIP3    H122741   0.529   1.466   3.971 -1.4054 -0.3562 -1.3080
  442TIP3    H222742   0.571   1.336   3.905  0.5970 -0.5713  0.3280
  443TIP3   OH222743   4.684   2.227  13.050  0.5374  0.2082  0.0180
  443TIP3    H122744   4.642   2.306  13.016 -0.2789 -0.1203  0.2575
  443TIP3    H222745   4.777   2.249  13.051  0.3098  1.2147  0.2104
  444TIP3   OH222746   6.007   6.608  14.825  0.5057 -0.2113  0.2772
  444TIP3    H122747   5.944   6.561  14.880  1.1787 -1.3855  0.0618
  444TIP3    H222748   5.984   6.700  14.836  1.1706 -0.3420  3.1998
  445TIP3   OH222749   4.453   6.467  10.701  0.2175  0.3143  0.5684
  445TIP3    H122750   4.401   6.438  10.625  0.8429  0.2283  0.1689
  445TIP3    H222751   4.436   6.561  10.707  0.0388  0.2928  0.4105
  446TIP3   OH222752   4.200   6.147  12.811  0.0047  0.1315 -0.0332
  446TIP3    H122753   4.248   6.158  12.729 -0.0092 -0.3786 -0.1114
  446TIP3    H222754   4.267   6.156  12.879  0.1384 -0.1339 -0.1263
  447TIP3   OH222755   3.724   5.819   2.499 -0.2652  0.0312  0.2004
  447TIP3    H122756   3.675   5.839   2.420  0.3756  0.8580 -0.0024
  447TIP3    H222757   3.777   5.898   2.515 -0.4208 -0.1095  1.4713
  448TIP3   OH222758   5.507   3.409  13.758 -0.1228  0.0305  0.7629
  448TIP3    H122759   5.526   3.493  13.801  2.7275 -0.1525 -0.0621
  448TIP3    H222760   5.581   3.353  13.781 -0.8918 -1.5588 -0.5595
  449TIP3   OH222761   4.449   5.658  11.223 -0.1689 -0.6252  0.5706
  449TIP3    H122762   4.506   5.683  11.151  0.6224 -1.1211  1.0171
  449TIP3    H222763   4.373   5.715  11.215  0.0576 -0.4692 -0.4655
  450TIP3   OH222764   2.873   0.153   2.565  0.0011 -0.2987 -0.0366
  450TIP3    H122765   2.829   0.227   2.609 -3.2925 -1.7234 -0.7551
  450TIP3    H222766   2.880   0.086   2.633  1.3471 -0.0020  0.1334
  451TIP3   OH222767   1.372   3.343  14.956 -0.0938 -0.0108  0.3966
  451TIP3    H122768   1.343   3.361  14.866 -1.7798 -0.8288  0.7621
  451TIP3    H222769   1.458   3.302  14.945 -0.0315  0.4072 -0.8039
  452TIP3   OH222770   1.900   0.961   4.626 -0.4447 -0.3807  0.3886
  452TIP3    H122771   1.979   0.917   4.595  0.1338  0.6294  0.4146
  452TIP3    H222772   1.854   0.987   4.546  0.1155  0.5612  0.3639
  453TIP3   OH222773   5.723   0.063  12.980  0.2625  0.4216  0.5270
  453TIP3    H122774   5.677   0.086  13.061  0.4058 -0.6023  0.9156
  453TIP3    H222775   5.719  -0.033  12.978 -0.4731  0.4829 -1.1060
  454TIP3   OH222776   2.301   3.281  15.485  0.2123 -0.1452 -0.2185
  454TIP3    H122777   2.301   3.258  15.578 -1.9273 -2.6725 -0.7714
  454TIP3    H222778   2.379   3.238  15.449 -0.5804 -1.7143 -0.1187
  455TIP3   OH222779   6.052   2.472   4.507  0.5442  0.3595  0.3114
  455TIP3    H122780   6.028   2.535   4.575  1.2552  1.7628 -0.7224
  455TIP3    H222781   6.083   2.525   4.434 -1.3152 -1.0663 -1.5867
  456TIP3   OH222782   4.750   1.012  16.753  0.4886 -0.5010  0.7177
  456TIP3    H122783   4.774   0.929  16.713 -0.5132 -0.1918 -0.5618
  456TIP3    H222784   4.825   1.069  16.738 -0.8381  0.4323 -3.1712
  457TIP3   OH222785   4.627   3.014  12.905 -0.4993  0.4454 -0.2973
  457TIP3    H122786   4.687   3.068  12.853  4.0251 -1.5205  2.4647
  457TIP3    H222787   4.633   2.927  12.866 -0.6928  0.0089  0.6302
  458TIP3   OH222788   5.620   4.655  17.236 -0.0316  0.0872  0.3726
  458TIP3    H122789   5.623   4.585  17.170  0.2699 -0.1341  0.6194
  458TIP3    H222790   5.693   4.713  17.211  0.0228  0.0542  0.4583
  459TIP3   OH222791   2.224   0.303   6.504  0.2550 -0.2476 -0.1653
  459TIP3    H122792   2.174   0.384   6.512  2.5987  1.6373 -3.4609
  459TIP3    H222793   2.166   0.243   6.456 -0.7098  0.1364  0.5051
  460TIP3   OH222794   4.699   3.964  14.236  0.0121 -0.4228 -0.0925
  460TIP3    H122795   4.633   3.952  14.305  0.3402  1.5945  0.6097
  460TIP3    H222796   4.667   3.912  14.163 -1.9347 -0.1589  0.5294
  461TIP3   OH222797   1.065   4.971   5.964  0.3756  0.0735  0.6545
  461TIP3    H122798   0.984   4.926   5.938  0.1758  0.4035  0.7016
  461TIP3    H222799   1.041   5.064   5.966  1.0342  0.2819 -0.4027
  462TIP3   OH222800   3.836   1.524   2.759 -0.9887  0.1046  0.1661
  462TIP3    H122801   3.925   1.537   2.724 -1.5900  0.2505 -1.3724
  462TIP3    H222802   3.824   1.429   2.759 -1.1189  0.1134 -0.4299
  463TIP3   OH222803   4.827   4.260  17.061 -0.0824 -0.5344  0.2033
  463TIP3    H122804   4.842   4.176  17.017  1.7468  0.0794 -0.3954
  463TIP3    H222805   4.886   4.259  17.136 -2.7493 -1.3086  2.3278
  464TIP3   OH222806   6.299   3.857   0.785  0.3187  0.3481  0.5441
  464TIP3    H122807   6.265   3.803   0.714 -2.7789  1.1168  1.3538
  464TIP3    H222808   6.327   3.938   0.742  0.3782  0.0082 -0.0588
  465TIP3   OH222809   0.066   3.737   5.196  0.4899  0.5862 -0.2662
  465TIP3    H122810   0.078   3.832   5.188  1.2919  0.5104 -0.0774
  465TIP3    H222811   0.144   3.708   5.243  1.2797 -0.4352 -2.1614
  466TIP3   OH222812   0.815   3.413  15.890 -0.0430  1.1669 -0.0797
  466TIP3    H122813   0.752   3.342  15.902  1.9894 -0.6867 -0.2985
  466TIP3    H222814   0.813   3.432  15.796  0.5706  0.3306 -0.2587
  467TIP3   OH222815   3.856   4.801  16.269 -0.0475  0.1265 -0.0877
  467TIP3    H122816   3.775   4.749  16.278 -0.1278  0.1888 -0.4668
  467TIP3    H222817   3.923   4.746  16.309  0.0833 -0.8000 -1.5483
  468TIP3   OH222818   6.570   6.068   2.661 -0.8526  0.3580  0.0180
  468TIP3    H122819   6.533   6.068   2.750 -1.5516  2.4308 -0.2430
  468TIP3    H222820   6.493   6.075   2.604 -0.2110  2.6304 -0.6113
  469TIP3   OH222821   2.393   2.116  12.940  0.1619  0.7480 -0.0190
  469TIP3    H122822   2.417   2.180  12.872  2.0386 -0.2501 -0.3218
  469TIP3    H222823   2.476   2.093  12.981 -0.4111 -1.9698 -0.3349
  470TIP3   OH222824   4.755   3.355   4.559  0.5743 -0.3067  0.1457
  470TIP3    H122825   4.792   3.442   4.542 -1.3381  0.2530 -1.2686
  470TIP3    H222826   4.810   3.296   4.508  0.7138  0.3029 -0.4276
  471TIP3   OH222827   2.690   0.702   5.239 -1.1210 -0.9172 -0.0261
  471TIP3    H122828   2.607   0.726   5.197 -0.9764 -0.1119  0.1551
  471TIP3    H222829   2.741   0.661   5.169 -1.1866 -0.2916 -0.4382
  472TIP3   OH222830   0.440   6.204  11.324 -0.5928 -0.2897 -0.0381
  472TIP3    H122831   0.507   6.141  11.296 -0.6925  0.2415 -1.4931
  472TIP3    H222832   0.370   6.150  11.361 -0.0008 -0.9286  0.1729
  473TIP3   OH222833   0.060   6.527  14.823 -0.2885  0.2704 -0.1909
  473TIP3    H122834  -0.032   6.554  14.835 -0.5505  0.2030 -2.0119
  473TIP3    H222835   0.103   6.605  14.789 -0.4323 -0.7183 -2.7174
  474TIP3   OH222836   4.327   0.381   5.650  0.4935  0.1313 -0.2661
  474TIP3    H122837   4.257   0.331   5.609 -0.5367  2.2789 -1.2093
  474TIP3    H222838   4.332   0.462   5.599  0.8764  1.7859  2.2994
  475TIP3   OH222839   4.909   3.550  16.833  0.5614 -0.0371 -0.2988
  475TIP3    H122840   4.838   3.574  16.892 -0.1521 -0.2900 -1.0447
  475TIP3    H222841   4.971   3.623  16.838 -1.3687  1.7974 -2.2195
  476TIP3   OH222842   3.556   0.191   3.939  0.5843 -0.3072 -0.6844
  476TIP3    H122843   3.462   0.208   3.948  0.8019 -0.1352  1.3367
  476TIP3    H222844   3.597   0.274   3.964  1.3168 -0.6739 -0.6850
  477TIP3   OH222845   0.625   3.574  11.479  0.1379  0.0086  0.3300
  477TIP3    H122846   0.577   3.500  11.517 -0.7008 -0.1385 -0.9639
  477TIP3    H222847   0.689   3.599  11.546 -0.7071 -0.8027  1.4566
  478TIP3   OH222848   6.692   6.460  16.546 -0.1268 -0.0955 -0.1462
  478TIP3    H122849   6.654   6.507  16.620 -1.5347  1.4186 -1.8084
  478TIP3    H222850   6.669   6.368  16.562 -0.1998  0.1713  1.4078
  479TIP3   OH222851   1.945   6.259   2.387 -0.6915 -0.0098  0.8903
  479TIP3    H122852   1.943   6.308   2.305  0.9374 -2.6148 -0.7863
  479TIP3    H222853   1.853   6.248   2.410 -1.1928  0.2365 -0.9073
  480TIP3   OH222854   2.123   1.884  17.221 -0.2347  0.4790 -0.1763
  480TIP3    H122855   2.068   1.810  17.195 -0.5250  0.7222 -0.2613
  480TIP3    H222856   2.209   1.845  17.237 -0.7624 -0.1078  1.2719
  481TIP3   OH222857   2.467   1.698  13.959  0.3999 -0.6480 -0.8892
  481TIP3    H122858   2.457   1.769  13.896 -0.1647 -0.7448 -0.9100
  481TIP3    H222859   2.501   1.624  13.907  0.0638 -0.6874 -1.0534
  482TIP3   OH222860   3.332   0.934   2.328 -0.3687  0.3309 -0.2200
  482TIP3    H122861   3.373   0.888   2.401 -0.2535 -0.0463 -0.5245
  482TIP3    H222862   3.274   0.870   2.288 -0.2075  0.4440 -0.6402
  483TIP3   OH222863   0.342   6.225  13.937  0.1400 -0.0570  0.2052
  483TIP3    H122864   0.292   6.146  13.916  2.5052 -0.9440 -2.5438
  483TIP3    H222865   0.409   6.195  13.998  0.8661 -0.1619 -0.6254
  484TIP3   OH222866   5.916   0.250   1.082  0.4441  0.1276 -0.2706
  484TIP3    H122867   6.006   0.276   1.060  0.4240  0.3360 -0.0998
  484TIP3    H222868   5.898   0.292   1.166 -0.3253  1.2881 -0.9901
  485TIP3   OH222869   6.251   4.352  12.684 -0.2738 -0.0078  0.4278
  485TIP3    H122870   6.205   4.287  12.737 -0.6058 -0.0190  0.1280
  485TIP3    H222871   6.233   4.326  12.594  1.5448 -0.8822  0.2917
  486TIP3   OH222872   5.861   2.206   3.907  0.1602  0.5244  0.5561
  486TIP3    H122873   5.891   2.132   3.855 -3.3890  0.1564 -1.1467
  486TIP3    H222874   5.936   2.264   3.912  1.3486 -0.5765 -2.9524
  487TIP3   OH222875   6.242   6.263   1.994 -0.2935 -0.1331 -0.1159
  487TIP3    H122876   6.318   6.317   2.018 -1.1060  0.2150  1.8173
  487TIP3    H222877   6.252   6.248   1.900  1.1163  1.5694 -0.2747
  488TIP3   OH222878   4.707   3.769   6.014 -0.0124 -0.4363 -0.6914
  488TIP3    H122879   4.684   3.676   6.024 -0.7712 -0.1858  0.0406
  488TIP3    H222880   4.721   3.799   6.104  3.9808 -0.7276 -1.1236
  489TIP3   OH222881   1.973   2.961   0.634  0.1372  0.2748 -0.0568
  489TIP3    H122882   1.900   3.008   0.674  1.3739  1.9751  0.2366
  489TIP3    H222883   1.983   3.001   0.547  0.5520 -0.1362 -0.2018
  490TIP3   OH222884   4.160   0.127  13.028  0.0847  0.0407 -0.0513
  490TIP3    H122885   4.135   0.128  13.120  1.9361  0.6111  0.4661
  490TIP3    H222886   4.202   0.042  13.015  0.6850  0.3448 -0.1223
  491TIP3   OH222887   2.563   5.383   0.881 -0.5415 -0.0072 -0.2926
  491TIP3    H122888   2.477   5.342   0.878 -0.2714 -1.0148  3.3298
  491TIP3    H222889   2.624   5.316   0.851 -0.6579 -0.4800  0.5249
  492TIP3   OH222890   6.209   2.178   5.397  0.5748  0.0118 -0.4555
  492TIP3    H122891   6.177   2.232   5.325  1.1203  1.5318  0.4176
  492TIP3    H222892   6.244   2.099   5.355 -1.5953 -0.3578 -1.6405
  493TIP3   OH222893   6.198   2.836   1.212  0.5037 -0.0473 -0.0794
  493TIP3    H122894   6.131   2.870   1.271 -0.6641  0.3353 -1.5827
  493TIP3    H222895   6.224   2.752   1.250  0.2364  0.4958  1.3078
  494TIP3   OH222896   1.155   4.322  17.137  0.4673 -0.4642  0.2386
  494TIP3    H122897   1.235   4.296  17.091 -0.1102 -2.2207  0.1933
  494TIP3    H222898   1.120   4.394  17.085  1.5388 -0.2907 -0.2550
  495TIP3   OH222899   5.744   2.335  13.153 -0.3827  0.5649  0.8095
  495TIP3    H122900   5.690   2.355  13.076  1.8823  0.5731 -0.8420
  495TIP3    H222901   5.767   2.421  13.188  0.6395  0.6380 -0.0108
  496TIP3   OH222902   0.838   3.904  17.234  0.5043 -0.3871  0.2341
  496TIP3    H122903   0.861   3.989  17.197  1.4190 -0.7836 -0.1149
  496TIP3    H222904   0.744   3.895  17.214  0.6996 -0.0475 -0.9042
  497TIP3   OH222905   1.577   0.226  13.475  0.2584 -0.6309  0.0943
  497TIP3    H122906   1.563   0.300  13.533  3.5829 -1.8386  2.6173
  497TIP3    H222907   1.489   0.199  13.447 -1.1360  2.5229  1.2746
  498TIP3   OH222908   5.205   3.475  10.555 -0.2738 -0.3030 -0.4261
  498TIP3    H122909   5.144   3.413  10.595 -0.5708  0.6411  0.5937
  498TIP3    H222910   5.266   3.498  10.626  0.1411  0.1900 -0.9382
  499TIP3   OH222911   1.789   2.264  15.947 -0.0289 -0.0330 -0.1985
  499TIP3    H122912   1.817   2.227  15.864 -0.0918  1.2659 -0.8086
  499TIP3    H222913   1.747   2.191  15.993  2.8459 -1.5790  0.0482
  500TIP3   OH222914   2.542   6.602   5.881  0.1742 -0.0395  0.1354
  500TIP3    H122915   2.608   6.622   5.815  0.0844 -0.7482 -0.1746
  500TIP3    H222916   2.526   6.686   5.925  1.2520  0.1480  0.1961
  501TIP3   OH222917   6.592   6.082  12.570  0.5073 -0.2786 -0.7794
  501TIP3    H122918   6.557   6.044  12.489  0.3879 -0.2477 -0.7419
  501TIP3    H222919   6.521   6.074  12.633  1.2483 -2.0066 -0.1497
  502TIP3   OH222920   1.985   1.459   2.646 -0.3216 -0.0363  0.0147
  502TIP3    H122921   2.031   1.516   2.584 -1.1313  0.3582 -0.2274
  502TIP3    H222922   1.905   1.434   2.601  0.9490 -3.0197 -0.6813
  503TIP3   OH222923   4.449   5.573   5.117 -0.1605 -0.0886 -0.4396
  503TIP3    H122924   4.444   5.669   5.109 -0.3993  0.0845  1.4776
  503TIP3    H222925   4.430   5.556   5.210 -0.8487 -2.0472 -0.9204
  504TIP3   OH222926   6.211   3.952  11.313 -0.2887 -0.3194 -0.2920
  504TIP3    H122927   6.141   3.979  11.254  0.2628  2.4829  0.2803
  504TIP3    H222928   6.289   3.997  11.280  0.1936  0.6201  2.0734
  505TIP3   OH222929   0.844   2.787   2.081  0.2369 -0.0875  0.3916
  505TIP3    H122930   0.865   2.787   1.987  0.4846  0.6759  0.4445
  505TIP3    H222931   0.753   2.818   2.085  0.1481 -0.3443  0.3910
  506TIP3   OH222932   1.422   0.428  14.126 -0.2979 -0.0335 -1.3286
  506TIP3    H122933   1.378   0.344  14.135 -0.2570  0.0297 -0.5406
  506TIP3    H222934   1.401   0.457  14.037 -1.9332  0.0492 -0.9144
  507TIP3   OH222935   1.756   1.424   2.264  0.0874 -0.6670 -0.8607
  507TIP3    H122936   1.835   1.478   2.261  0.6645 -1.3890  0.5702
  507TIP3    H222937   1.722   1.437   2.353 -1.8722  0.2581 -1.7038
  508TIP3   OH222938   1.900   0.701  12.101 -0.4019  0.2500  0.2275
  508TIP3    H122939   1.845   0.715  12.179 -1.6167 -0.2139 -0.5230
  508TIP3    H222940   1.983   0.744  12.122 -0.1307 -1.2795  2.4201
  509TIP3   OH222941   3.919   6.458  13.266 -0.2660  0.1900  0.1009
  509TIP3    H122942   3.912   6.377  13.316  0.5720 -1.6380 -2.6657
  509TIP3    H222943   4.006   6.492  13.286  0.3827 -0.9644 -0.7500
  510TIP3   OH222944   1.975   3.818   5.835  1.1327 -0.2283 -0.5152
  510TIP3    H122945   1.960   3.796   5.743  0.7669 -0.6007 -0.3692
  510TIP3    H222946   1.973   3.913   5.839 -2.0904 -0.2671 -0.3439
  511TIP3   OH222947   4.099   0.226  16.483  0.0558  0.0257 -0.2348
  511TIP3    H122948   4.013   0.261  16.458 -0.7580 -0.4894  1.7182
  511TIP3    H222949   4.079   0.143  16.526  1.5179 -0.0373  0.3425
  512TIP3   OH222950   5.988   0.983   4.657 -0.4514  0.3532  0.5851
  512TIP3    H122951   6.038   0.906   4.630 -1.5422 -0.1497 -0.0312
  512TIP3    H222952   6.052   1.039   4.701  0.4893 -0.6086  0.4562
  513TIP3   OH222953   1.443   3.582  15.786 -0.3378 -0.0870 -0.4060
  513TIP3    H122954   1.388   3.657  15.766  1.9408  1.7674  0.1380
  513TIP3    H222955   1.533   3.613  15.773  0.6873 -2.3737  0.9081
  514TIP3   OH222956   4.770   6.267  14.103  0.2683  0.1345 -0.0146
  514TIP3    H122957   4.810   6.341  14.149  2.1077 -0.8017 -0.0806
  514TIP3    H222958   4.729   6.306  14.026  2.2581  0.9561 -0.6846
  515TIP3   OH222959   3.852   3.678   5.666  0.3121  0.4237  0.3791
  515TIP3    H122960   3.906   3.682   5.588 -0.5969  0.3469 -0.2587
  515TIP3    H222961   3.828   3.770   5.683 -1.8972  0.1551 -1.1379
  516TIP3   OH222962   2.478   6.509   4.534 -0.1451  0.4578  0.1546
  516TIP3    H122963   2.446   6.424   4.563 -1.4472  0.2890 -1.6356
  516TIP3    H222964   2.398   6.563   4.527  0.4627  1.3011 -0.3822
  517TIP3   OH222965   4.491   4.517  13.027  0.3125  0.2374 -0.3138
  517TIP3    H122966   4.571   4.561  13.053  1.2739 -0.8496 -1.3362
  517TIP3    H222967   4.507   4.424  13.046 -1.1500  0.1425  0.5525
  518TIP3   OH222968   2.160   6.271   6.021 -0.0101  0.9258 -0.1391
  518TIP3    H122969   2.143   6.267   6.115 -0.6401 -0.0161 -0.2866
  518TIP3    H222970   2.242   6.319   6.014  1.8613 -1.9476  1.1025
  519TIP3   OH222971   0.609   3.387  14.921 -0.1569  0.5666  0.2696
  519TIP3    H122972   0.515   3.393  14.940 -0.5364  1.4177 -1.7027
  519TIP3    H222973   0.625   3.294  14.909 -0.5184  0.3109  1.6322
  520TIP3   OH222974   3.649   2.843  11.946 -0.5453  0.3408  0.3740
  520TIP3    H122975   3.555   2.841  11.964 -1.0900 -0.9024 -2.3388
  520TIP3    H222976   3.663   2.928  11.903 -0.9419 -0.6013 -1.6576
  521TIP3   OH222977   3.536   2.861  13.146  0.1618 -0.1182  0.6670
  521TIP3    H122978   3.488   2.944  13.154 -0.3269 -0.3124 -0.2329
  521TIP3    H222979   3.485   2.810  13.084  3.2163  0.8860 -2.8085
  522TIP3   OH222980   6.767   2.667  12.091  0.7476  0.2515 -0.3223
  522TIP3    H122981   6.775   2.725  12.016  1.3472  0.0524 -0.4147
  522TIP3    H222982   6.703   2.601  12.063  0.5500  0.4947 -0.4474
  523TIP3   OH222983   5.139   2.399  15.439 -0.0898 -0.1500  0.9258
  523TIP3    H122984   5.213   2.399  15.378 -0.0875  1.0771  0.9127
  523TIP3    H222985   5.092   2.318  15.420 -0.4758  0.5249 -1.2284
  524TIP3   OH222986   3.226   1.455   3.302 -0.2673 -0.3680  0.2870
  524TIP3    H122987   3.301   1.508   3.276 -0.8142 -0.0953 -0.7568
  524TIP3    H222988   3.258   1.365   3.299 -0.0721 -0.2733 -0.4461
  525TIP3   OH222989   1.811   1.581   1.943 -0.3016 -0.1793 -0.0253
  525TIP3    H122990   1.735   1.550   1.893 -0.1952 -0.0078 -0.2932
  525TIP3    H222991   1.886   1.543   1.897 -0.1686  0.5088 -0.3765
  526TIP3   OH222992   1.290   2.323  13.982  0.1648  0.9234 -0.1587
  526TIP3    H122993   1.202   2.336  13.948 -0.2947 -0.2587  0.5816
  526TIP3    H222994   1.347   2.361  13.915 -0.9077  2.0884 -0.4428
  527TIP3   OH222995   4.623   2.967  16.762 -0.1755 -0.6254  0.0638
  527TIP3    H122996   4.650   3.058  16.748 -0.7298  0.0739  3.2756
  527TIP3    H222997   4.703   2.922  16.787  0.4875 -1.5260 -3.3410
  528TIP3   OH222998   3.365   3.136  13.994  0.5050  0.3084  0.2406
  528TIP3    H122999   3.453   3.149  14.030  0.2101  1.2179  0.6402
  528TIP3    H223000   3.326   3.223  13.994 -0.1806  0.0041 -0.5136
  529TIP3   OH223001   1.287   4.211   0.370  0.0185  0.3648  0.0399
  529TIP3    H123002   1.246   4.149   0.430  0.4957  1.7211  1.8330
  529TIP3    H223003   1.296   4.291   0.422  1.3007  1.2839 -1.5661
  530TIP3   OH223004   0.103   0.818   0.008 -0.2423  0.7561  0.0238
  530TIP3    H123005   0.055   0.735   0.013  0.2012  0.5287  0.7323
  530TIP3    H223006   0.186   0.799   0.052  0.3220  1.2593 -0.8356
  531TIP3   OH223007   6.295   3.917   0.384 -0.2199 -0.6766  0.2369
  531TIP3    H123008   6.315   3.859   0.310 -0.2499  0.3085 -0.5599
  531TIP3    H223009   6.201   3.930   0.380 -0.1989 -0.4874  0.3405
  532TIP3   OH223010   4.994   2.634  14.011  0.2935  0.2687  0.4766
  532TIP3    H123011   4.946   2.615  14.092 -0.6812  3.4342  0.7051
  532TIP3    H223012   4.929   2.624  13.942  0.4127  0.3850  0.3490
  533TIP3   OH223013   3.596   1.124   5.475  0.2863 -0.0756  0.8453
  533TIP3    H123014   3.614   1.031   5.485 -0.6529 -0.4331 -0.6403
  533TIP3    H223015   3.505   1.128   5.444  0.8579  1.2249 -0.7785
  534TIP3   OH223016   4.197   0.403  13.210  0.7872  0.0378 -0.0810
  534TIP3    H123017   4.174   0.378  13.121 -1.1593  0.1396  0.3767
  534TIP3    H223018   4.187   0.498  13.213  2.1264  0.1969 -0.0959
  535TIP3   OH223019   2.330   1.935  15.335 -0.2945  0.2167 -0.3255
  535TIP3    H123020   2.397   1.951  15.402 -1.7812  0.0880  1.1988
  535TIP3    H223021   2.374   1.879  15.271  1.3468  0.8834  0.1735
  536TIP3   OH223022   6.621   0.280   2.470  0.5205 -0.2657 -0.0543
  536TIP3    H123023   6.698   0.330   2.499 -0.5299  0.7862  0.9750
  536TIP3    H223024   6.611   0.304   2.378  2.3626 -1.6532 -0.6540
  537TIP3   OH223025   2.487   2.593   1.566  0.1294  0.0013  0.2076
  537TIP3    H123026   2.551   2.577   1.635 -0.0759 -0.1621  0.3592
  537TIP3    H223027   2.487   2.512   1.514 -0.1714 -0.1090  0.3809
  538TIP3   OH223028   0.562   1.818  12.685  0.2814 -0.2059 -0.4521
  538TIP3    H123029   0.655   1.798  12.682  0.5268  0.8179  0.1998
  538TIP3    H223030   0.542   1.854  12.599  0.8670  1.2242  0.0086
  539TIP3   OH223031   6.187   0.153  16.075  0.1758  0.1060  0.2308
  539TIP3    H123032   6.230   0.144  15.990 -0.7564  0.3820 -0.2747
  539TIP3    H223033   6.102   0.112  16.063 -0.6496  1.7206  0.5090
  540TIP3   OH223034   0.171   5.658  15.722 -0.4047 -0.8735  0.1375
  540TIP3    H123035   0.265   5.639  15.726  0.0626  0.8579 -1.4550
  540TIP3    H223036   0.149   5.688  15.810  1.1395  1.1055 -0.0931
  541TIP3   OH223037   3.296   5.563  11.447 -0.4094 -0.5984 -0.5812
  541TIP3    H123038   3.339   5.584  11.364  0.9349  0.6779  0.3859
  541TIP3    H223039   3.210   5.603  11.440  0.9432  2.5831 -0.0675
  542TIP3   OH223040   5.819   1.779   0.385 -0.7419 -0.2858  0.1128
  542TIP3    H123041   5.874   1.824   0.448 -2.2364  0.6535  0.7765
  542TIP3    H223042   5.871   1.704   0.356  1.2303  1.1189 -0.0114
  543TIP3   OH223043   4.843   4.881  15.359 -0.0698 -0.3595 -0.1907
  543TIP3    H123044   4.818   4.819  15.427 -0.2605 -2.2207 -1.9322
  543TIP3    H223045   4.797   4.851  15.280  0.3203  1.6278 -1.2141
  544TIP3   OH223046   0.550   2.880  17.055 -0.1894  0.0293  0.0330
  544TIP3    H123047   0.537   2.939  16.980 -1.1619  0.4475  0.5131
  544TIP3    H223048   0.502   2.801  17.032  1.4767 -0.7541 -0.7932
  545TIP3   OH223049   1.117   6.234  15.990 -0.2586 -0.2380  0.4719
  545TIP3    H123050   1.070   6.221  15.908  2.1944 -0.4847 -0.9465
  545TIP3    H223051   1.171   6.156  15.999 -0.4899 -0.2012  2.3235
  546TIP3   OH223052   0.882   4.698  11.960  0.3490  0.0598 -0.7277
  546TIP3    H123053   0.837   4.615  11.974 -1.2895  0.9283 -0.6615
  546TIP3    H223054   0.822   4.764  11.996  2.1301  1.1739  0.2648
  547TIP3   OH223055   4.663   6.057   3.483 -0.6958  0.1378  0.0775
  547TIP3    H123056   4.664   6.114   3.560 -1.4758 -1.9575  1.6955
  547TIP3    H223057   4.748   6.013   3.485 -0.2281  0.9804 -0.9739
  548TIP3   OH223058   1.861   4.115  13.452  0.0660  0.1431  0.0212
  548TIP3    H123059   1.934   4.074  13.406 -0.8140 -1.0204 -0.3469
  548TIP3    H223060   1.885   4.108  13.545  1.4269  1.7114 -0.1859
  549TIP3   OH223061   3.586   6.560   2.122  0.4351  0.1491  0.6310
  549TIP3    H123062   3.649   6.628   2.146 -0.8689  0.6378  2.8251
  549TIP3    H223063   3.512   6.608   2.084  0.9036 -0.3370 -0.9453
  550TIP3   OH223064   5.617   1.586   4.458 -0.1296  0.3892 -0.0590
  550TIP3    H123065   5.576   1.522   4.401 -0.6101  0.4523  0.2172
  550TIP3    H223066   5.634   1.538   4.539 -3.3219  1.4137  1.2818
  551TIP3   OH223067   2.232   6.039   4.755 -0.5673  0.3692  0.4076
  551TIP3    H123068   2.273   6.119   4.724  0.9031 -1.0005 -1.2768
  551TIP3    H223069   2.138   6.058   4.753 -0.3485  1.3465 -2.0297
  552TIP3   OH223070   3.504   3.613  14.495  0.2526  0.0423  0.4844
  552TIP3    H123071   3.439   3.618  14.424 -1.2358  0.1674  1.8423
  552TIP3    H223072   3.552   3.532  14.477  0.2642  0.3595 -0.9863
  553TIP3   OH223073   6.478   1.936   6.191 -0.0937  0.8734 -0.2372
  553TIP3    H123074   6.549   1.888   6.233 -0.2604  0.3172 -0.5860
  553TIP3    H223075   6.453   2.002   6.255  0.8147  1.1521 -0.1607
  554TIP3   OH223076   1.532   2.483  15.089 -0.1324 -0.3106 -0.1615
  554TIP3    H123077   1.499   2.412  15.034  1.4442 -1.0464 -0.1807
  554TIP3    H223078   1.514   2.562  15.038 -1.2803 -0.7314 -0.4422
  555TIP3   OH223079   1.558   4.987   5.786 -0.4398  0.5932  0.4763
  555TIP3    H123080   1.475   4.939   5.788 -0.1992  0.1669  0.4029
  555TIP3    H223081   1.547   5.056   5.852 -1.3946  1.4527 -0.5714
  556TIP3   OH223082   0.181   2.711   6.075 -0.0629 -0.3093 -0.0600
  556TIP3    H123083   0.135   2.783   6.033  0.0352  0.7499  1.6096
  556TIP3    H223084   0.121   2.681   6.144  1.8336  1.3050  2.3680
  557TIP3   OH223085   1.042   4.898  11.035 -0.3036  0.4151 -0.0402
  557TIP3    H123086   1.110   4.959  11.064  0.3961 -0.3632 -0.0207
  557TIP3    H223087   0.968   4.954  11.011  0.4768  1.2911 -0.4341
  558TIP3   OH223088   3.719   5.040   4.887  0.0384  0.1030 -0.4429
  558TIP3    H123089   3.629   5.026   4.856  0.8280  0.7802 -3.1435
  558TIP3    H223090   3.757   4.953   4.891 -0.5660 -0.1382  0.1823
  559TIP3   OH223091   6.365   3.786  13.635  0.3162  0.5611 -0.1500
  559TIP3    H123092   6.457   3.802  13.615 -0.1949  2.4248 -1.1503
  559TIP3    H223093   6.356   3.808  13.728  0.8698  0.4066 -0.0596
  560TIP3   OH223094   1.956   6.510  13.678  0.0288 -0.1869 -0.3200
  560TIP3    H123095   1.911   6.520  13.594 -1.7371 -3.3337  0.1871
  560TIP3    H223096   2.046   6.539  13.661 -0.5265  0.0507 -3.0479
  561TIP3   OH223097   2.538   3.571  15.462 -0.0779  0.1270  0.4176
  561TIP3    H123098   2.582   3.655  15.446  0.3971 -0.2575 -0.3534
  561TIP3    H223099   2.581   3.535  15.539  2.1427 -1.0104 -1.2864
  562TIP3   OH223100   5.475   4.185   4.956 -0.6261 -0.2156 -0.1344
  562TIP3    H123101   5.428   4.182   5.039 -1.8445  0.4557 -0.7852
  562TIP3    H223102   5.566   4.166   4.979 -0.9163  0.1620  1.3710
  563TIP3   OH223103   6.168   5.105  15.789  0.1657 -0.0105  0.1305
  563TIP3    H123104   6.230   5.115  15.861  1.2590  0.7517 -0.8975
  563TIP3    H223105   6.222   5.110  15.710 -1.2017  0.6408 -0.7868
  564TIP3   OH223106   5.642   1.117   5.506  0.6063  0.1685 -0.6387
  564TIP3    H123107   5.725   1.165   5.509  0.7824 -0.1447 -0.3813
  564TIP3    H223108   5.668   1.025   5.500  0.2829  0.0400 -0.1577
  565TIP3   OH223109   3.348   3.486  11.633  0.3142  0.3288  0.5259
  565TIP3    H123110   3.339   3.425  11.560 -0.8821  0.8016  0.2648
  565TIP3    H223111   3.258   3.508  11.657  0.6077 -1.5590  3.6195
  566TIP3   OH223112   3.956   5.523  10.261  0.2845  0.0803  0.1678
  566TIP3    H123113   3.948   5.537  10.355 -0.2691 -2.5981  0.5582
  566TIP3    H223114   3.865   5.520  10.230  0.4061 -0.7982 -0.1322
  567TIP3   OH223115   3.869   5.017  16.415  0.4553  0.4025  0.4341
  567TIP3    H123116   3.810   5.084  16.381  2.1442  1.3228 -0.7545
  567TIP3    H223117   3.852   4.940  16.361 -2.4144 -0.6073  2.6312
  568TIP3   OH223118   3.888   3.716   0.762  0.2119 -0.6720 -0.1826
  568TIP3    H123119   3.956   3.681   0.820  0.9485 -0.8419 -1.1291
  568TIP3    H223120   3.926   3.796   0.726 -0.8769  0.3116  0.8104
  569TIP3   OH223121   0.431   1.855   1.169  0.3771 -0.2257  0.2883
  569TIP3    H123122   0.482   1.805   1.105  1.8269 -0.7293  1.8245
  569TIP3    H223123   0.373   1.790   1.208 -0.0025 -0.0581  0.0080
  570TIP3   OH223124   2.240   5.019  16.321 -0.0370 -0.0640  0.2777
  570TIP3    H123125   2.307   4.967  16.366  0.3924  0.7508  0.5913
  570TIP3    H223126   2.289   5.088  16.277 -0.6062  0.0741 -0.1404
  571TIP3   OH223127   4.513   3.275   4.656 -0.6276  0.4496  0.0259
  571TIP3    H123128   4.599   3.313   4.636  1.6044 -4.2997  0.0884
  571TIP3    H223129   4.500   3.293   4.749  1.2892 -0.6138  0.5176
  572TIP3   OH223130   0.577   2.365  15.917  0.1863  0.0873  0.1282
  572TIP3    H123131   0.576   2.287  15.862  0.6167 -1.2058  1.9244
  572TIP3    H223132   0.499   2.415  15.890 -1.3442 -2.0435  0.4977
  573TIP3   OH223133   6.710   4.062   3.951 -0.0402  0.5589  0.2020
  573TIP3    H123134   6.718   4.148   3.910 -2.3776  0.8084  0.2064
  573TIP3    H223135   6.726   4.077   4.044 -1.4854  1.1822  0.3551
  574TIP3   OH223136   1.122   1.141   5.789 -0.1887  0.2323  0.1772
  574TIP3    H123137   1.114   1.062   5.842  0.2333  0.8385  1.1731
  574TIP3    H223138   1.109   1.112   5.699 -0.6796 -0.8575  0.5961
  575TIP3   OH223139   2.803   5.368   0.285 -0.0240  0.0725 -0.6398
  575TIP3    H123140   2.722   5.319   0.270  0.1079 -0.6217  0.8550
  575TIP3    H223141   2.774   5.456   0.307 -0.3155  0.1823 -1.4258
  576TIP3   OH223142   1.769   2.775  13.292  0.1160 -0.0733  0.0446
  576TIP3    H123143   1.758   2.860  13.250  0.7055  0.4097  0.8443
  576TIP3    H223144   1.712   2.778  13.369  2.0576  0.6060  1.5080
  577TIP3   OH223145   2.851   5.276  12.584  0.2667  0.3852  0.1408
  577TIP3    H123146   2.923   5.238  12.635 -1.7628 -0.1730  2.7083
  577TIP3    H223147   2.891   5.298  12.499  2.7739 -2.5239  0.4676
  578TIP3   OH223148   4.843   2.444  11.617  0.1853  0.0010 -0.5126
  578TIP3    H123149   4.808   2.527  11.584 -0.0473  0.1544  0.1224
  578TIP3    H223150   4.937   2.459  11.625  0.1355  0.2161 -0.3482
  579TIP3   OH223151   0.449   3.508   2.845 -0.3379 -0.2686 -0.1426
  579TIP3    H123152   0.428   3.561   2.922  0.7067  0.5566 -0.4227
  579TIP3    H223153   0.541   3.526   2.827  0.3828 -3.0391  0.4459
  580TIP3   OH223154   2.601   2.081   5.709 -0.5339 -0.1756 -0.1327
  580TIP3    H123155   2.638   1.999   5.676  2.1223  1.0429 -0.3156
  580TIP3    H223156   2.586   2.065   5.802 -1.4694 -1.3305 -0.4603
  581TIP3   OH223157   1.687   6.235   4.038 -0.1628 -0.0751 -0.3229
  581TIP3    H123158   1.744   6.158   4.037 -0.4269 -0.2659 -1.8423
  581TIP3    H223159   1.741   6.305   4.001 -0.3305  0.1926 -0.0686
  582TIP3   OH223160   5.452   6.670  13.107 -0.5448 -0.2496  0.1932
  582TIP3    H123161   5.390   6.740  13.131  0.0727  0.3710 -0.0059
  582TIP3    H223162   5.526   6.683  13.166 -0.3459 -0.6261  0.0273
  583TIP3   OH223163   0.722   5.689  12.295 -0.5989 -0.1528 -0.0802
  583TIP3    H123164   0.813   5.720  12.295 -0.1290 -1.4116  2.1021
  583TIP3    H223165   0.730   5.595  12.278 -1.4311 -0.3692  0.7059
  584TIP3   OH223166   5.112   2.396   4.543 -0.2394 -0.5086 -0.2891
  584TIP3    H123167   5.073   2.479   4.518 -0.4927 -0.5818 -0.1434
  584TIP3    H223168   5.076   2.333   4.481 -0.1083 -0.5248 -0.3501
  585TIP3   OH223169   3.938   2.095  15.470  0.4511 -0.0102  0.2008
  585TIP3    H123170   3.906   2.005  15.475 -3.0279  1.1650  0.5401
  585TIP3    H223171   3.929   2.119  15.378  0.6327  0.1994  0.2359
  586TIP3   OH223172   0.271   3.363  16.189  0.5916  0.1141 -0.2942
  586TIP3    H123173   0.183   3.389  16.160  0.5056  1.3910  1.0540
  586TIP3    H223174   0.305   3.310  16.117 -1.5806 -1.0544 -0.5183
  587TIP3   OH223175   6.391   1.185   2.504  0.0594 -0.8190 -0.4010
  587TIP3    H123176   6.412   1.212   2.594 -1.1339 -2.8015  0.5088
  587TIP3    H223177   6.432   1.099   2.495 -1.8627 -1.6952 -0.9393
  588TIP3   OH223178   5.929   5.615   1.240 -0.0520  0.1043  0.6778
  588TIP3    H123179   5.972   5.586   1.321  0.6757 -1.4731 -0.2448
  588TIP3    H223180   5.865   5.545   1.222  1.6951 -0.9586 -1.5757
  589TIP3   OH223181   3.753   4.959   2.639  0.1863  0.0644 -0.0367
  589TIP3    H123182   3.692   4.972   2.567 -0.4599 -0.1367  0.4617
  589TIP3    H223183   3.806   5.039   2.641  0.7121 -0.2453 -1.1949
  590TIP3   OH223184   5.043   2.861   3.741  0.2187 -0.2250 -0.7298
  590TIP3    H123185   5.105   2.788   3.741 -0.1679 -0.5472 -0.6028
  590TIP3    H223186   5.039   2.890   3.832 -0.3104 -0.6130 -0.6317
  591TIP3   OH223187   6.251   6.357   5.135  0.2055  0.0341 -0.0672
  591TIP3    H123188   6.227   6.437   5.182 -0.6299  0.2122 -0.7880
  591TIP3    H223189   6.178   6.342   5.075  0.5899 -0.9994 -0.2790
  592TIP3   OH223190   3.853   1.229   5.385  0.3170  0.1280 -0.1193
  592TIP3    H123191   3.783   1.181   5.429  0.6954 -0.8480 -0.5661
  592TIP3    H223192   3.845   1.206   5.293  0.7924  0.5566 -0.2742
  593TIP3   OH223193   5.185   3.447  13.942  0.3910 -0.3793  0.2148
  593TIP3    H123194   5.098   3.426  13.908  0.5377  0.4792 -0.7012
  593TIP3    H223195   5.184   3.413  14.032 -1.5759  1.3875  0.8993
  594TIP3   OH223196   6.215   3.532  11.813 -0.4057  0.0492 -0.2065
  594TIP3    H123197   6.267   3.463  11.855 -0.9750 -0.4929 -0.3869
  594TIP3    H223198   6.280   3.587  11.768  0.0736 -0.2029  0.1721
  595TIP3   OH223199   3.642   1.036  14.004 -0.3684 -0.4071  0.5101
  595TIP3    H123200   3.669   0.962  13.950  1.6017 -0.0049  0.8913
  595TIP3    H223201   3.602   0.996  14.081  0.2253 -1.0616  0.4848
  596TIP3   OH223202   2.717   5.400  16.659 -0.2924 -0.4521 -0.1571
  596TIP3    H123203   2.701   5.494  16.646  1.8515  0.2883  2.0057
  596TIP3    H223204   2.803   5.385  16.620 -0.0040 -1.1834  0.7374
  597TIP3   OH223205   5.858   2.713   0.869  0.3519  0.0406 -0.2401
  597TIP3    H123206   5.868   2.662   0.789 -0.0083 -0.4633  0.0300
  597TIP3    H223207   5.763   2.720   0.882  0.4025  0.5774 -0.1490
  598TIP3   OH223208   1.691   4.497  12.723 -0.5365 -0.2549  0.1353
  598TIP3    H123209   1.632   4.474  12.651  3.0657 -3.4090 -2.0441
  598TIP3    H223210   1.757   4.553  12.682  0.1916 -0.0242  1.5900
  599TIP3   OH223211   2.722   2.014  12.565 -0.2275 -0.6275 -0.2217
  599TIP3    H123212   2.754   1.924  12.575 -0.3082 -0.5056  1.1769
  599TIP3    H223213   2.765   2.063  12.635 -0.1019  0.4573 -1.0423
  600TIP3   OH223214   1.245   5.362  16.968 -0.6533  0.2789 -0.1410
  600TIP3    H123215   1.275   5.425  17.034 -1.6043 -0.8116  1.3569
  600TIP3    H223216   1.154   5.386  16.951 -1.5827 -1.7197  1.7411
  601TIP3   OH223217   0.991   6.447   3.274 -0.1517  0.7217  0.5196
  601TIP3    H123218   0.982   6.512   3.343  1.2877  3.6831 -1.9462
  601TIP3    H223219   0.933   6.478   3.204 -1.8727 -2.3863  0.4613
  602TIP3   OH223220   1.968   5.559   4.656  0.6895 -0.1281  0.1211
  602TIP3    H123221   1.985   5.465   4.645  0.1491 -0.0819 -1.2483
  602TIP3    H223222   2.054   5.596   4.676  0.9351 -0.9016  0.5138
  603TIP3   OH223223   0.202   0.781  13.366  0.1649 -0.1882  0.0022
  603TIP3    H123224   0.204   0.867  13.325  0.3322 -0.2900 -0.2057
  603TIP3    H223225   0.293   0.752  13.363  0.2066 -0.1262  0.5897
  604TIP3   OH223226   0.022   0.583   0.773  0.1031  0.1714 -0.4019
  604TIP3    H123227   0.115   0.597   0.752  0.6761 -2.2552  0.3275
  604TIP3    H223228   0.008   0.637   0.851  0.9789  0.3680 -0.3653
  605TIP3   OH223229   2.797   3.010   4.167  0.5094  0.0405 -0.1826
  605TIP3    H123230   2.726   2.946   4.163 -0.5161  1.1880 -0.8512
  605TIP3    H223231   2.803   3.046   4.078  0.7028  1.2431  0.2957
  606TIP3   OH223232   0.495   1.877  14.034  0.3247 -0.1117 -0.2830
  606TIP3    H123233   0.589   1.860  14.040  0.3063 -0.6895 -1.4750
  606TIP3    H223234   0.488   1.972  14.038  0.9033 -0.0926  0.4804
  607TIP3   OH223235   4.156   4.746  10.491 -0.0875 -0.1212  0.2882
  607TIP3    H123236   4.094   4.715  10.557 -1.3710  1.0057 -0.3580
  607TIP3    H223237   4.177   4.836  10.519  0.0750  0.0325 -0.3325
  608TIP3   OH223238   6.206   2.002  13.035 -0.0376  0.4706 -0.3664
  608TIP3    H123239   6.229   1.933  13.098 -0.8496  0.3878 -0.1579
  608TIP3    H223240   6.275   2.068  13.046  0.3431  0.0272 -0.0547
  609TIP3   OH223241   1.159   4.179   1.775 -0.1439  0.2997 -1.0301
  609TIP3    H123242   1.076   4.202   1.733 -0.1127  1.3202 -0.5318
  609TIP3    H223243   1.191   4.261   1.813  0.4154 -0.3592 -0.0414
  610TIP3   OH223244   4.786   3.357   0.933  0.4880 -0.0684 -0.1150
  610TIP3    H123245   4.799   3.263   0.935 -1.6708 -0.3932 -0.5200
  610TIP3    H223246   4.814   3.383   0.845 -0.1923 -0.5300 -0.4694
  611TIP3   OH223247   5.816   5.904   2.260 -0.8838  0.9190 -0.1461
  611TIP3    H123248   5.749   5.849   2.301 -1.2487  1.1190 -0.4673
  611TIP3    H223249   5.775   5.934   2.179 -0.4853  1.2255 -0.2324
  612TIP3   OH223250   6.200   1.275   5.523 -0.1315 -0.0438  0.0428
  612TIP3    H123251   6.127   1.336   5.515 -0.1763  0.1136  1.4621
  612TIP3    H223252   6.160   1.195   5.558  0.3749  0.0696  0.9011
  613TIP3   OH223253   4.023   3.116   1.193  0.3741 -0.1284 -0.3474
  613TIP3    H123254   4.107   3.071   1.186  0.1676 -1.0391  2.3831
  613TIP3    H223255   4.042   3.206   1.167  1.8420 -0.6818 -1.2633
  614TIP3   OH223256   2.791   4.087  11.400 -0.5257 -0.2982  0.2641
  614TIP3    H123257   2.829   4.126  11.322 -0.7405  0.2544  0.4296
  614TIP3    H223258   2.818   4.146  11.471 -2.3059  0.5268  0.2862
  615TIP3   OH223259   0.686   2.272   1.522  0.0506  0.1345  0.3424
  615TIP3    H123260   0.688   2.195   1.465 -0.3825  0.0859  0.3899
  615TIP3    H223261   0.643   2.242   1.602 -0.1181  0.4281  0.3624
  616TIP3   OH223262   2.952   0.574   2.676  0.1498 -0.6211  0.0933
  616TIP3    H123263   2.893   0.501   2.696 -0.0978 -0.7302 -1.0002
  616TIP3    H223264   2.991   0.550   2.592  1.3957 -0.3190  0.5680
  617TIP3   OH223265   2.821   0.562   1.082 -0.4326  0.3947 -0.0981
  617TIP3    H123266   2.869   0.644   1.080 -1.3520  1.0279  2.1418
  617TIP3    H223267   2.753   0.572   1.016  0.1287  1.0066 -0.5821
  618TIP3   OH223268   6.238   0.671  15.424 -0.3656  0.3489 -0.0229
  618TIP3    H123269   6.255   0.724  15.346 -0.9937  2.0308  0.9491
  618TIP3    H223270   6.233   0.581  15.392 -3.4758  1.3027 -2.3693
  619TIP3   OH223271   6.730   5.864   2.566 -0.2715  0.5167 -0.0130
  619TIP3    H123272   6.801   5.923   2.539 -1.8221  1.5564 -1.9173
  619TIP3    H223273   6.663   5.921   2.601 -0.9667 -0.2880 -0.0138
  620TIP3   OH223274   0.802   4.187  11.162  0.5245  0.8078  0.1268
  620TIP3    H123275   0.833   4.260  11.108  0.5149  1.2204  0.6739
  620TIP3    H223276   0.860   4.115  11.140 -0.3047  0.5905 -1.4226
  621TIP3   OH223277   1.879   0.798  14.476 -0.4206  0.3950 -0.4080
  621TIP3    H123278   1.931   0.878  14.480  0.7469 -0.4468  1.4949
  621TIP3    H223279   1.799   0.818  14.525 -0.2145  0.4512 -0.0988
  622TIP3   OH223280   0.775   0.326  15.461  1.3116  0.1642 -0.2670
  622TIP3    H123281   0.760   0.381  15.539 -0.1703 -0.2993 -0.2079
  622TIP3    H223282   0.845   0.266  15.488 -0.0060 -0.7923  1.1506
  623TIP3   OH223283   2.149   5.700   3.886 -0.3874 -0.4424 -0.6855
  623TIP3    H123284   2.137   5.625   3.944 -0.3338  0.4630  0.5120
  623TIP3    H223285   2.244   5.709   3.877 -0.2206  1.8889  2.4217
  624TIP3   OH223286   0.153   6.177   1.038  0.3710  0.5933  0.3157
  624TIP3    H123287   0.180   6.180   1.130  0.7455  0.6554  0.2060
  624TIP3    H223288   0.149   6.083   1.018 -2.1708  0.4844  1.0956
  625TIP3   OH223289   1.695   4.138  13.731  0.3706 -0.1365 -0.2053
  625TIP3    H123290   1.742   4.219  13.749 -0.1787  0.0498  0.3655
  625TIP3    H223291   1.608   4.165  13.703  0.0241 -0.5411  0.4597
  626TIP3   OH223292   4.207   5.588   1.862  0.5822  0.0201 -0.0150
  626TIP3    H123293   4.289   5.562   1.819  0.2262  1.7155 -1.7755
  626TIP3    H223294   4.230   5.597   1.955  2.2341 -0.1356 -0.4011
  627TIP3   OH223295   5.844   3.954  14.541 -0.4261  0.2842 -0.2986
  627TIP3    H123296   5.925   3.905  14.554 -0.2327  1.0971  1.5613
  627TIP3    H223297   5.854   3.993  14.454  1.2450  0.5302 -0.0078
  628TIP3   OH223298   2.614   5.098   1.410 -1.2004 -0.7709 -0.5815
  628TIP3    H123299   2.658   5.104   1.495 -2.5958 -0.4272  0.1329
  628TIP3    H223300   2.621   5.006   1.386 -0.5323 -0.8141 -0.2442
  629TIP3   OH223301   0.391   0.784   5.001 -0.3036 -0.0941  0.1881
  629TIP3    H123302   0.371   0.785   4.907  0.3831  1.4864  0.0384
  629TIP3    H223303   0.403   0.876   5.024  1.4522 -0.6014  1.4198
  630TIP3   OH223304   0.418   3.588   1.574  0.1883  0.7394  0.8046
  630TIP3    H123305   0.380   3.633   1.650 -0.7113 -0.5812  1.1597
  630TIP3    H223306   0.482   3.528   1.611 -0.5060 -0.1627  0.5590
  631TIP3   OH223307   6.411   2.407   3.938  0.1657 -0.2618 -0.3127
  631TIP3    H123308   6.336   2.392   3.881  0.3185  0.1316 -0.6213
  631TIP3    H223309   6.433   2.321   3.972  0.6809 -0.6588 -1.6227
  632TIP3   OH223310   3.275   4.125   3.381 -0.5264 -0.0389  0.2771
  632TIP3    H123311   3.337   4.141   3.311  0.4245 -1.6011  0.7342
  632TIP3    H223312   3.197   4.175   3.356  0.4969  1.0009 -0.8781
  633TIP3   OH223313   0.108   0.604  11.559  0.0700  0.4005 -0.0001
  633TIP3    H123314   0.098   0.553  11.479  0.7599 -0.6748  0.5895
  633TIP3    H223315   0.088   0.542  11.629  1.1284  0.8793  0.7354
  634TIP3   OH223316   2.756   0.908  13.530 -0.5006 -0.3930 -0.3024
  634TIP3    H123317   2.710   0.975  13.479 -1.3235 -2.4083 -2.2784
  634TIP3    H223318   2.848   0.917  13.503 -0.2204  1.4417  1.1724
  635TIP3   OH223319   1.641   0.791  13.864  0.2512  0.2379  0.5813
  635TIP3    H123320   1.582   0.812  13.937  0.8427  0.2702  1.0575
  635TIP3    H223321   1.699   0.867  13.857  1.0711 -0.3393  0.9726
  636TIP3   OH223322   1.842   0.892   1.644 -0.4541  0.1049 -0.5554
  636TIP3    H123323   1.893   0.841   1.581  0.0510  0.8728 -0.7699
  636TIP3    H223324   1.840   0.838   1.723 -0.5879 -0.5993 -1.0343
  637TIP3   OH223325   1.619   5.347  12.541 -0.9505  0.3082 -0.1932
  637TIP3    H123326   1.598   5.307  12.457 -1.3920 -0.9512  0.4990
  637TIP3    H223327   1.656   5.275  12.593 -0.9519  1.0056  0.7831
  638TIP3   OH223328   1.019   1.615  16.522 -0.3662  0.1022  0.2301
  638TIP3    H123329   1.069   1.534  16.523  1.1858  1.0345  0.0137
  638TIP3    H223330   0.942   1.597  16.575  0.3791 -1.2494  0.8588
  639TIP3   OH223331   6.639   3.121   3.006  0.0901  0.0221  0.1730
  639TIP3    H123332   6.589   3.048   2.970 -0.4153  0.6587 -0.4269
  639TIP3    H223333   6.705   3.080   3.062 -0.2132 -0.8878 -0.1334
  640TIP3   OH223334   5.261   1.595   5.929 -0.4746 -0.1822  0.0651
  640TIP3    H123335   5.210   1.557   6.000 -0.0757  0.2591  0.5994
  640TIP3    H223336   5.332   1.641   5.973  0.0752 -0.3376 -0.6462
  641TIP3   OH223337   3.085   5.012   4.200 -0.3150 -0.2183  0.7426
  641TIP3    H123338   3.044   4.941   4.250  0.8545 -0.4281  1.4111
  641TIP3    H223339   3.109   5.076   4.266 -2.0351  1.1544  0.0663
  642TIP3   OH223340   1.754   6.672  13.786 -1.1935  0.1995  0.2608
  642TIP3    H123341   1.685   6.707  13.729 -1.1218 -1.9915 -1.2275
  642TIP3    H223342   1.823   6.643  13.726 -0.0254  0.1134  1.6022
  643TIP3   OH223343   2.917   6.645  15.876  0.4619  0.2839 -0.5601
  643TIP3    H123344   2.911   6.680  15.787 -0.1401 -0.9069 -0.9962
  643TIP3    H223345   2.929   6.551  15.864  1.1234  0.2093  0.6175
  644TIP3   OH223346   1.100   4.932   5.656 -0.4773  0.5342  0.3347
  644TIP3    H123347   1.022   4.879   5.673  0.3820 -0.3231  1.7207
  644TIP3    H223348   1.073   5.022   5.673 -1.6721  0.4428 -1.0323
  645TIP3   OH223349   1.896   0.592  12.591 -0.5074 -0.4276  0.2597
  645TIP3    H123350   1.898   0.559  12.501 -0.4022  0.2898 -0.0070
  645TIP3    H223351   1.900   0.514  12.645 -1.4165 -0.9147 -0.3614
  646TIP3   OH223352   6.217   4.503  11.044 -0.0471  0.9376 -0.0925
  646TIP3    H123353   6.219   4.468  10.955 -0.7983  0.9754 -0.1275
  646TIP3    H223354   6.151   4.572  11.042  1.9734  2.9120 -0.2093
  647TIP3   OH223355   0.992   2.104   1.674 -0.1623 -0.0452 -0.7026
  647TIP3    H123356   1.084   2.124   1.655 -0.3065  0.7538 -0.5890
  647TIP3    H223357   0.943   2.177   1.636 -0.5077  1.1401  1.9014
  648TIP3   OH223358   4.651   3.331   2.617  0.8809 -0.2303 -0.6635
  648TIP3    H123359   4.633   3.349   2.709  0.9889 -0.7125 -0.5462
  648TIP3    H223360   4.719   3.264   2.618  2.7520  1.6090 -1.1054
  649TIP3   OH223361   2.033   1.650   4.412 -0.2791 -0.2206  0.1368
  649TIP3    H123362   2.093   1.677   4.482  0.3153 -0.6808 -0.1988
  649TIP3    H223363   1.948   1.645   4.455  0.3964 -2.3949  1.2901
  650TIP3   OH223364   2.800   5.353  15.718  0.5266 -0.4245  0.2289
  650TIP3    H123365   2.795   5.369  15.812 -0.6519  0.2749  0.0612
  650TIP3    H223366   2.802   5.440  15.679  0.4734 -0.7083 -0.4174
  651TIP3   OH223367   2.792   1.238   2.709  0.0550 -0.3958  0.5375
  651TIP3    H123368   2.795   1.267   2.618 -0.3806 -1.0881  0.2985
  651TIP3    H223369   2.884   1.222   2.732  0.3186  1.4189  0.7629
  652TIP3   OH223370   2.575   3.855   4.216 -0.3262  0.2951  0.0429
  652TIP3    H123371   2.498   3.808   4.185 -2.2203  2.3770  1.4136
  652TIP3    H223372   2.590   3.923   4.150 -0.3271  0.5758  0.3309
  653TIP3   OH223373   5.149   5.681  13.848 -0.0334  0.0628 -0.2596
  653TIP3    H123374   5.208   5.641  13.911 -0.4874  0.6538  0.5574
  653TIP3    H223375   5.071   5.625  13.848 -0.4298  0.6036  0.4436
  654TIP3   OH223376   3.201   5.871  12.418  0.2607 -0.7464 -0.2879
  654TIP3    H123377   3.191   5.778  12.438 -2.1045 -0.0915  1.8213
  654TIP3    H223378   3.233   5.910  12.499  2.0235  0.1911 -1.3972
  655TIP3   OH223379   6.712   2.679  14.691 -0.0162 -0.1142 -0.4236
  655TIP3    H123380   6.628   2.635  14.706 -0.2308  0.3910 -0.1139
  655TIP3    H223381   6.687   2.766  14.659  0.3461  0.7743  1.6164
  656TIP3   OH223382   2.014   4.729   5.152 -0.3684 -0.3504  0.3468
  656TIP3    H123383   2.071   4.711   5.227 -0.5763  0.6145  0.7419
  656TIP3    H223384   1.931   4.754   5.190 -1.0099 -1.5405 -0.2327
  657TIP3   OH223385   3.106   4.632  11.189  0.1462 -0.1593 -0.0696
  657TIP3    H123386   3.069   4.717  11.163  0.9632  0.7449  1.6525
  657TIP3    H223387   3.039   4.569  11.162 -0.0744  0.9313 -2.1973
  658TIP3   OH223388   4.781   4.655   3.174  0.0371 -0.2430  0.1283
  658TIP3    H123389   4.813   4.744   3.190  1.3450 -0.6091 -0.4284
  658TIP3    H223390   4.689   4.658   3.201 -0.7360  2.0353 -2.5747
  659TIP3   OH223391   4.494   5.895   5.322 -0.2677 -0.1068 -0.0359
  659TIP3    H123392   4.556   5.911   5.252  0.7218  1.6823  1.2372
  659TIP3    H223393   4.491   5.799   5.330  0.4460 -0.2778 -1.7466
  660TIP3   OH223394   4.527   5.373   0.973 -0.0115 -0.1119 -0.0877
  660TIP3    H123395   4.536   5.446   0.911  2.0323 -0.2510  0.0042
  660TIP3    H223396   4.437   5.343   0.961 -0.2482  1.0950 -1.6161
  661TIP3   OH223397   4.080   4.654   2.999  0.3171  0.3348  1.1364
  661TIP3    H123398   4.037   4.740   2.994 -1.0222 -0.3506  0.4771
  661TIP3    H223399   4.136   4.651   2.922 -1.7334 -0.4492 -0.3801
  662TIP3   OH223400   0.260   5.978  16.448  0.2829 -0.1453  0.1452
  662TIP3    H123401   0.185   5.933  16.486 -0.4057  0.2523 -0.7018
  662TIP3    H223402   0.226   6.065  16.426  0.5805 -0.4511 -1.5956
  663TIP3   OH223403   0.610   4.983  13.567  0.1586  0.2582  0.3979
  663TIP3    H123404   0.530   5.035  13.558  1.6188  2.2096 -1.7052
  663TIP3    H223405   0.670   5.019  13.502  2.7777 -1.1413  1.9396
  664TIP3   OH223406   0.637   0.968  16.598 -0.4768 -0.5908  0.0061
  664TIP3    H123407   0.639   1.036  16.665 -0.4923 -0.1209 -0.4617
  664TIP3    H223408   0.698   0.999  16.531 -1.8966 -0.1067 -1.0891
  665TIP3   OH223409   3.595   2.191  15.203  0.2720  0.1347 -0.2471
  665TIP3    H123410   3.518   2.235  15.166  0.2744 -0.9125 -1.5084
  665TIP3    H223411   3.562   2.145  15.280 -0.0752  0.8614  0.0475
  666TIP3   OH223412   1.801   2.341   4.721  0.5090 -0.0484  0.1205
  666TIP3    H123413   1.794   2.399   4.645 -0.2734  1.3047  1.2153
  666TIP3    H223414   1.862   2.386   4.779 -0.1945 -0.2573  1.0280
  667TIP3   OH223415   1.354   0.843   3.292 -0.3740 -0.4076  0.4945
  667TIP3    H123416   1.392   0.756   3.281  0.0267 -0.1013 -0.5881
  667TIP3    H223417   1.311   0.840   3.377  0.8095 -1.2389  1.0786
  668TIP3   OH223418   0.782   5.588  15.431  0.1183 -0.3546 -0.3080
  668TIP3    H123419   0.854   5.610  15.490 -2.4084  0.9663  2.4235
  668TIP3    H223420   0.706   5.580  15.489 -1.8659 -2.0802 -3.0667
  669TIP3   OH223421   4.310   2.868   0.078 -0.1461  0.0630 -0.7398
  669TIP3    H123422   4.288   2.908   0.162 -2.1963  1.6101 -1.9887
  669TIP3    H223423   4.230   2.824   0.050  0.7685 -1.1481 -1.5240
  670TIP3   OH223424   0.881   0.211  10.568 -0.0531 -0.3201 -0.2300
  670TIP3    H123425   0.904   0.239  10.479 -0.7401  0.9144 -0.0247
  670TIP3    H223426   0.800   0.163  10.558 -0.6447  0.6451 -0.1607
  671TIP3   OH223427   1.698   5.798   0.253  0.1139  0.1662 -0.0324
  671TIP3    H123428   1.737   5.828   0.335  0.7174  1.9087 -0.9362
  671TIP3    H223429   1.773   5.772   0.199 -0.2853 -1.0654  0.0012
  672TIP3   OH223430   1.604   2.506   2.395 -0.3986  0.5511 -0.3916
  672TIP3    H123431   1.620   2.494   2.301 -1.1688  0.9299 -0.5684
  672TIP3    H223432   1.515   2.475   2.409  0.0023 -0.3064  0.3780
  673TIP3   OH223433   5.344   2.361  11.695  0.3646  0.5964  0.2713
  673TIP3    H123434   5.291   2.392  11.621  0.1908 -0.5532 -0.0925
  673TIP3    H223435   5.434   2.363  11.663  0.0778 -2.2333 -0.8307
  674TIP3   OH223436   5.143   3.507   1.212 -0.1537 -0.1604  0.0256
  674TIP3    H123437   5.171   3.595   1.235  0.4512 -0.4898  0.5576
  674TIP3    H223438   5.210   3.475   1.152 -0.2513 -0.3475  0.0174
  675TIP3   OH223439   0.964   3.772   0.399 -0.0501 -0.7198 -0.0367
  675TIP3    H123440   1.041   3.735   0.442  0.2264 -0.1778 -0.0542
  675TIP3    H223441   0.944   3.850   0.450  0.2948 -0.0587 -0.9014
  676TIP3   OH223442   5.774   3.738   2.145 -0.3766 -0.0488  0.1272
  676TIP3    H123443   5.753   3.683   2.070 -1.0282 -1.6134  1.4098
  676TIP3    H223444   5.704   3.721   2.208 -0.1135  1.6116  0.8917
  677TIP3   OH223445   2.757   2.461   5.136 -0.0524  0.2645 -0.4264
  677TIP3    H123446   2.795   2.474   5.049 -0.7735  1.8153 -0.5275
  677TIP3    H223447   2.682   2.404   5.122 -0.2665  0.6501 -0.8499
  678TIP3   OH223448   1.061   6.409  15.060 -1.0429  0.1745  0.0723
  678TIP3    H123449   1.043   6.496  15.094  1.7985  1.7003 -2.1124
  678TIP3    H223450   1.127   6.373  15.119  0.0865  0.7720 -0.8099
  679TIP3   OH223451   2.759   1.159   0.510  0.4953 -1.2078 -0.0453
  679TIP3    H123452   2.710   1.160   0.428  0.7039 -1.2288 -0.1683
  679TIP3    H223453   2.785   1.067   0.522 -1.0937 -1.5497  0.9606
  680TIP3   OH223454   0.960   2.889  14.202 -0.3791 -0.5460  0.6439
  680TIP3    H123455   1.052   2.891  14.228 -1.0547  1.8396  3.0389
  680TIP3    H223456   0.914   2.848  14.276 -1.6611  1.4405  0.9831
  681TIP3   OH223457   1.356   5.468  15.603  0.4595 -0.5680 -0.2345
  681TIP3    H123458   1.314   5.527  15.666  0.7736 -1.1891  0.5729
  681TIP3    H223459   1.429   5.518  15.567  1.2687 -0.7482  1.0994
  682TIP3   OH223460   4.692   4.915   6.074 -0.3316  0.4255 -0.7482
  682TIP3    H123461   4.625   4.913   6.142  2.1449 -1.5108  1.7726
  682TIP3    H223462   4.694   5.007   6.045 -1.8471  1.1862  1.4140
  683TIP3   OH223463   0.270   4.336   1.953  0.0526  1.0840  0.0618
  683TIP3    H123464   0.202   4.389   1.995 -1.1090 -0.9648  0.8650
  683TIP3    H223465   0.243   4.331   1.862 -0.3476  1.1021  0.1752
  684TIP3   OH223466   2.270   1.218  12.124  0.3867  0.7705 -0.3903
  684TIP3    H123467   2.251   1.172  12.042 -0.8002 -2.0881  1.3935
  684TIP3    H223468   2.275   1.148  12.190  3.7702  2.7549  1.5858
  685TIP3   OH223469   5.028   1.392  14.781 -0.1032  0.3829  0.2316
  685TIP3    H123470   5.047   1.423  14.693  1.8384 -0.1854  0.4225
  685TIP3    H223471   5.030   1.471  14.836 -3.4762  1.0545 -0.5246
  686TIP3   OH223472   4.982   6.386   2.945 -0.0628  0.9023 -0.4734
  686TIP3    H123473   5.008   6.340   3.024 -0.6403  0.3079 -0.6279
  686TIP3    H223474   5.052   6.451   2.931  0.3689  0.5741  0.1511
  687TIP3   OH223475   4.174   5.798  13.753  0.8929  0.1776 -0.0002
  687TIP3    H123476   4.257   5.784  13.799  0.8697  0.9949  0.2948
  687TIP3    H223477   4.185   5.883  13.710 -0.1125  0.6873  0.7355
  688TIP3   OH223478   3.070   6.708  15.450  0.2591  0.4136  0.4236
  688TIP3    H123479   3.140   6.664  15.402 -2.0199 -0.5676 -2.1423
  688TIP3    H223480   3.004   6.639  15.464 -0.4117  1.4122  2.4263
  689TIP3   OH223481   2.927   6.377  11.475 -0.3169  0.0698 -0.0641
  689TIP3    H123482   3.015   6.374  11.439 -0.1866 -0.7282  0.3169
  689TIP3    H223483   2.939   6.402  11.567 -0.5641  0.9285 -0.2565
  690TIP3   OH223484   2.006   4.784  12.987  0.3215 -0.3064  0.7969
  690TIP3    H123485   1.935   4.795  12.923  1.7974 -0.3763 -0.9156
  690TIP3    H223486   2.021   4.872  13.021  0.6916  0.0599 -0.2769
  691TIP3   OH223487   4.969   4.275  15.722 -0.0835  0.0777  0.1049
  691TIP3    H123488   5.011   4.291  15.806 -1.1027  0.0229  0.6346
  691TIP3    H223489   5.033   4.223  15.673  1.4207  1.9599  0.0016
  692TIP3   OH223490   6.278   0.147   4.429  0.1514  0.4391 -0.0752
  692TIP3    H123491   6.325   0.205   4.488  0.8122  0.0659 -0.2349
  692TIP3    H223492   6.344   0.114   4.369 -0.7370  1.8701 -1.8972
  693TIP3   OH223493   0.055   2.215   0.844  0.8678  0.3125  0.3725
  693TIP3    H123494   0.070   2.157   0.769  1.2507  0.8674  0.0102
  693TIP3    H223495   0.099   2.296   0.819 -0.3781  1.0397  0.5084
  694TIP3   OH223496   0.761   2.755   1.720  0.3035 -0.2923 -0.0851
  694TIP3    H123497   0.684   2.755   1.777  0.4064 -0.8267  0.0538
  694TIP3    H223498   0.725   2.747   1.632  0.1165  1.0346 -0.1399
  695TIP3   OH223499   2.901   6.316  13.379 -0.0008 -0.2718  0.0327
  695TIP3    H123500   2.880   6.362  13.298  1.1782  0.4911  0.1415
  695TIP3    H223501   2.928   6.228  13.351 -0.8622 -0.4329 -0.2895
  696TIP3   OH223502   4.180   5.107   0.635 -0.0918 -0.3070  0.1225
  696TIP3    H123503   4.267   5.079   0.607  0.5679 -0.1137  1.9136
  696TIP3    H223504   4.127   5.028   0.629  0.4957 -0.7094  0.1266
  697TIP3   OH223505   2.576   3.139   4.583 -0.0445 -0.6756 -0.5180
  697TIP3    H123506   2.652   3.087   4.558 -0.0478 -1.3237  0.8101
  697TIP3    H223507   2.598   3.175   4.669 -0.1274  1.3513 -1.3122
  698TIP3   OH223508   5.900   0.555  16.848  0.7137 -0.1166 -0.0804
  698TIP3    H123509   5.912   0.643  16.883  0.0531  0.0205 -0.1972
  698TIP3    H223510   5.881   0.568  16.755 -1.7668 -0.2537  0.3979
  699TIP3   OH223511   5.018   2.579  15.884 -0.1567  0.5146 -0.0820
  699TIP3    H123512   5.052   2.652  15.935  1.0820  0.9386 -1.4801
  699TIP3    H223513   4.926   2.602  15.867 -0.0318  1.3002  0.2799
  700TIP3   OH223514   2.376   1.970   0.616  0.3289  0.2313 -0.2473
  700TIP3    H123515   2.301   1.984   0.558  0.5952  2.2665 -0.1325
  700TIP3    H223516   2.338   1.961   0.703  0.1927  1.0370 -0.2189
  701TIP3   OH223517   6.379   1.917  15.669 -0.5266 -0.0996  0.1576
  701TIP3    H123518   6.472   1.937  15.680 -0.6312  0.1078  0.6864
  701TIP3    H223519   6.334   1.982  15.724 -0.8776 -1.7958  1.9227
  702TIP3   OH223520   6.529   2.686  12.357  0.3964  0.0391 -0.3848
  702TIP3    H123521   6.473   2.619  12.318 -1.5972  0.9773  0.7859
  702TIP3    H223522   6.509   2.765  12.307  2.6747 -0.1574 -1.7028
  703TIP3   OH223523   0.096   0.919   3.802 -0.5178  0.6197 -0.3267
  703TIP3    H123524   0.168   0.941   3.861 -1.6145  0.3154  1.1772
  703TIP3    H223525   0.137   0.878   3.727  1.1228  3.1211 -0.8386
  704TIP3   OH223526   4.549   2.690  14.815  0.9225 -0.0305  0.2934
  704TIP3    H123527   4.517   2.717  14.901 -1.0468  0.5652 -0.5982
  704TIP3    H223528   4.548   2.595  14.817 -0.1544 -0.0224  0.5726
  705TIP3   OH223529   1.894   0.895   0.962 -0.3306 -0.0814  0.2389
  705TIP3    H123530   1.849   0.812   0.976 -0.3090 -0.2029 -0.4205
  705TIP3    H223531   1.926   0.891   0.872 -1.2032  1.0518 -0.1476
  706TIP3   OH223532   4.560   1.139   3.093 -0.5858  0.6525 -0.3876
  706TIP3    H123533   4.624   1.158   3.024  0.3467 -1.0099 -0.0074
  706TIP3    H223534   4.588   1.055   3.129 -1.1456  1.4252  1.9214
  707TIP3   OH223535   6.462   2.290  15.903 -0.1037 -0.4004 -0.0184
  707TIP3    H123536   6.402   2.361  15.882  0.3078  0.0139  0.1951
  707TIP3    H223537   6.532   2.298  15.838 -1.0230 -1.8074 -1.2316
  708TIP3   OH223538   3.684   2.208  13.387  0.3718  0.7529 -0.7673
  708TIP3    H123539   3.724   2.122  13.403 -0.1483 -0.0979 -3.7426
  708TIP3    H223540   3.743   2.270  13.429  2.2355 -0.8566 -0.9140
  709TIP3   OH223541   5.303   5.860   0.001 -0.3509  0.6053 -0.8073
  709TIP3    H123542   5.324   5.914  -0.075 -0.0712  0.6724 -0.6808
  709TIP3    H223543   5.312   5.919   0.075  0.5792  0.2235 -0.6147
  710TIP3   OH223544   0.762   2.248  15.643 -0.1329 -0.5573 -0.0807
  710TIP3    H123545   0.793   2.267  15.731  0.9962  0.9175 -0.7686
  710TIP3    H223546   0.671   2.220  15.654 -0.0798 -0.1224  1.5065
  711TIP3   OH223547   4.219   6.279   0.882 -0.0250  0.7164  0.5237
  711TIP3    H123548   4.229   6.237   0.796  0.8748  0.6432  0.6569
  711TIP3    H223549   4.236   6.209   0.945 -0.9468  0.7096  0.7626
  712TIP3   OH223550   4.767   1.781   2.607  0.9055 -0.4459 -0.5387
  712TIP3    H123551   4.731   1.796   2.519 -3.1393 -1.8261  0.7820
  712TIP3    H223552   4.808   1.694   2.601 -1.0525 -1.4022 -0.6353
  713TIP3   OH223553   5.260   3.535   3.391  0.0416  0.4596  0.3027
  713TIP3    H123554   5.232   3.444   3.379 -0.8781  0.6720  0.8044
  713TIP3    H223555   5.293   3.561   3.305 -1.7808  0.3545 -0.4420
  714TIP3   OH223556   0.765   3.677  13.701  0.4557  0.0118  0.3891
  714TIP3    H123557   0.791   3.586  13.716  0.3059 -0.3096 -1.2151
  714TIP3    H223558   0.817   3.705  13.626 -0.8865  0.6257 -0.3457
  715TIP3   OH223559   6.587   4.598   5.942 -0.2879 -1.2097  0.3810
  715TIP3    H123560   6.496   4.602   5.911  0.1783 -0.3684 -0.9548
  715TIP3    H223561   6.581   4.568   6.032 -2.1012  1.1690  1.1171
  716TIP3   OH223562   5.555   3.873   1.357  0.7168 -0.0903  0.8117
  716TIP3    H123563   5.633   3.891   1.410  0.3100 -0.3432  1.5146
  716TIP3    H223564   5.503   3.813   1.411  0.5152 -0.7300 -0.0925
  717TIP3   OH223565   0.606   1.060  15.893  0.1412 -0.2295  0.4874
  717TIP3    H123566   0.692   1.030  15.862 -0.3874  0.6779 -1.9712
  717TIP3    H223567   0.553   1.066  15.813 -2.9577 -3.0664  2.1773
  718TIP3   OH223568   1.689   6.269  11.412 -0.6951  0.3317  0.2793
  718TIP3    H123569   1.727   6.316  11.337 -1.7022  1.5272  0.5002
  718TIP3    H223570   1.624   6.330  11.447 -2.1287 -1.2979  0.4928
  719TIP3   OH223571   5.794   3.955   3.795  0.5785 -0.2448  0.4411
  719TIP3    H123572   5.774   4.021   3.861 -0.0634  0.2003 -0.1825
  719TIP3    H223573   5.887   3.938   3.805  0.4064 -0.4589  1.7058
  720TIP3   OH223574   4.313   4.524  11.807 -0.5496 -0.0432 -0.0713
  720TIP3    H123575   4.322   4.447  11.750  1.3407 -0.1455  0.3244
  720TIP3    H223576   4.230   4.511  11.853 -1.6947 -0.3768 -2.1691
  721TIP3   OH223577   1.399   2.902  15.517 -0.5266 -0.1669 -0.7239
  721TIP3    H123578   1.488   2.915  15.549 -0.3534 -1.4730 -0.6600
  721TIP3    H223579   1.347   2.967  15.564  0.2924  0.2381 -0.3622
  722TIP3   OH223580   2.988   0.992  10.482  0.0904 -0.6598  0.2179
  722TIP3    H123581   2.946   0.906  10.493  1.2884 -1.2679  0.1195
  722TIP3    H223582   2.940   1.033  10.410  0.8383 -2.0846 -1.1189
  723TIP3   OH223583   3.928   0.928   0.577  0.6552  0.2167 -0.5062
  723TIP3    H123584   3.896   0.950   0.489  0.0597 -2.0478 -0.8704
  723TIP3    H223585   3.932   0.833   0.578  0.7740  0.2307  1.9093
  724TIP3   OH223586   4.212   6.155   0.616  0.1339 -0.0122 -0.2467
  724TIP3    H123587   4.284   6.100   0.647  0.5434  1.2280  1.0575
  724TIP3    H223588   4.250   6.205   0.543  0.5931  0.5807  0.3879
  725TIP3   OH223589   2.671   3.788   2.017 -0.2256  1.0375  0.0844
  725TIP3    H123590   2.592   3.740   2.038  0.2824  0.2244  0.1689
  725TIP3    H223591   2.656   3.822   1.928 -0.6564  0.8708  0.0928
  726TIP3   OH223592   2.785   0.370   2.081 -0.3118 -0.7629  0.0668
  726TIP3    H123593   2.805   0.280   2.054 -0.0812  0.3004 -3.6342
  726TIP3    H223594   2.693   0.382   2.059  0.2179  0.5555 -1.5410
  727TIP3   OH223595   6.270   6.566  13.937  0.5418  0.2576  0.4096
  727TIP3    H123596   6.275   6.602  13.849 -0.0388  0.2000  0.3448
  727TIP3    H223597   6.356   6.528  13.953  0.9365  1.0633  0.2151
  728TIP3   OH223598   5.581   2.200  14.136  0.0023 -0.5528  0.0870
  728TIP3    H123599   5.629   2.133  14.087  0.6257  1.0021 -1.4843
  728TIP3    H223600   5.632   2.280  14.123 -0.0010 -0.0264  3.0506
  729TIP3   OH223601   1.871   6.035   5.343 -0.5458 -0.0788 -0.2971
  729TIP3    H123602   1.849   6.028   5.250 -0.0729  0.5023 -0.4527
  729TIP3    H223603   1.841   5.952   5.380  2.2778 -1.7825 -1.6014
  730TIP3   OH223604   4.334   6.230  13.382  0.3183 -0.5798 -0.2607
  730TIP3    H123605   4.335   6.323  13.357  1.1230 -0.5843 -0.2728
  730TIP3    H223606   4.322   6.184  13.299 -0.5994 -0.4785 -0.1950
  731TIP3   OH223607   5.931   2.621  12.758 -0.1308 -0.1554  0.4354
  731TIP3    H123608   6.018   2.628  12.718 -0.4595 -2.3418 -0.7344
  731TIP3    H223609   5.872   2.609  12.684 -1.0027 -2.1315  1.4332
  732TIP3   OH223610   4.381   0.753   4.783  0.1636  1.0586 -0.4905
  732TIP3    H123611   4.343   0.801   4.857 -0.1557  2.1291 -1.3258
  732TIP3    H223612   4.474   0.746   4.804 -0.3598 -1.0261  1.2679
  733TIP3   OH223613   1.954   0.209  15.513 -0.1456  0.1022  0.5001
  733TIP3    H123614   1.885   0.184  15.574  0.0517 -0.6547  0.4064
  733TIP3    H223615   2.002   0.128  15.494 -1.1749  0.0001 -1.8897
  734TIP3   OH223616   6.080   0.444   3.652  0.3633  0.2339 -0.2870
  734TIP3    H123617   5.995   0.451   3.695 -0.3137  0.2243 -1.5893
  734TIP3    H223618   6.061   0.402   3.567  1.7552 -0.3970 -0.3108
  735TIP3   OH223619   2.659   0.325   4.722  0.7554  0.1467 -0.2384
  735TIP3    H123620   2.570   0.305   4.749  1.4578 -0.1581  1.9599
  735TIP3    H223621   2.713   0.260   4.767  2.1184  0.4766 -1.3536
  736TIP3   OH223622   2.718   2.931   5.909 -0.3980  0.1270 -0.0035
  736TIP3    H123623   2.766   2.925   5.826 -0.2637  2.6856 -0.1401
  736TIP3    H223624   2.636   2.884   5.893 -0.3340  0.5175 -1.5662
  737TIP3   OH223625   4.457   4.524  10.935 -0.0898 -0.6645  0.9939
  737TIP3    H123626   4.521   4.587  10.969  1.8996  0.3664 -4.1113
  737TIP3    H223627   4.385   4.578  10.904  0.3213 -1.0664 -0.7307
  738TIP3   OH223628   5.820   2.711  14.199  0.5465 -0.9767  0.4761
  738TIP3    H123629   5.805   2.795  14.156  0.7662 -1.2654 -0.1748
  738TIP3    H223630   5.896   2.726  14.255  0.3463 -0.6369  0.6579
  739TIP3   OH223631   0.741   3.443   0.031  0.4589 -0.0804 -0.0326
  739TIP3    H123632   0.814   3.406  -0.019 -0.4576  0.1388 -1.5833
  739TIP3    H223633   0.764   3.536   0.042  2.3298 -0.8221  3.0781
  740TIP3   OH223634   2.333   5.543  13.798 -0.5077 -0.5723  0.3289
  740TIP3    H123635   2.321   5.621  13.744  0.5842 -0.2466  0.5467
  740TIP3    H223636   2.395   5.489  13.749  0.1742 -0.4565  1.0613
  741TIP3   OH223637   3.528   0.179   0.377 -0.0739  0.3977 -0.1230
  741TIP3    H123638   3.440   0.198   0.343  0.6608  1.1462 -1.6765
  741TIP3    H223639   3.571   0.131   0.306  0.6842 -0.2459  0.7545
  742TIP3   OH223640   5.777   4.984  11.119 -0.3108 -1.4601 -0.7500
  742TIP3    H123641   5.713   5.017  11.181  0.1697 -1.1261 -0.4293
  742TIP3    H223642   5.747   5.015  11.034 -0.9997 -1.9642 -0.6932
  743TIP3   OH223643   1.688   6.771   3.449 -0.1288  0.1048  0.8191
  743TIP3    H123644   1.749   6.699   3.431 -0.1182  0.8436 -2.2931
  743TIP3    H223645   1.739   6.850   3.436 -1.2648  0.7167 -0.0325
  744TIP3   OH223646   5.878   3.015  15.278 -0.3116  0.2386  0.1393
  744TIP3    H123647   5.883   2.968  15.361  2.3890  0.1402 -0.0588
  744TIP3    H223648   5.926   3.096  15.292  1.1797 -0.2976 -1.6499
  745TIP3   OH223649   0.023   0.577   1.209 -0.2929 -0.2738 -0.2542
  745TIP3    H123650  -0.007   0.492   1.176 -1.5198  0.1794 -0.3438
  745TIP3    H223651   0.108   0.559   1.249  0.4730 -1.1363 -2.2240
  746TIP3   OH223652   5.208   2.941  14.831  0.1538 -0.9067 -0.2038
  746TIP3    H123653   5.115   2.926  14.813  0.3684 -1.2038 -1.1298
  746TIP3    H223654   5.218   2.924  14.924 -0.9541  0.3065  0.1491
  747TIP3   OH223655   1.533   5.174   5.984  0.1244  0.2095 -0.3184
  747TIP3    H123656   1.511   5.145   6.072 -0.1899 -1.2350 -0.8505
  747TIP3    H223657   1.452   5.209   5.949  0.1756  0.5131 -0.1287
  748TIP3   OH223658   1.009   2.752   1.826  0.1418  0.6804 -1.1821
  748TIP3    H123659   0.933   2.706   1.790  0.2242 -0.3003 -0.1172
  748TIP3    H223660   0.994   2.844   1.802 -2.7998  0.9573  1.3674
  749TIP3   OH223661   3.507   3.963   0.756  0.1357  0.6167 -0.4293
  749TIP3    H123662   3.539   3.926   0.674 -0.3525 -0.9185  0.0599
  749TIP3    H223663   3.552   4.047   0.763  0.3488  0.6659 -2.1502
  750TIP3   OH223664   6.129   6.110  17.230  0.1011  0.2920 -0.2345
  750TIP3    H123665   6.067   6.048  17.268 -0.5271  1.4721  0.7173
  750TIP3    H223666   6.213   6.066  17.234 -0.4842 -0.8736 -0.4635
  751TIP3   OH223667   4.080   2.709   3.669 -0.2424  0.5359 -0.3579
  751TIP3    H123668   4.049   2.798   3.684 -1.4436  0.0200  0.2624
  751TIP3    H223669   4.039   2.683   3.586 -0.7293  0.1878 -0.0096
  752TIP3   OH223670   2.046   4.435   5.594  0.0335 -0.3245  0.1567
  752TIP3    H123671   2.035   4.372   5.665 -1.6181  0.4213  0.5909
  752TIP3    H223672   1.986   4.507   5.616  1.4272  1.1223 -0.6465
  753TIP3   OH223673   3.640   6.506  16.843  0.5266  0.2848  0.1272
  753TIP3    H123674   3.545   6.510  16.843  0.5899  2.6953  0.6484
  753TIP3    H223675   3.664   6.469  16.928  0.0786  1.4935  0.7950
  754TIP3   OH223676   6.472   4.205   1.069 -0.3387 -0.0823 -0.2415
  754TIP3    H123677   6.549   4.158   1.102 -2.0622 -2.9472 -0.1413
  754TIP3    H223678   6.483   4.205   0.974 -1.1659 -2.2461 -0.3534
  755TIP3   OH223679   1.454   5.172  16.903 -0.0443  0.5479  0.1171
  755TIP3    H123680   1.500   5.130  16.976  1.2066  1.5605 -0.0595
  755TIP3    H223681   1.381   5.218  16.944  0.6866  1.1599  0.7514
  756TIP3   OH223682   3.699   5.237  15.792  0.2079  0.1259  0.3208
  756TIP3    H123683   3.603   5.232  15.788  0.1918  0.9719 -0.4625
  756TIP3    H223684   3.726   5.255  15.702  1.0561  0.6409  0.6751
  757TIP3   OH223685   6.148   5.346   5.167  0.1496 -0.2171  0.4800
  757TIP3    H123686   6.159   5.338   5.072  0.5124 -0.1363  0.5162
  757TIP3    H223687   6.219   5.294   5.204  1.4503  1.6729  0.7215
  758TIP3   OH223688   3.324   0.219   4.513  0.0346  0.1786  0.2328
  758TIP3    H123689   3.382   0.291   4.538 -1.2374  1.0185  0.8199
  758TIP3    H223690   3.335   0.153   4.581 -0.4726  0.7820  0.9018
  759TIP3   OH223691   6.334   5.736  16.002 -0.2575 -0.4263 -0.1384
  759TIP3    H123692   6.374   5.802  15.946  1.4333 -0.9445  0.4244
  759TIP3    H223693   6.253   5.776  16.032  2.2950  2.8404  2.9428
  760TIP3   OH223694   4.962   0.666   4.876 -0.6994  0.2363 -0.8250
  760TIP3    H123695   4.988   0.575   4.859 -1.9193 -0.3216  0.1549
  760TIP3    H223696   4.981   0.679   4.969  0.0770  1.1959 -1.1165
  761TIP3   OH223697   0.525   6.616  12.733  0.7466 -0.1220  0.1662
  761TIP3    H123698   0.431   6.626  12.748  0.8484 -0.0065  0.7360
  761TIP3    H223699   0.538   6.522  12.723  0.2775  0.0084 -1.9047
  762TIP3   OH223700   2.869   5.625   5.852  0.0376  0.1583 -0.3133
  762TIP3    H123701   2.948   5.611   5.905  0.5241  1.2986 -0.7118
  762TIP3    H223702   2.803   5.654   5.915  0.0952 -0.2592 -0.0597
  763TIP3   OH223703   0.242   0.272  15.351 -0.1262 -0.6844  0.2789
  763TIP3    H123704   0.337   0.278  15.363 -0.0014 -1.0450 -0.4957
  763TIP3    H223705   0.231   0.236  15.263 -0.9870  0.0609  0.0704
  764TIP3   OH223706   0.980   1.723   3.568 -0.5086  0.1168 -0.3537
  764TIP3    H123707   1.052   1.770   3.526  0.5355 -0.7203  0.4782
  764TIP3    H223708   0.997   1.732   3.662 -2.1778  0.9763 -0.1068
  765TIP3   OH223709   6.174   4.962   2.563 -0.1280  0.4365  0.4401
  765TIP3    H123710   6.145   4.988   2.475 -1.0680 -1.9904 -0.0048
  765TIP3    H223711   6.097   4.922   2.603  1.7246 -3.4377  0.3401
  766TIP3   OH223712   5.822   6.004   3.916 -1.0855  0.7535 -0.2831
  766TIP3    H123713   5.867   6.015   4.000  0.7425 -1.5788 -0.9017
  766TIP3    H223714   5.892   5.984   3.854 -2.6086  0.7043 -2.0085
  767TIP3   OH223715   0.599   1.051   5.465  0.1374 -0.4249  0.4548
  767TIP3    H123716   0.543   1.064   5.542 -1.8500 -1.6208 -0.7471
  767TIP3    H223717   0.625   1.139   5.440 -1.7637  0.2378  0.6622
  768TIP3   OH223718   5.922   5.333   4.363  0.5987 -0.6977  0.2293
  768TIP3    H123719   5.987   5.398   4.391  0.1718 -0.6714  1.1610
  768TIP3    H223720   5.915   5.346   4.269  1.0853  0.0946  0.2955
  769TIP3   OH223721   5.191   2.852   4.584 -0.7586 -0.8627 -0.4419
  769TIP3    H123722   5.189   2.947   4.597 -0.6253 -0.8282 -0.6728
  769TIP3    H223723   5.284   2.831   4.575 -0.7732 -1.0462 -0.1564
  770TIP3   OH223724   0.957   3.501   1.597  0.1615  0.0031  0.6242
  770TIP3    H123725   1.021   3.559   1.638  1.6127 -0.8337 -0.4244
  770TIP3    H223726   0.996   3.414   1.602 -0.3109 -0.3346 -1.1460
  771TIP3   OH223727   6.388   1.130  14.025 -0.0325 -0.0230  0.2397
  771TIP3    H123728   6.465   1.140  14.081 -0.2751 -1.7267  0.8927
  771TIP3    H223729   6.416   1.071  13.956 -1.0987 -1.6106  1.1475
  772TIP3   OH223730   0.514   6.678   2.425 -0.2423  0.3114 -0.0630
  772TIP3    H123731   0.486   6.587   2.434  0.2747  0.0924 -0.6337
  772TIP3    H223732   0.477   6.707   2.341  1.0045  0.0989 -0.6976
  773TIP3   OH223733   1.610   2.541   0.689 -0.2134  0.4063 -0.0864
  773TIP3    H123734   1.540   2.593   0.727 -0.1556  0.7831 -0.4973
  773TIP3    H223735   1.678   2.538   0.756 -1.1674 -1.0909  0.8461
  774TIP3   OH223736   2.967   1.536   5.822 -0.1986  0.4767 -0.1647
  774TIP3    H123737   3.010   1.494   5.747  0.5362 -0.4728  0.7752
  774TIP3    H223738   2.881   1.562   5.789  0.5456  1.0947 -1.6602
  775TIP3   OH223739   4.542   2.714  16.657 -0.3612 -0.0453  0.7559
  775TIP3    H123740   4.615   2.693  16.715  1.3103 -0.4482 -1.4453
  775TIP3    H223741   4.549   2.809  16.644  0.0577 -0.1515  0.1874
  776TIP3   OH223742   5.041   1.602   5.687 -0.1433 -0.3651 -0.0590
  776TIP3    H123743   4.954   1.584   5.654  0.3528 -0.2179 -1.4523
  776TIP3    H223744   5.032   1.596   5.783 -1.4410 -1.3502 -0.2316
  777TIP3   OH223745   0.878   0.429  14.786  0.6687  0.7843 -0.1231
  777TIP3    H123746   0.933   0.380  14.848 -2.6857 -0.0573  2.3700
  777TIP3    H223747   0.847   0.505  14.836 -2.3463 -0.0663 -0.5833
  778TIP3   OH223748   4.513   1.066  12.208 -0.1067  0.2010  0.0797
  778TIP3    H123749   4.427   1.062  12.250  0.3319 -1.3616  0.8820
  778TIP3    H223750   4.572   1.023  12.270  1.2902  1.3949 -0.3973
  779TIP3   OH223751   6.384   0.724  12.285  0.6685  0.0297 -0.1762
  779TIP3    H123752   6.423   0.744  12.370 -0.9404 -1.5604  0.9623
  779TIP3    H223753   6.351   0.635  12.294 -0.5474  0.2555 -2.1049
  780TIP3   OH223754   5.851   3.912   0.589 -0.0632 -0.6180 -0.3817
  780TIP3    H123755   5.812   3.959   0.515 -0.0577  0.3797  0.2405
  780TIP3    H223756   5.882   3.830   0.552  1.7749  0.7292 -1.9048
  781TIP3   OH223757   2.837   4.358   5.413 -0.5874  0.0344 -0.1947
  781TIP3    H123758   2.748   4.392   5.423 -0.2399  1.1764 -0.8386
  781TIP3    H223759   2.863   4.330   5.501 -1.8000 -0.8733 -0.1189
  782TIP3   OH223760   3.254   0.731   4.583  0.1071 -0.4302 -0.2146
  782TIP3    H123761   3.205   0.649   4.588 -2.4443  1.0650  0.0323
  782TIP3    H223762   3.251   0.755   4.490  1.5439 -1.0164 -0.4181
  783TIP3   OH223763   5.366   2.152   0.740  0.1964 -0.1227  0.4385
  783TIP3    H123764   5.386   2.096   0.815  0.6542  0.2803  0.6196
  783TIP3    H223765   5.444   2.206   0.729 -0.2920  0.5746  0.3482
  784TIP3   OH223766   2.687   1.127  12.631 -0.0772 -0.2935  0.6838
  784TIP3    H123767   2.636   1.082  12.698  0.2811 -0.3856  0.8960
  784TIP3    H223768   2.627   1.193  12.595 -0.3192 -0.3444  0.9885
  785TIP3   OH223769   1.015   2.225   4.282  0.4493 -0.2820  0.1332
  785TIP3    H123770   1.002   2.188   4.195 -0.1187 -0.0301  0.1084
  785TIP3    H223771   1.095   2.183   4.315  0.9194 -0.0432 -0.6851
  786TIP3   OH223772   3.941   1.944  15.930  0.3244  0.1655 -0.6591
  786TIP3    H123773   3.883   1.937  15.854 -0.7778  1.1712  0.0774
  786TIP3    H223774   3.981   2.030  15.921 -0.7922  0.8333  0.5668
  787TIP3   OH223775   2.559   0.593  11.293 -0.5506  0.5291 -0.1423
  787TIP3    H123776   2.466   0.578  11.313 -0.5780 -0.7755 -1.1460
  787TIP3    H223777   2.558   0.662  11.227 -0.9435 -0.7810 -1.5424
  788TIP3   OH223778   4.283   5.629   0.493  0.7002  0.5047  0.2224
  788TIP3    H123779   4.354   5.675   0.448  1.6949 -2.0334 -0.9147
  788TIP3    H223780   4.209   5.634   0.432  0.1102  2.4902  1.0748
  789TIP3   OH223781   1.071   4.576  11.173 -0.3639 -0.5153 -0.0422
  789TIP3    H123782   1.124   4.619  11.106 -1.5113 -0.2525 -0.7853
  789TIP3    H223783   1.135   4.532  11.229  0.7676  1.2540  0.1076
  790TIP3   OH223784   6.165   1.792   2.053 -0.0693 -0.3227  0.4084
  790TIP3    H123785   6.246   1.835   2.082 -0.4871  0.6012  0.2121
  790TIP3    H223786   6.183   1.766   1.963  1.1715 -3.0493  1.3634
  791TIP3   OH223787   1.760   3.815  16.461  0.4028  0.4082 -0.2909
  791TIP3    H123788   1.807   3.740  16.496 -2.1652 -0.5116  1.2970
  791TIP3    H223789   1.737   3.790  16.372  2.5397  0.7302 -0.9674
  792TIP3   OH223790   3.956   1.679  12.838  0.3148 -0.5621  0.0136
  792TIP3    H123791   3.970   1.718  12.924  0.0144  0.8822 -0.5824
  792TIP3    H223792   3.960   1.585  12.854  1.3542 -0.2943  1.4139
  793TIP3   OH223793   0.008   3.396  10.920 -0.0532  0.5508 -0.2211
  793TIP3    H123794   0.056   3.322  10.884 -0.4047  0.0619  0.3105
  793TIP3    H223795  -0.039   3.433  10.845  0.2865  0.3653 -0.5271
  794TIP3   OH223796   2.538   0.052   0.254  0.4803  0.6585  0.0954
  794TIP3    H123797   2.520  -0.035   0.289 -0.9638 -0.2196 -2.6845
  794TIP3    H223798   2.451   0.091   0.241  1.0980  2.3812  0.9495
  795TIP3   OH223799   1.864   1.490   1.009  0.4001 -0.4861  0.5227
  795TIP3    H123800   1.851   1.411   0.957 -0.7399  0.2082 -0.2648
  795TIP3    H223801   1.842   1.562   0.950  2.2365  0.4726  0.9752
  796TIP3   OH223802   0.705   0.916   2.536  0.3288  0.6242 -0.2319
  796TIP3    H123803   0.641   0.979   2.503 -0.5060 -0.3772 -0.5513
  796TIP3    H223804   0.696   0.921   2.631  0.1045  0.8282 -0.2636
  797TIP3   OH223805   5.375   3.211  11.237 -0.2071 -0.2046  0.0244
  797TIP3    H123806   5.329   3.271  11.179 -1.3152  0.9841  2.0348
  797TIP3    H223807   5.458   3.193  11.194 -0.8881  0.8475 -1.7678
  798TIP3   OH223808   5.010   4.804  13.331  0.4359 -0.1542 -0.5423
  798TIP3    H123809   4.953   4.849  13.269  0.2671  3.7414  2.2385
  798TIP3    H223810   4.950   4.758  13.390  0.4704 -1.3666 -1.4432
  799TIP3   OH223811   6.678   6.082   4.702 -0.3603 -0.3314  0.1868
  799TIP3    H123812   6.659   5.997   4.743  0.3680 -0.3328  0.5374
  799TIP3    H223813   6.711   6.136   4.773  0.0848 -0.0558 -0.2270
  800TIP3   OH223814   2.524   1.426   6.101  0.0548  0.0168 -0.3462
  800TIP3    H123815   2.461   1.498   6.104  0.2307  0.1559 -0.0122
  800TIP3    H223816   2.610   1.469   6.099  0.1691 -0.1877  0.1877
  801TIP3   OH223817   5.608   4.859  10.383  0.3185 -0.7549  0.5229
  801TIP3    H123818   5.637   4.829  10.297  0.5488 -0.3054  0.4416
  801TIP3    H223819   5.560   4.785  10.419 -0.4551 -0.6693 -0.3209
  802TIP3   OH223820   0.015   0.651  13.016  0.1541  0.8607 -0.2332
  802TIP3    H123821   0.004   0.625  13.107  0.9176 -0.1618 -0.4300
  802TIP3    H223822  -0.043   0.728  13.006 -1.3491 -0.1307  0.6045
  803TIP3   OH223823   2.827   3.722  13.491  0.2818 -0.3347 -0.2575
  803TIP3    H123824   2.791   3.807  13.517  1.9803  0.2707  0.1834
  803TIP3    H223825   2.751   3.666  13.481 -0.7268  0.6810  1.4962
  804TIP3   OH223826   4.179   3.503   3.582 -0.4985 -0.0769 -0.3024
  804TIP3    H123827   4.188   3.428   3.524  1.1388 -1.1480  1.2807
  804TIP3    H223828   4.085   3.518   3.588 -0.8872 -2.4180 -0.1205
  805TIP3   OH223829   5.823   4.590   5.337 -0.0789  0.5858  0.3859
  805TIP3    H123830   5.738   4.550   5.357  0.9242 -2.0578 -0.4266
  805TIP3    H223831   5.879   4.565   5.411  0.2575  1.5507  0.4688
  806TIP3   OH223832   5.130   3.712  15.515 -0.1915  0.0252  0.2826
  806TIP3    H123833   5.048   3.693  15.470 -0.6641  0.7990  0.8103
  806TIP3    H223834   5.154   3.800  15.484 -0.6785  0.6951  1.7618
  807TIP3   OH223835   1.306   0.783   2.783  0.2215  0.0541  0.7751
  807TIP3    H123836   1.401   0.787   2.776  0.0515  3.4681 -0.4052
  807TIP3    H223837   1.290   0.741   2.868  2.7613 -0.4220  1.0569
  808TIP3   OH223838   5.294   1.373  10.889  0.4788  0.1353  0.0361
  808TIP3    H123839   5.228   1.312  10.924  0.6477 -0.6703 -1.0165
  808TIP3    H223840   5.247   1.455  10.878 -0.2128 -0.2761 -0.1630
  809TIP3   OH223841   1.137   2.175  13.771 -0.6782  0.0732 -0.3625
  809TIP3    H123842   1.127   2.242  13.703 -1.7029 -1.3178 -1.6032
  809TIP3    H223843   1.051   2.170  13.812 -0.3425  0.1696  0.3609
  810TIP3   OH223844   6.154   0.701   2.219 -0.0394 -1.0172 -0.2749
  810TIP3    H123845   6.082   0.761   2.199  2.0157  1.1088 -1.4257
  810TIP3    H223846   6.142   0.627   2.159 -0.8574 -0.3602 -0.9148
  811TIP3   OH223847   5.034   3.759  17.219  0.2078 -0.7403  0.3598
  811TIP3    H123848   4.995   3.677  17.189  1.7062 -1.9627  1.5968
  811TIP3    H223849   5.049   3.745  17.312  2.6950 -0.0040  0.1134
  812TIP3   OH223850   2.995   2.123   3.947 -0.0627  0.6645  0.3882
  812TIP3    H123851   3.041   2.040   3.945  0.7310  0.9827  3.0957
  812TIP3    H223852   3.039   2.178   3.882  0.1238 -0.6414 -0.5974
  813TIP3   OH223853   3.383   6.182   6.367 -0.0141  0.1000  0.4888
  813TIP3    H123854   3.367   6.262   6.418 -0.7629 -0.4602  1.1384
  813TIP3    H223855   3.302   6.132   6.375  1.0835 -1.5247  1.5519
  814TIP3   OH223856   5.845   1.369  14.725 -0.1274  0.8328 -0.4799
  814TIP3    H123857   5.922   1.313  14.723 -0.9830 -0.3314 -2.8519
  814TIP3    H223858   5.873   1.448  14.771  2.0529 -0.1641 -0.0719
  815TIP3   OH223859   5.270   0.259  13.606 -0.1992 -0.2558 -0.4608
  815TIP3    H123860   5.257   0.188  13.669  1.1782 -0.5654 -0.4898
  815TIP3    H223861   5.184   0.273  13.567 -0.4810 -1.9771 -0.5154
  816TIP3   OH223862   3.046   2.793  12.380  0.5359  0.4421 -0.7218
  816TIP3    H123863   3.037   2.857  12.452  0.8922  0.9770 -1.1470
  816TIP3    H223864   2.956   2.767  12.360  0.5430 -1.3440  1.3610
  817TIP3   OH223865   1.642   0.946   2.319 -0.5928 -0.1836  0.2807
  817TIP3    H123866   1.642   0.935   2.224  2.5506  0.2739  0.1753
  817TIP3    H223867   1.572   1.008   2.336  0.7751  2.0834 -2.0670
  818TIP3   OH223868   0.090   6.192  12.086  0.1642  0.0661 -0.3002
  818TIP3    H123869   0.161   6.255  12.093  0.2953 -0.0919 -0.1983
  818TIP3    H223870   0.111   6.141  12.007  0.7701 -0.7294  0.3630
  819TIP3   OH223871   0.855   6.784  14.514 -0.7528  0.9157  0.3461
  819TIP3    H123872   0.879   6.847  14.446 -1.8736  0.9438 -0.0396
  819TIP3    H223873   0.827   6.838  14.588 -1.1993  0.8755  0.2064
  820TIP3   OH223874   3.674   6.597   0.815  0.5138  0.6540  0.3224
  820TIP3    H123875   3.674   6.660   0.744  0.1231 -0.0638 -0.3153
  820TIP3    H223876   3.694   6.649   0.893 -3.3588  2.2266  0.3843
  821TIP3   OH223877   1.085   5.254  14.608 -0.0266 -0.1199 -0.5092
  821TIP3    H123878   1.016   5.243  14.543 -0.8930  1.7581  0.0350
  821TIP3    H223879   1.041   5.244  14.692  0.9631 -1.9225 -0.1837
  822TIP3   OH223880   4.875   4.385  16.181  0.4623  0.3457 -0.0648
  822TIP3    H123881   4.932   4.447  16.137  1.4735 -1.0271 -0.7016
  822TIP3    H223882   4.885   4.303  16.132 -0.9703 -0.2859  0.6666
  823TIP3   OH223883   2.697   5.656  15.346  0.0488 -0.5618 -0.1233
  823TIP3    H123884   2.791   5.668  15.333 -0.2019  1.4505 -0.2662
  823TIP3    H223885   2.681   5.682  15.437 -0.5344  0.1093 -0.4137
  824TIP3   OH223886   3.199   4.505  15.217  0.6583  0.6333 -0.2516
  824TIP3    H123887   3.179   4.460  15.299 -0.5092  2.1951  0.3459
  824TIP3    H223888   3.124   4.487  15.161  0.4496  1.3668 -0.2085
  825TIP3   OH223889   6.606   0.103  12.988 -0.2500  0.4769 -0.2979
  825TIP3    H123890   6.687   0.135  12.949  0.6300  0.6109  1.5934
  825TIP3    H223891   6.550   0.084  12.913  1.0638  1.5661 -1.6026
  826TIP3   OH223892   3.179   5.724   0.911  0.1663  0.0806  0.2723
  826TIP3    H123893   3.220   5.750   0.828 -3.1044 -1.2594 -1.8687
  826TIP3    H223894   3.110   5.789   0.925 -0.6443 -0.8956  0.8342
  827TIP3   OH223895   6.764   0.344   4.859 -0.0317  0.5001 -0.6686
  827TIP3    H123896   6.789   0.433   4.832 -0.9219  1.4383  1.4313
  827TIP3    H223897   6.725   0.356   4.946 -0.6548 -1.8957 -0.5846
  828TIP3   OH223898   4.720   3.841  17.171  0.7990  0.1505  0.4517
  828TIP3    H123899   4.697   3.785  17.246  1.9854  0.1241  0.8087
  828TIP3    H223900   4.767   3.914  17.210 -0.2059  1.1015 -0.0853
  829TIP3   OH223901   1.673   5.581   5.465  0.8554 -0.1342 -0.1278
  829TIP3    H123902   1.578   5.586   5.460  0.9363 -0.3615 -2.4970
  829TIP3    H223903   1.692   5.490   5.484  0.6297 -0.5107 -1.6264
  830TIP3   OH223904   0.474   3.914  15.426 -0.4567  0.1882  0.6331
  830TIP3    H123905   0.395   3.898  15.477 -1.5699  3.4215  0.0728
  830TIP3    H223906   0.462   3.863  15.346 -1.2172 -0.6083  1.2483
  831TIP3   OH223907   1.706   4.187   1.490 -0.0207 -0.3068 -0.0531
  831TIP3    H123908   1.672   4.274   1.472 -0.0839 -0.1629  0.7550
  831TIP3    H223909   1.792   4.202   1.528 -0.4883 -0.5477  1.1343
  832TIP3   OH223910   2.308   6.764   1.512  0.0806  0.6583 -0.6917
  832TIP3    H123911   2.354   6.816   1.577  0.0657 -1.4320  1.0575
  832TIP3    H223912   2.233   6.727   1.559 -1.3221  1.0579 -2.5508
  833TIP3   OH223913   2.996   5.893  11.923 -0.7507 -0.1512 -0.0968
  833TIP3    H123914   2.905   5.864  11.925  0.2551 -3.6196 -0.3506
  833TIP3    H223915   3.020   5.890  11.831 -0.6760  1.8549 -0.1578
  834TIP3   OH223916   0.498   5.583   3.480  0.4207  0.6727  0.4271
  834TIP3    H123917   0.464   5.519   3.543 -0.9352  0.8132 -0.1539
  834TIP3    H223918   0.578   5.544   3.446  0.0919 -0.2983  0.7672
  835TIP3   OH223919   0.397   0.736  12.657  0.3075  0.3691 -0.6034
  835TIP3    H123920   0.424   0.686  12.581 -0.6622 -1.1656  0.0386
  835TIP3    H223921   0.342   0.676  12.707 -1.0615  2.1499  0.0739
  836TIP3   OH223922   6.418   3.487  13.949  0.7609 -0.8341 -0.4253
  836TIP3    H123923   6.450   3.398  13.933  0.3873 -1.0092 -0.2069
  836TIP3    H223924   6.476   3.522  14.017 -1.6927 -2.4251  2.6153
  837TIP3   OH223925   0.360   6.743   0.167 -0.1899 -0.5657  0.5480
  837TIP3    H123926   0.292   6.719   0.230 -0.7852  0.4773  0.3153
  837TIP3    H223927   0.370   6.665   0.112 -1.3077 -0.6856  0.4950
  838TIP3   OH223928   1.303   4.861  12.364 -0.6190  0.4269  0.3081
  838TIP3    H123929   1.224   4.858  12.311 -0.5203 -0.3363  0.2071
  838TIP3    H223930   1.356   4.929  12.322 -0.3641 -0.4487 -0.8329
  839TIP3   OH223931   2.125   6.378   2.523 -0.1121  0.1660 -1.1053
  839TIP3    H123932   2.071   6.326   2.462  0.7803 -1.1050 -0.8414
  839TIP3    H223933   2.189   6.422   2.466  0.4551 -0.6907 -1.1498
  840TIP3   OH223934   0.989   6.541  14.463  0.2267 -0.4268  0.6270
  840TIP3    H123935   0.935   6.556  14.540  0.8022  0.9269  0.7744
  840TIP3    H223936   1.029   6.455  14.478  1.2003  0.3122  2.3542
  841TIP3   OH223937   3.342   1.121  11.222  0.1481 -0.0032 -0.1125
  841TIP3    H123938   3.384   1.053  11.276  2.6122  1.8839  0.4678
  841TIP3    H223939   3.410   1.188  11.211 -2.2045  2.3877 -0.6575
  842TIP3   OH223940   3.416   3.799  12.484 -0.4881 -0.5768 -0.6740
  842TIP3    H123941   3.360   3.721  12.481 -1.3932  0.0677 -0.7240
  842TIP3    H223942   3.356   3.870  12.508  0.1350  0.2766 -1.6137
  843TIP3   OH223943   0.778   1.885  16.718  0.4468 -0.2554  0.3246
  843TIP3    H123944   0.733   1.808  16.754 -0.7024  0.3030  0.1048
  843TIP3    H223945   0.747   1.958  16.771 -0.6414  0.4535 -1.2245
  844TIP3   OH223946   6.706   6.708   2.770 -0.8270  0.0216 -0.3617
  844TIP3    H123947   6.675   6.657   2.695 -0.9808 -1.1859  0.5152
  844TIP3    H223948   6.630   6.715   2.828 -0.8777  1.4665 -0.5701
  845TIP3   OH223949   5.283   3.889  11.102 -0.8720 -0.3323 -0.2943
  845TIP3    H123950   5.233   3.840  11.168 -2.6953 -1.0520 -2.1745
  845TIP3    H223951   5.280   3.835  11.024 -2.0167  2.2427 -2.1122
  846TIP3   OH223952   5.894   5.039   6.003 -1.2668 -0.0435  0.2035
  846TIP3    H123953   5.861   4.987   6.077 -3.1959  1.1785  0.2505
  846TIP3    H223954   5.830   5.026   5.934 -1.1421  1.2990 -0.1835
  847TIP3   OH223955   0.938   4.920   1.759 -0.1770  0.1516 -0.4126
  847TIP3    H123956   0.961   4.954   1.672  0.0466  0.6884 -0.1466
  847TIP3    H223957   0.849   4.887   1.749  0.1015 -0.4157 -1.0246
  848TIP3   OH223958   1.325   4.498   3.389  0.2072 -0.0198  0.3994
  848TIP3    H123959   1.244   4.477   3.344  0.9352 -1.9385 -0.0789
  848TIP3    H223960   1.304   4.487   3.482 -1.1104  3.2938  0.5539
  849TIP3   OH223961   1.458   4.772   2.496 -0.1694  0.1729 -0.1375
  849TIP3    H123962   1.467   4.737   2.584 -1.3001 -1.6914 -0.7300
  849TIP3    H223963   1.364   4.780   2.482  0.0322  2.1834 -0.5439
  850TIP3   OH223964   5.809   3.473  10.591  0.4863 -0.5745  0.2901
  850TIP3    H123965   5.813   3.387  10.549 -0.6469  0.6259 -2.3706
  850TIP3    H223966   5.893   3.514  10.569  0.3230 -0.3461  0.0911
  851TIP3   OH223967   5.050   6.212  11.946 -0.4533 -0.5570 -0.4728
  851TIP3    H123968   5.050   6.136  12.004  2.1177 -0.3584 -0.1670
  851TIP3    H223969   5.133   6.256  11.963 -0.3305  0.3802 -3.1636
  852TIP3   OH223970   1.756   2.528   4.510  0.0128  0.5951 -0.0651
  852TIP3    H123971   1.678   2.583   4.497 -1.7713 -1.6743  0.6815
  852TIP3    H223972   1.803   2.533   4.427 -1.3771  1.3227 -0.8298
  853TIP3   OH223973   2.694   5.966   0.266  0.0674 -0.4752  0.2443
  853TIP3    H123974   2.608   5.968   0.222  0.0419 -1.5171  0.2433
  853TIP3    H223975   2.736   5.887   0.233  1.1779  0.2095 -0.0137
  854TIP3   OH223976   0.723   0.290   6.553  0.8958 -0.2607 -0.2181
  854TIP3    H123977   0.698   0.247   6.471  1.1204 -0.6478 -0.0863
  854TIP3    H223978   0.730   0.218   6.616  1.4655 -0.0565 -0.0423
  855TIP3   OH223979   1.089   4.010  13.410  0.1802 -0.3980  0.0992
  855TIP3    H123980   1.090   4.105  13.426 -1.0551 -0.4782  0.7009
  855TIP3    H223981   1.030   3.999  13.335 -0.2238 -0.7551  0.4696
  856TIP3   OH223982   1.923   5.449  15.875  0.1031  0.3908  0.2094
  856TIP3    H123983   1.941   5.450  15.970 -0.6803  0.9477  0.3581
  856TIP3    H223984   1.924   5.357  15.851  2.0329  0.3332  0.4314
  857TIP3   OH223985   3.330   5.259  14.543  0.4075 -0.5107 -0.5897
  857TIP3    H123986   3.260   5.238  14.481  0.3158  0.9469 -1.0072
  857TIP3    H223987   3.284   5.275  14.625  0.4590 -1.6786 -0.3235
  858TIP3   OH223988   2.181   5.164  12.582 -0.0294 -0.3186  0.1369
  858TIP3    H123989   2.261   5.218  12.583  0.6847 -1.3784  1.2527
  858TIP3    H223990   2.115   5.221  12.542  1.1761  0.7233 -0.4298
  859TIP3   OH223991   0.120   0.168   4.244 -0.1091  0.1653  0.3750
  859TIP3    H123992   0.198   0.171   4.189  0.2931 -1.2211  0.8581
  859TIP3    H223993   0.061   0.233   4.205  0.4840 -0.2257 -1.2241
  860TIP3   OH223994   6.048   1.033  16.278 -0.0709  0.2251  0.3888
  860TIP3    H123995   5.987   1.079  16.336  1.3048  1.1395  1.1314
  860TIP3    H223996   6.066   0.951  16.323  0.1387  0.4535  0.7185
  861TIP3   OH223997   1.326   1.322   5.834  0.1780  0.1365  0.3471
  861TIP3    H123998   1.269   1.250   5.808  1.6861 -0.7984 -0.3973
  861TIP3    H223999   1.309   1.333   5.927 -0.1200 -1.1302  0.4525
  862TIP3   OH224000   5.430   2.043   4.516 -0.0734 -0.2368 -0.1701
  862TIP3    H124001   5.509   1.990   4.521  1.9972  2.7961  0.1128
  862TIP3    H224002   5.434   2.086   4.431 -1.0754  0.4420  0.1060
  863TIP3   OH224003   1.664   0.104   2.082 -0.9598  0.0297  0.5814
  863TIP3    H124004   1.597   0.149   2.030  0.5784  1.0968 -0.5230
  863TIP3    H224005   1.683   0.165   2.153  0.7595  0.9487 -0.6293
  864TIP3   OH224006   6.457   2.602   4.994 -0.4629 -0.0510  0.1167
  864TIP3    H124007   6.479   2.543   5.066 -0.7735  2.2547  2.1587
  864TIP3    H224008   6.541   2.637   4.966 -0.3829 -0.6127 -0.3453
  865TIP3   OH224009   0.341   4.379  14.201 -0.1382 -0.1064  0.5881
  865TIP3    H124010   0.324   4.469  14.229 -1.6059 -0.1839 -0.0046
  865TIP3    H224011   0.254   4.341  14.189  0.4488 -0.7165 -2.0655
  866TIP3   OH224012   5.147   0.099   3.179 -0.8712 -0.0212 -0.3797
  866TIP3    H124013   5.077   0.164   3.167  1.2050  2.1062 -1.2439
  866TIP3    H224014   5.163   0.099   3.273 -0.4214  1.2360 -0.4462
  867TIP3   OH224015   3.502   2.514   4.161  0.4247 -0.4277  0.0374
  867TIP3    H124016   3.433   2.560   4.114 -1.4006 -2.2024  0.8974
  867TIP3    H224017   3.551   2.468   4.093  0.6409  0.6617 -0.5563
  868TIP3   OH224018   0.728   1.620   2.551  0.1756 -0.3468 -0.1739
  868TIP3    H124019   0.691   1.592   2.635  0.5381 -1.0026 -0.2210
  868TIP3    H224020   0.663   1.679   2.513 -0.8065 -1.4696 -0.2581
  869TIP3   OH224021   5.426   3.396   1.874  0.1159  0.2224 -0.5234
  869TIP3    H124022   5.423   3.347   1.792 -2.1524 -0.2642 -0.1862
  869TIP3    H224023   5.385   3.480   1.853 -0.5347  0.0671  0.1115
  870TIP3   OH224024   4.276   3.380  14.754 -0.3417  0.8694 -0.1306
  870TIP3    H124025   4.229   3.387  14.837 -1.1173 -0.7974 -0.4036
  870TIP3    H224026   4.306   3.289  14.752  0.7568  1.2398 -1.1136
  871TIP3   OH224027   6.065   1.749  14.134 -0.3566 -0.6554 -0.2956
  871TIP3    H124028   5.972   1.726  14.136 -0.8176  1.1631  1.3411
  871TIP3    H224029   6.079   1.799  14.215  2.2708 -1.7309 -0.0364
  872TIP3   OH224030   0.626   4.471   0.668 -0.3422  0.0274  0.4729
  872TIP3    H124031   0.678   4.433   0.596 -0.6595  0.3527  0.0686
  872TIP3    H224032   0.540   4.486   0.629 -1.5764 -2.9705  1.8839
  873TIP3   OH224033   3.266   2.215   5.065  0.4847  0.0025 -0.0707
  873TIP3    H124034   3.273   2.243   4.974  0.0068 -0.1364 -0.1494
  873TIP3    H224035   3.174   2.226   5.087  0.8691  1.4532  0.8588
  874TIP3   OH224036   2.276   6.009  12.904 -0.3472 -0.7306 -0.2857
  874TIP3    H124037   2.232   6.015  12.989  0.6617  1.9938  0.0937
  874TIP3    H224038   2.205   6.013  12.840 -0.8044  3.1395  0.3206
  875TIP3   OH224039   4.838   0.893  16.525  0.0698 -0.3975  0.0147
  875TIP3    H124040   4.826   0.826  16.458  1.6601 -0.9627  0.2732
  875TIP3    H224041   4.810   0.974  16.483 -0.1176 -0.9323 -0.9166
  876TIP3   OH224042   5.731   2.645  15.627  0.7426  0.1959  0.0865
  876TIP3    H124043   5.660   2.602  15.580 -1.2637  4.0974 -0.6607
  876TIP3    H224044   5.702   2.648  15.718  0.0665  1.4714 -0.1593
  877TIP3   OH224045   1.602   2.568  14.690 -0.2820 -0.2196 -0.0105
  877TIP3    H124046   1.575   2.481  14.718 -0.5440 -0.3476 -0.6366
  877TIP3    H224047   1.623   2.557  14.597 -0.1659  0.3479 -0.0504
  878TIP3   OH224048   1.697   1.524  14.978  0.2500 -0.3907  0.3562
  878TIP3    H124049   1.781   1.555  14.944  0.5815 -0.7893  0.8103
  878TIP3    H224050   1.631   1.562  14.919  0.7043  0.4946  0.4166
  879TIP3   OH224051   1.762   1.627   4.507  0.6175 -0.1821  0.2016
  879TIP3    H124052   1.800   1.577   4.579  1.5308  1.9041  1.2165
  879TIP3    H224053   1.671   1.643   4.534 -0.4898 -3.4738 -1.3277
  880TIP3   OH224054   1.973   0.406   4.960 -0.3666 -0.3588  0.0209
  880TIP3    H124055   1.979   0.430   5.053  0.0983 -0.6162  0.0576
  880TIP3    H224056   2.061   0.420   4.926  0.0935 -2.6260  0.1937
  881TIP3   OH224057   0.898   5.479   1.072  0.6739  0.1201  0.1680
  881TIP3    H124058   0.826   5.427   1.036  0.5703  0.1328  0.3507
  881TIP3    H224059   0.951   5.504   0.997  1.0527 -0.7507  0.1402
  882TIP3   OH224060   6.471   5.413   4.929 -0.2718  0.0208 -0.1426
  882TIP3    H124061   6.477   5.325   4.894  3.4850 -0.3413  1.2339
  882TIP3    H224062   6.455   5.401   5.023  2.9373  0.6391  0.5652
  883TIP3   OH224063   3.475   1.780  14.479  0.1457 -0.5131  0.0828
  883TIP3    H124064   3.425   1.769  14.560 -0.3517 -1.5528 -0.3658
  883TIP3    H224065   3.520   1.697  14.468  0.8615 -0.0821 -0.2827
  884TIP3   OH224066   5.469   0.056   3.279  0.2980  0.0455  0.0219
  884TIP3    H124067   5.460   0.128   3.341 -0.9812 -1.6189  1.8150
  884TIP3    H224068   5.456   0.096   3.193 -1.2943  1.7901  1.0496
  885TIP3   OH224069   5.693   5.270   1.839 -0.5028 -0.2406 -0.7302
  885TIP3    H124070   5.671   5.357   1.806 -0.6104 -0.0746 -0.2323
  885TIP3    H224071   5.786   5.275   1.860 -0.9391  0.3851  1.1816
  886TIP3   OH224072   3.396   1.874  16.904  0.3100 -0.5542  0.4986
  886TIP3    H124073   3.461   1.814  16.940  1.0140  0.8796  1.6502
  886TIP3    H224074   3.447   1.939  16.856 -0.4389 -0.7528 -0.5989
  887TIP3   OH224075   0.596   0.968   4.149  0.3197  0.0383  0.4670
  887TIP3    H124076   0.655   0.981   4.223  0.0303  1.3622  0.4900
  887TIP3    H224077   0.535   1.042   4.154 -0.3473 -0.4392 -0.4810
  888TIP3   OH224078   5.733   0.926   0.691 -0.8603 -0.1864 -0.1684
  888TIP3    H124079   5.691   0.962   0.769  0.4855 -0.6949  0.8087
  888TIP3    H224080   5.799   0.991   0.667 -1.3493  0.0240 -0.9570
  889TIP3   OH224081   2.867   6.399  12.769  0.3805  1.5041  0.0722
  889TIP3    H124082   2.876   6.304  12.759  0.8979  1.6431 -0.8503
  889TIP3    H224083   2.855   6.431  12.680  1.8350  2.4750  0.2111
  890TIP3   OH224084   5.213   0.011   6.775  0.2628  0.0590  0.1562
  890TIP3    H124085   5.166   0.092   6.798  2.3772  1.2437  0.4831
  890TIP3    H224086   5.290   0.013   6.831  1.2328 -1.3038 -1.1271
  891TIP3   OH224087   5.344   6.549  12.886  0.3465 -0.2556  0.0311
  891TIP3    H124088   5.390   6.597  12.954  1.5393 -0.4822 -0.6093
  891TIP3    H224089   5.292   6.485  12.933 -0.3717  0.8902  0.8338
  892TIP3   OH224090   6.197   0.847  15.642 -0.2353  0.2140 -0.0208
  892TIP3    H124091   6.136   0.911  15.604 -1.0589 -0.7384 -0.2995
  892TIP3    H224092   6.212   0.784  15.572 -0.9092 -0.9587  0.8955
  893TIP3   OH224093   6.550   5.869  11.652  0.6662  0.3358 -0.6936
  893TIP3    H124094   6.513   5.917  11.726 -1.0944 -0.6043 -0.9297
  893TIP3    H224095   6.605   5.802  11.692  4.5385  3.5039 -0.3818
  894TIP3   OH224096   0.916   6.590   6.827  0.1357 -0.0451  0.0142
  894TIP3    H124097   0.889   6.537   6.903 -0.5631 -1.3027 -1.0959
  894TIP3    H224098   0.850   6.571   6.760 -0.1440  2.2666 -0.4046
  895TIP3   OH224099   5.252   3.847  14.097 -0.3820  0.0591 -0.4731
  895TIP3    H124100   5.227   3.863  14.188  1.4186 -2.5712  0.5630
  895TIP3    H224101   5.343   3.878  14.091 -1.1151  2.0097 -1.9392
  896TIP3   OH224102   1.465   0.715  16.706  0.1604  0.3414 -0.3723
  896TIP3    H124103   1.497   0.694  16.794 -0.2703  0.3281 -0.2188
  896TIP3    H224104   1.516   0.658  16.648  1.1045  1.0122 -0.2206
  897TIP3   OH224105   5.509   1.163  12.841 -0.2173 -0.4548  0.2746
  897TIP3    H124106   5.442   1.211  12.794 -1.3068 -0.1198  2.1084
  897TIP3    H224107   5.589   1.177  12.791 -1.7411 -1.9860 -2.7018
  898TIP3   OH224108   4.979   2.571   5.845  0.5892 -0.1969  0.0757
  898TIP3    H124109   4.907   2.535   5.897  0.4373 -2.8797 -1.9526
  898TIP3    H224110   4.936   2.615   5.772  0.9183  1.2198  0.7081
  899TIP3   OH224111   3.541   0.078  16.519  0.3771 -0.5111  0.2132
  899TIP3    H124112   3.572   0.162  16.485 -0.4862 -0.8302 -1.3810
  899TIP3    H224113   3.616   0.041  16.565  0.9044  0.9143  0.5248
  900TIP3   OH224114   1.032   3.923   2.297  0.3040  0.2724  0.4222
  900TIP3    H124115   0.956   3.954   2.345 -0.2094 -0.0681 -0.1742
  900TIP3    H224116   1.002   3.914   2.206  0.6551 -1.2332  0.4413
  901TIP3   OH224117   0.885   0.382  13.052 -0.7427  0.3354  0.1654
  901TIP3    H124118   0.821   0.415  12.990  0.2052 -0.7450 -1.4168
  901TIP3    H224119   0.970   0.411  13.017 -0.0915 -1.5260  0.1422
  902TIP3   OH224120   4.550   3.167   1.101 -0.1641 -0.3900 -0.6683
  902TIP3    H124121   4.499   3.097   1.059 -0.9843 -0.2721  0.1200
  902TIP3    H224122   4.640   3.133   1.103 -0.5192 -1.3420 -0.4653
  903TIP3   OH224123   2.122   5.943  16.371  0.4857 -0.4403 -0.1860
  903TIP3    H124124   2.114   5.983  16.457 -1.4404 -0.3751 -0.3678
  903TIP3    H224125   2.151   6.015  16.314 -0.9161  0.2117 -0.1057
  904TIP3   OH224126   5.733   5.755  14.244 -0.0380  0.4677  0.5010
  904TIP3    H124127   5.781   5.673  14.255  2.5944  1.9570  0.5870
  904TIP3    H224128   5.702   5.776  14.332  1.4545  0.7963  0.9772
  905TIP3   OH224129   2.698   4.127  12.774 -0.0147  0.4253  0.1595
  905TIP3    H124130   2.671   4.167  12.857 -0.4687  0.5517 -0.0450
  905TIP3    H224131   2.633   4.159  12.711 -0.9367 -1.3815  0.1673
  906TIP3   OH224132   6.356   3.720  13.025 -0.4712 -0.0622 -0.2402
  906TIP3    H124133   6.401   3.642  13.058 -1.0653 -0.4250 -0.2866
  906TIP3    H224134   6.276   3.686  12.985 -1.5387  0.7332  1.2023
  907TIP3   OH224135   5.298   1.246  13.982 -0.1380 -0.7829  0.8992
  907TIP3    H124136   5.215   1.205  14.007  0.0170 -0.5496  1.7898
  907TIP3    H224137   5.363   1.209  14.042 -0.1559  1.4832  2.3431
  908TIP3   OH224138   4.301   0.250  11.109  0.0520  0.5000  0.1949
  908TIP3    H124139   4.389   0.237  11.073 -0.6408 -1.9863 -0.6998
  908TIP3    H224140   4.289   0.177  11.169 -1.4789  0.7247  0.1772
  909TIP3   OH224141   0.791   2.902   4.423  0.1377 -0.3971 -0.0835
  909TIP3    H124142   0.795   2.912   4.518  1.4450  0.0306 -0.1658
  909TIP3    H224143   0.705   2.864   4.406 -0.4899  0.4133  1.1899
  910TIP3   OH224144   0.288   2.156   5.163 -0.0381  0.2920 -0.3492
  910TIP3    H124145   0.333   2.110   5.092 -0.6422 -0.3668 -0.3003
  910TIP3    H224146   0.324   2.245   5.160  1.5337 -0.3162 -0.0991
  911TIP3   OH224147   2.358   3.420   5.821  0.1259 -0.8474 -0.2176
  911TIP3    H124148   2.361   3.479   5.746 -0.0924 -1.5091 -0.7601
  911TIP3    H224149   2.397   3.469   5.893  2.7308 -1.1142 -1.4008
  912TIP3   OH224150   3.044   3.167   3.630 -0.8163 -0.2527  0.1036
  912TIP3    H124151   3.019   3.255   3.602  0.9462  0.7375  1.4797
  912TIP3    H224152   2.964   3.115   3.621 -1.5414  1.1556 -2.0078
  913TIP3   OH224153   4.266   5.021   5.975 -0.1678  0.1693 -0.1912
  913TIP3    H124154   4.212   5.076   6.033  0.9816  1.7686 -0.6022
  913TIP3    H224155   4.311   4.961   6.035 -0.1802  0.7748  0.4370
  914TIP3   OH224156   3.594   4.708   5.350  0.1793 -0.6874  0.3732
  914TIP3    H124157   3.660   4.716   5.282  0.0954 -0.2631  0.3378
  914TIP3    H224158   3.588   4.614   5.368  0.2927 -0.7848 -0.1098
  915TIP3   OH224159   5.441   5.486  11.926  0.0472 -0.2123  0.0331
  915TIP3    H124160   5.391   5.553  11.879  1.1074  0.2891 -0.3877
  915TIP3    H224161   5.509   5.458  11.864  0.4659 -0.6847  0.6962
  916TIP3   OH224162   0.583   0.662   0.570 -0.3969 -0.4594  0.4176
  916TIP3    H124163   0.551   0.614   0.494 -2.3805  1.2996  0.0733
  916TIP3    H224164   0.589   0.596   0.640 -2.0913 -1.3999 -0.3036
  917TIP3   OH224165   5.251   6.421  15.991  0.1175  0.5365 -0.1587
  917TIP3    H124166   5.208   6.336  16.000 -1.1075  1.0428 -1.1256
  917TIP3    H224167   5.249   6.439  15.897  0.0713  1.7737  0.0691
  918TIP3   OH224168   1.533   5.707  14.488 -0.0965  0.0779 -0.2839
  918TIP3    H124169   1.500   5.617  14.492  2.3464 -0.9546 -2.0073
  918TIP3    H224170   1.572   5.714  14.401 -0.1376  2.7909 -0.1325
  919TIP3   OH224171   6.684   2.162  16.333 -0.2779  0.1320  0.7079
  919TIP3    H124172   6.597   2.189  16.302  0.2472 -0.0237 -0.9182
  919TIP3    H224173   6.741   2.235  16.310  0.4172 -0.6799 -0.1711
  920TIP3   OH224174   3.452   3.071   5.183  0.2862  0.3016  0.0922
  920TIP3    H124175   3.429   3.051   5.274  1.1919 -0.0948  0.2423
  920TIP3    H224176   3.547   3.088   5.186 -0.0314  2.3192 -0.4303
  921TIP3   OH224177   6.291   0.273  14.376 -0.0808  0.1685 -0.1352
  921TIP3    H124178   6.293   0.319  14.460 -1.2147 -0.1000  0.0459
  921TIP3    H224179   6.282   0.343  14.310 -0.1728  0.3174  0.0360
  922TIP3   OH224180   5.129   1.083  14.252  0.2863  0.6173 -0.3493
  922TIP3    H124181   5.180   1.150  14.298  0.4869  0.5744 -0.5063
  922TIP3    H224182   5.164   1.000  14.285  1.6076  0.5579 -1.8121
  923TIP3   OH224183   2.292   1.174   5.299  0.8677  0.2141 -0.3509
  923TIP3    H124184   2.280   1.099   5.357 -0.8750  0.9426  0.2662
  923TIP3    H224185   2.225   1.163   5.231 -1.5428  2.8077  1.4709
  924TIP3   OH224186   5.735   2.430  14.091 -0.0561 -0.5617  0.2221
  924TIP3    H124187   5.734   2.514  14.137 -0.6267 -0.3678 -0.1365
  924TIP3    H224188   5.773   2.450  14.005 -0.8527 -0.5236 -0.1285
  925TIP3   OH224189   4.247   6.636   1.353 -0.0948  0.3894  0.3657
  925TIP3    H124190   4.339   6.612   1.349 -0.1758  0.1526 -0.1959
  925TIP3    H224191   4.209   6.599   1.273 -0.8998 -0.4756  1.1281
  926TIP3   OH224192   5.929   0.249  13.850  0.3937  0.3595  0.1913
  926TIP3    H124193   5.924   0.233  13.944  2.1795 -1.6011 -0.0151
  926TIP3    H224194   5.967   0.337  13.843  2.1707 -0.2877  1.3138
  927TIP3   OH224195   4.471   3.369   4.039  0.1717 -0.8642  0.3145
  927TIP3    H124196   4.504   3.283   4.013  0.2203 -1.2090  1.5185
  927TIP3    H224197   4.545   3.428   4.025  0.5000 -1.2104  0.5790
  928TIP3   OH224198   5.658   2.440   0.018  0.2076 -0.0378  0.1171
  928TIP3    H124199   5.630   2.532   0.020 -2.7236 -0.8776 -0.0487
  928TIP3    H224200   5.637   2.408   0.106 -1.6882 -1.3364 -0.7805
  929TIP3   OH224201   0.392   0.197   4.989  0.0539  0.6116  0.1649
  929TIP3    H124202   0.416   0.273   5.042 -2.1111  1.1061  0.4985
  929TIP3    H224203   0.333   0.146   5.046  0.4107 -0.6088 -0.5422
  930TIP3   OH224204   1.791   4.512   2.997 -0.2433  0.2199  0.3572
  930TIP3    H124205   1.805   4.571   3.072  0.5649  0.7193 -0.1803
  930TIP3    H224206   1.797   4.424   3.034 -1.2599  0.4678  1.1333
  931TIP3   OH224207   6.345   5.868  11.088  0.4252  0.4527 -0.6325
  931TIP3    H124208   6.339   5.773  11.079 -0.6822  0.4656 -0.0324
  931TIP3    H224209   6.254   5.898  11.087  0.5441  1.1438  3.2344
  932TIP3   OH224210   3.516   5.123  16.069  0.3622  0.1067  0.1630
  932TIP3    H124211   3.511   5.035  16.106  0.3677 -0.0822 -0.2898
  932TIP3    H224212   3.586   5.118  16.004 -0.5324  0.0983 -0.8188
  933TIP3   OH224213   1.080   6.407  11.270  0.6424 -0.4765 -0.1781
  933TIP3    H124214   1.017   6.472  11.240 -0.4095 -1.1097  0.6345
  933TIP3    H224215   1.030   6.326  11.275  1.3789 -0.8643  1.0564
  934TIP3   OH224216   0.363   3.767  14.006 -0.6862 -0.1942 -0.2069
  934TIP3    H124217   0.293   3.820  14.044  2.9561  3.6584  1.5183
  934TIP3    H224218   0.360   3.787  13.912  0.1640  2.4817  0.3259
  935TIP3   OH224219   0.804   4.814   3.220 -0.9025 -0.1358 -0.3211
  935TIP3    H124220   0.882   4.819   3.165  0.2396 -0.4436  1.2331
  935TIP3    H224221   0.771   4.725   3.209 -1.4807  0.2308 -1.5735
  936TIP3   OH224222   4.163   4.300  15.652  0.4694  0.4413 -0.6166
  936TIP3    H124223   4.172   4.215  15.696  4.8012 -0.1648 -2.4830
  936TIP3    H224224   4.203   4.363  15.712  0.8364  0.5564 -0.9810
  937TIP3   OH224225   5.318   0.806   3.864  0.4084  0.0102 -0.0979
  937TIP3    H124226   5.309   0.896   3.830  0.8671  0.0626 -0.0742
  937TIP3    H224227   5.292   0.813   3.955 -1.2160 -0.2055 -0.5240
  938TIP3   OH224228   5.112   0.124   3.449 -0.3677 -0.5709 -0.1508
  938TIP3    H124229   5.087   0.200   3.502  0.2085 -1.0378  0.8012
  938TIP3    H224230   5.073   0.049   3.494 -0.3535 -0.9134 -0.7007
  939TIP3   OH224231   1.298   4.734   4.946 -0.1658  0.4726 -0.2199
  939TIP3    H124232   1.245   4.674   4.999 -0.1210 -0.6489 -1.4302
  939TIP3    H224233   1.240   4.763   4.876 -0.3593  2.3067  0.6438
  940TIP3   OH224234   4.968   0.012   2.067 -0.5156 -0.4179 -0.3446
  940TIP3    H124235   4.900  -0.046   2.103 -0.9752  1.1154  1.3504
  940TIP3    H224236   5.047  -0.042   2.065 -1.7392 -2.2501 -2.3634
  941TIP3   OH224237   0.825   1.953   4.439 -0.1639 -0.3689  0.5731
  941TIP3    H124238   0.875   1.909   4.370 -0.3873  0.8999 -0.4097
  941TIP3    H224239   0.735   1.952   4.407 -0.4421 -0.7674  1.3653
  942TIP3   OH224240   5.448   3.009  13.757 -0.5991  0.5596  0.9482
  942TIP3    H124241   5.375   2.950  13.736 -1.3950  0.6661  3.2934
  942TIP3    H224242   5.426   3.091  13.713 -0.2912 -0.3513 -0.9839
  943TIP3   OH224243   0.789   0.131  12.435  0.2481 -0.0864  0.6875
  943TIP3    H124244   0.720   0.197  12.444 -1.1596 -1.3661 -0.4057
  943TIP3    H224245   0.843   0.162  12.363 -0.6896 -0.3619 -0.1392
  944TIP3   OH224246   1.783   0.877  13.107  0.1436 -0.0335 -0.4596
  944TIP3    H124247   1.753   0.965  13.084 -1.0495 -0.5281 -0.8344
  944TIP3    H224248   1.810   0.884  13.199 -0.0947  0.6836 -0.4413
  945TIP3   OH224249   3.166   1.636  16.399 -0.1718 -0.5881 -0.1828
  945TIP3    H124250   3.197   1.676  16.318  0.9213 -0.0513  0.4871
  945TIP3    H224251   3.218   1.556  16.408 -0.1830 -0.5636  0.0793
  946TIP3   OH224252   3.456   0.243   5.873  0.5452 -0.3196 -0.5387
  946TIP3    H124253   3.510   0.167   5.895 -0.3652 -0.6209  0.7206
  946TIP3    H224254   3.379   0.206   5.831 -0.0394 -0.1225  0.3505
  947TIP3   OH224255   0.931   3.156   5.461  0.0671 -0.5992 -0.3657
  947TIP3    H124256   0.897   3.087   5.403  0.5448 -0.1813 -1.1571
  947TIP3    H224257   0.959   3.109   5.539  0.4039 -1.3185 -0.9020
  948TIP3   OH224258   0.796   0.825   2.135 -0.4188 -0.4324 -0.1934
  948TIP3    H124259   0.842   0.885   2.076 -2.0254  0.7767 -0.2475
  948TIP3    H224260   0.792   0.871   2.219 -0.8763 -0.8419  0.0152
  949TIP3   OH224261   1.163   4.080  13.711 -0.8563  0.0579 -0.2833
  949TIP3    H124262   1.170   4.135  13.634  0.9948 -1.0214 -0.9201
  949TIP3    H224263   1.081   4.032  13.700 -0.6675  0.0147 -1.5072
  950TIP3   OH224264   0.546   4.101   3.809 -0.2932 -0.2172  0.5293
  950TIP3    H124265   0.531   4.079   3.717  0.7147 -0.0763  0.3260
  950TIP3    H224266   0.638   4.127   3.813 -1.2069  3.1525  0.9226
  951TIP3   OH224267   3.557   2.083  13.706 -0.0004 -0.6806  0.3631
  951TIP3    H124268   3.649   2.081  13.730  0.1012  0.6840  0.1334
  951TIP3    H224269   3.541   2.173  13.677 -1.0342 -1.2767 -1.0410
  952TIP3   OH224270   2.091   4.998   4.692 -0.1095  0.1182 -0.3491
  952TIP3    H124271   2.010   4.978   4.646  0.5911  1.6548 -2.3481
  952TIP3    H224272   2.099   4.930   4.759 -2.1415 -1.0605 -1.2738
  953TIP3   OH224273   0.635   3.972   4.078 -0.2731 -1.0467 -0.3962
  953TIP3    H124274   0.584   3.972   3.997  0.0908 -0.6723 -0.6265
  953TIP3    H224275   0.570   3.972   4.148 -0.5852 -0.2912 -0.6886
  954TIP3   OH224276   6.155   5.444   5.462 -0.2071  0.1844 -0.0438
  954TIP3    H124277   6.171   5.354   5.434  0.4928  1.2623 -3.3251
  954TIP3    H224278   6.061   5.457   5.451 -0.0943  0.2797 -0.8765
  955TIP3   OH224279   4.907   6.440   1.166 -0.2037 -0.2796 -0.3558
  955TIP3    H124280   4.880   6.472   1.080  0.9220 -0.0102 -0.6074
  955TIP3    H224281   4.897   6.345   1.161 -0.7672 -0.2096 -0.5645
  956TIP3   OH224282   1.235   3.615  13.521  0.2362  0.3906 -0.1358
  956TIP3    H124283   1.237   3.700  13.565  1.5813 -0.6777  1.9545
  956TIP3    H224284   1.324   3.582  13.527 -0.4177 -1.4865 -0.2517
  957TIP3   OH224285   4.897   6.357   4.377 -0.2532 -0.4999  0.3562
  957TIP3    H124286   4.848   6.440   4.373 -0.3728 -0.5803  0.1135
  957TIP3    H224287   4.943   6.353   4.294 -0.4340 -0.7909  0.2693
  958TIP3   OH224288   6.328   4.502  15.645  0.0102 -0.2768  0.3397
  958TIP3    H124289   6.336   4.595  15.625 -1.4037  0.4580  3.0116
  958TIP3    H224290   6.246   4.494  15.693 -0.9652 -3.2493 -1.7032
  959TIP3   OH224291   3.542   4.757  14.153  0.2980  0.3024  0.0618
  959TIP3    H124292   3.538   4.727  14.244 -0.1270  0.0888 -0.0281
  959TIP3    H224293   3.465   4.814  14.143  1.2635  1.6858  0.3268
  960TIP3   OH224294   3.733   5.888   6.450 -0.3031  0.3428  0.0488
  960TIP3    H124295   3.749   5.975   6.411  1.4632  0.7968  1.7111
  960TIP3    H224296   3.819   5.847   6.453 -1.1114 -1.4306 -0.5727
  961TIP3   OH224297   0.224   3.096   3.124 -0.2406  0.1218 -0.3621
  961TIP3    H124298   0.195   3.099   3.033 -1.7205 -1.5885  0.0328
  961TIP3    H224299   0.320   3.103   3.119 -0.4670  2.5193 -1.8735
  962TIP3   OH224300   1.841   2.331   2.985  0.1699 -0.4438 -0.0440
  962TIP3    H124301   1.881   2.368   2.906 -1.4480  2.2777  0.3595
  962TIP3    H224302   1.885   2.246   2.996  2.1004  0.1623 -2.5043
  963TIP3   OH224303   5.155   3.290   3.245  0.2611  0.1558 -0.1729
  963TIP3    H124304   5.159   3.218   3.182 -1.6408 -0.4012  0.2927
  963TIP3    H224305   5.067   3.325   3.235  1.4801  3.0898 -1.0644
  964TIP3   OH224306   4.170   0.904  14.300  0.3265  0.2358 -0.3977
  964TIP3    H124307   4.132   0.964  14.235 -0.5568 -1.1332 -1.1789
  964TIP3    H224308   4.094   0.871  14.348  0.5205 -2.1810 -1.6760
  965TIP3   OH224309   2.375   2.719  16.749 -0.4972 -0.2314  0.0609
  965TIP3    H124310   2.339   2.636  16.718  0.7577 -0.5744 -0.5178
  965TIP3    H224311   2.387   2.772  16.670 -2.0263  0.8122  0.5117
  966TIP3   OH224312   3.937   4.400  11.286 -0.3380  0.1490 -0.0286
  966TIP3    H124313   3.965   4.462  11.353  0.0496  0.7442 -0.7466
  966TIP3    H224314   3.976   4.431  11.205  0.3486 -1.3532 -0.3025
  967TIP3   OH224315   5.847   1.901  17.114 -0.2218 -0.0873  0.4902
  967TIP3    H124316   5.899   1.981  17.109 -1.1558  0.5684  0.9926
  967TIP3    H224317   5.834   1.886  17.207 -0.6240 -0.4360  0.3841
  968TIP3   OH224318   0.040   2.111  16.578  0.0199 -0.7429  0.1830
  968TIP3    H124319   0.072   2.113  16.488  0.5369 -1.5413  0.3425
  968TIP3    H224320  -0.049   2.077  16.572  0.2552 -1.3458  0.0191
  969TIP3   OH224321   3.952   3.784  14.025 -0.0474 -0.2958 -0.6971
  969TIP3    H124322   3.898   3.852  14.066 -0.0027 -1.5219  1.4821
  969TIP3    H224323   4.041   3.817  14.030 -0.1981  0.1692 -1.0704
  970TIP3   OH224324   1.041   6.730  11.410  0.4660  0.3820  0.2810
  970TIP3    H124325   1.116   6.751  11.353 -0.8402  1.2906 -1.1366
  970TIP3    H224326   1.005   6.815  11.434 -1.3158 -0.0741 -0.6873
  971TIP3   OH224327   3.069   4.994  15.847  0.5780  0.3645  0.4162
  971TIP3    H124328   3.154   5.038  15.835  1.2373 -1.2646 -1.2566
  971TIP3    H224329   3.004   5.059  15.822  1.5489  0.3484 -2.3029
  972TIP3   OH224330   3.565   2.585  15.353 -0.3529  0.0393 -0.3688
  972TIP3    H124331   3.627   2.527  15.307  0.5987 -0.5429  1.5868
  972TIP3    H224332   3.570   2.557  15.445 -2.1029  1.2771  0.1200
  973TIP3   OH224333   4.845   4.580   5.083 -0.3037  0.6312  0.8702
  973TIP3    H124334   4.808   4.653   5.132 -0.6829  1.8405 -1.1446
  973TIP3    H224335   4.910   4.542   5.141 -1.7424  1.1160  2.8408
  974TIP3   OH224336   4.616   3.488  14.793  0.4355  0.4639 -0.4273
  974TIP3    H124337   4.572   3.566  14.826 -0.6110  0.4320 -1.6990
  974TIP3    H224338   4.558   3.416  14.816  0.7405  0.2045 -0.4606
  975TIP3   OH224339   5.275   3.030   3.704 -0.6797  0.0702  0.1631
  975TIP3    H124340   5.255   3.118   3.673  0.0603 -0.9618 -3.4215
  975TIP3    H224341   5.189   2.987   3.710 -1.1089  1.1884  2.5887
  976TIP3   OH224342   5.077   2.198   1.955 -0.1512 -0.0054  0.1033
  976TIP3    H124343   5.001   2.156   1.996  0.3120 -2.5667 -1.5380
  976TIP3    H224344   5.041   2.277   1.914 -2.1992 -1.7234 -1.5666
  977TIP3   OH224345   3.041   4.985   1.752  0.3686 -0.7150  0.0316
  977TIP3    H124346   3.078   5.038   1.682  2.6543 -2.1243  0.1060
  977TIP3    H224347   3.108   4.986   1.821 -1.5288  0.0791  1.9482
  978TIP3   OH224348   4.370   5.627   0.124 -0.3849  0.2505 -0.3179
  978TIP3    H124349   4.343   5.550   0.174  2.5651 -0.4278  0.3651
  978TIP3    H224350   4.400   5.689   0.190  2.9633 -0.4078 -1.0872
  979TIP3   OH224351   2.772   1.038   4.158 -0.0147  0.0223  0.4581
  979TIP3    H124352   2.801   1.047   4.067 -0.2757 -2.5026  0.0940
  979TIP3    H224353   2.749   1.127   4.184 -0.0091  0.7890 -1.9761
  980TIP3   OH224354   6.249   5.720   2.324 -0.4779  0.1996  0.3142
  980TIP3    H124355   6.194   5.798   2.329 -0.4754  0.3512 -1.5053
  980TIP3    H224356   6.338   5.752   2.335 -0.5687  0.2873  0.8029
  981TIP3   OH224357   3.307   6.618   3.700 -0.5531  0.2489  0.2416
  981TIP3    H124358   3.312   6.557   3.773 -1.3953 -0.8998 -0.6443
  981TIP3    H224359   3.223   6.661   3.711 -0.4353  0.4768  0.2543
  982TIP3   OH224360   6.583   1.729  11.303 -0.5480  0.7716 -0.1950
  982TIP3    H124361   6.604   1.725  11.210  0.4233 -0.8888  0.0664
  982TIP3    H224362   6.630   1.654  11.341 -0.0465  2.0577  1.7844
  983TIP3   OH224363   1.249   5.257  13.626 -0.7326 -0.5444 -0.8019
  983TIP3    H124364   1.215   5.172  13.654 -0.5937 -0.5420 -0.6228
  983TIP3    H224365   1.344   5.248  13.633 -0.7442 -0.1572 -0.1443
  984TIP3   OH224366   2.730   2.542   3.046  0.2330  0.0844 -0.4523
  984TIP3    H124367   2.675   2.620   3.044  1.6242  1.1390  0.9493
  984TIP3    H224368   2.717   2.505   3.133 -1.2282 -1.8633 -1.4798
  985TIP3   OH224369   0.844   4.565  15.380  0.7079 -0.1349 -0.3007
  985TIP3    H124370   0.854   4.530  15.469  0.7527  2.9559  1.0064
  985TIP3    H224371   0.762   4.528  15.348  0.3747 -0.8170  1.2896
  986TIP3   OH224372   5.016   6.413   4.830 -0.2274 -0.4035  0.1636
  986TIP3    H124373   4.923   6.434   4.826  0.0976  1.1707  0.2773
  986TIP3    H224374   5.048   6.460   4.907  0.9171  0.2392 -0.6709
  987TIP3   OH224375   3.574   1.588  13.153 -0.4917  0.3443  0.3933
  987TIP3    H124376   3.631   1.544  13.217  0.5001 -0.2845 -0.8865
  987TIP3    H224377   3.616   1.570  13.069  0.4472  4.5512 -0.1118
  988TIP3   OH224378   0.653   0.245   5.479 -0.0607 -0.0099  0.2501
  988TIP3    H124379   0.596   0.233   5.402  0.4327  1.2079 -0.3167
  988TIP3    H224380   0.612   0.192   5.547 -2.3623  1.4628  0.0882
  989TIP3   OH224381   6.622   2.786  15.969 -0.5602 -0.0351 -0.3017
  989TIP3    H124382   6.547   2.804  16.024  1.1219 -0.2458  2.1607
  989TIP3    H224383   6.681   2.734  16.024  1.8902  1.0643 -1.7669
  990TIP3   OH224384   5.273   4.452  14.370  0.0776  0.1451  0.3693
  990TIP3    H124385   5.198   4.394  14.360  0.4583  0.1431 -2.7723
  990TIP3    H224386   5.294   4.482  14.282  1.3829  3.2134  1.6217
  991TIP3   OH224387   0.258   2.032  13.785  0.3750  0.5055  0.0182
  991TIP3    H124388   0.330   2.040  13.848  1.4999 -1.2262 -1.0231
  991TIP3    H224389   0.300   2.007  13.703 -1.3047  0.5992 -0.8922
  992TIP3   OH224390   6.553   2.772   3.626 -0.9296  0.2116 -0.4697
  992TIP3    H124391   6.458   2.777   3.635 -0.8173  0.4858  0.7022
  992TIP3    H224392   6.577   2.690   3.669 -0.6427  0.0980 -0.8452
  993TIP3   OH224393   6.218   1.613  16.183  0.1020  0.2238  0.5633
  993TIP3    H124394   6.189   1.531  16.223 -1.0010 -0.0158 -0.6933
  993TIP3    H224395   6.305   1.592  16.148 -0.4898 -0.6444 -0.4218
  994TIP3   OH224396   3.288   0.528  15.603 -0.3307  0.3580 -0.5698
  994TIP3    H124397   3.223   0.583  15.647 -0.3398 -1.1014  1.3059
  994TIP3    H224398   3.236   0.464  15.553 -0.3584 -0.6238  0.6947
  995TIP3   OH224399   2.349   1.871  17.055 -0.3767  0.0506  0.0553
  995TIP3    H124400   2.357   1.881  16.960  0.4857 -0.8153  0.0246
  995TIP3    H224401   2.392   1.948  17.091 -1.7464  0.9902 -0.2580
  996TIP3   OH224402   5.731   4.118   5.064 -0.1690 -0.1419  0.3226
  996TIP3    H124403   5.783   4.158   5.134 -0.7109  0.0236  0.6306
  996TIP3    H224404   5.790   4.116   4.988  0.0875  0.5970  0.5039
  997TIP3   OH224405   6.060   5.251   1.233 -0.1540 -0.1948  0.7208
  997TIP3    H124406   6.067   5.265   1.139 -1.5358 -1.2657  0.4316
  997TIP3    H224407   6.048   5.156   1.242 -1.0567  0.0129  1.8927
  998TIP3   OH224408   0.900   1.705   1.047 -0.4654  1.0506 -0.9300
  998TIP3    H124409   0.986   1.675   1.077 -0.3902  1.4726 -0.7122
  998TIP3    H224410   0.918   1.750   0.965 -0.5196  0.8717 -1.0398
  999TIP3   OH224411   4.555   1.352   5.340 -0.0511  0.3837 -0.4332
  999TIP3    H124412   4.517   1.336   5.427  1.0321  1.6786  0.2893
  999TIP3    H224413   4.620   1.283   5.329  0.2951  0.6252  0.0840
 1000TIP3   OH224414   1.945   3.686   3.322  0.2546 -0.5771 -0.3825
 1000TIP3    H124415   1.990   3.682   3.238  0.3924 -3.4056 -0.2175
 1000TIP3    H224416   1.999   3.634   3.381 -1.6419 -1.5023  0.5849
 1001TIP3   OH224417   3.540   0.612  16.561 -0.2736  0.2303  0.2547
 1001TIP3    H124418   3.471   0.678  16.569 -0.9432 -0.4667  0.2167
 1001TIP3    H224419   3.585   0.614  16.645 -0.6176  0.3636  0.4343
 1002TIP3   OH224420   4.021   5.154  15.631 -0.0238 -0.0325  0.0537
 1002TIP3    H124421   4.045   5.194  15.715 -0.2182 -0.7111  0.4298
 1002TIP3    H224422   3.941   5.200  15.606  0.5977  0.8948 -0.2696
 1003TIP3   OH224423   0.395   0.043  12.615 -0.0667  0.2080  0.1113
 1003TIP3    H124424   0.429   0.124  12.652 -0.8915 -0.0194  1.4184
 1003TIP3    H224425   0.453  -0.025  12.650 -0.6543  0.0263  0.7627
 1004TIP3   OH224426   5.119   1.819  14.599  0.3674  0.4238 -0.1273
 1004TIP3    H124427   5.192   1.823  14.536  0.5583  2.5980  0.1843
 1004TIP3    H224428   5.154   1.860  14.678 -0.5118 -0.5116  0.7527
 1005TIP3   OH224429   0.827   1.291  14.834  0.0095 -0.3000  0.4705
 1005TIP3    H124430   0.748   1.302  14.780  0.3584 -1.1353 -0.2117
 1005TIP3    H224431   0.798   1.314  14.923 -1.1295 -1.0704  0.3079
 1006TIP3   OH224432   0.012   5.040   2.552  0.9017  0.1292 -0.6243
 1006TIP3    H124433  -0.047   5.115   2.541 -0.7786 -1.1480 -0.4823
 1006TIP3    H224434   0.075   5.049   2.481 -0.3438  0.7233 -1.6876
 1007TIP3   OH224435   0.103   1.411   5.109  0.3751 -0.1252 -0.1760
 1007TIP3    H124436   0.053   1.486   5.077  1.3485  0.7404  0.3548
 1007TIP3    H224437   0.075   1.400   5.199  0.4051 -0.2634 -0.1833
 1008TIP3   OH224438   1.918   0.824  11.529  0.2813 -0.0244 -0.2100
 1008TIP3    H124439   1.850   0.762  11.502 -0.0651  0.5088 -0.5467
 1008TIP3    H224440   1.882   0.910  11.511  0.0836  0.3497  1.8400
 1009TIP3   OH224441   4.128   1.655  14.226  0.1692  0.1494  0.6887
 1009TIP3    H124442   4.083   1.635  14.144 -0.6262 -0.7225  1.3183
 1009TIP3    H224443   4.177   1.735  14.208  0.0203 -0.0500 -0.6384
 1010TIP3   OH224444   5.174   0.727  13.583  0.1099  0.4996  0.3248
 1010TIP3    H124445   5.250   0.671  13.602 -0.6522 -0.8655 -0.4884
 1010TIP3    H224446   5.099   0.677  13.616 -0.6445  0.7629 -0.9481
 1011TIP3   OH224447   4.345   5.593  13.235 -0.2691 -0.2182 -0.0537
 1011TIP3    H124448   4.351   5.621  13.326 -0.5793 -1.8251  0.4894
 1011TIP3    H224449   4.344   5.674  13.185  0.8118  0.6713  1.3108
 1012TIP3   OH224450   4.034   4.626   0.369  0.3684  0.3592 -0.3765
 1012TIP3    H124451   4.060   4.645   0.459 -0.4075  0.9308 -0.2736
 1012TIP3    H224452   3.975   4.551   0.376 -0.3998  0.9625 -0.3166
 1013TIP3   OH224453   2.277   3.852  11.876 -0.2512  0.3048 -0.4800
 1013TIP3    H124454   2.302   3.789  11.807  2.6802  1.2561 -0.3280
 1013TIP3    H224455   2.194   3.818  11.909  0.0087 -2.1013 -2.1242
 1014TIP3   OH224456   5.298   3.109   7.069 -0.0612 -0.1168 -0.3146
 1014TIP3    H124457   5.352   3.068   7.002  1.1248  0.8979 -0.0078
 1014TIP3    H224458   5.219   3.139   7.022 -0.5690 -1.9799 -0.6837
 1015TIP3   OH224459   1.970   4.143  15.456 -0.0095  0.6153  0.0897
 1015TIP3    H124460   1.880   4.111  15.460  0.3925 -0.7873 -1.3988
 1015TIP3    H224461   1.962   4.231  15.420 -0.8060  0.5461  0.0883
 1016TIP3   OH224462   5.183   4.546  10.889  0.0443 -0.4424  0.2983
 1016TIP3    H124463   5.110   4.608  10.875 -1.3407 -2.1778 -0.3709
 1016TIP3    H224464   5.219   4.533  10.801  0.5846 -0.2863  0.4976
 1017TIP3   OH224465   1.362   2.892   0.027  0.1459  0.2130  0.4212
 1017TIP3    H124466   1.314   2.858  -0.049  0.6794 -0.0517  0.1985
 1017TIP3    H224467   1.418   2.819   0.054  1.9995  1.1977 -0.6378
 1018TIP3   OH224468   6.645   5.202   2.009 -0.6842  0.0903  0.3918
 1018TIP3    H124469   6.654   5.287   2.051  0.7216  0.4115 -0.5544
 1018TIP3    H224470   6.706   5.204   1.936 -1.6413 -1.2186 -0.4713
 1019TIP3   OH224471   2.970   4.385   2.202 -0.2073 -0.8488 -0.0539
 1019TIP3    H124472   2.891   4.337   2.176 -1.5028  0.5379  1.2833
 1019TIP3    H224473   2.996   4.432   2.124 -0.6017 -1.4377 -0.5475
 1020TIP3   OH224474   6.658   2.852   6.055 -0.5625 -0.7786 -0.2550
 1020TIP3    H124475   6.607   2.854   6.136  0.0560 -0.0796  0.1121
 1020TIP3    H224476   6.734   2.908   6.072 -0.4459 -0.6009 -1.3232
 1021TIP3   OH224477   5.815   0.945  13.540  1.0625  0.4331  0.5436
 1021TIP3    H124478   5.744   0.937  13.476  0.1231  0.2909  1.5825
 1021TIP3    H224479   5.872   1.012  13.505  1.5089 -0.9043 -1.3338
 1022TIP3   OH224480   1.926   2.507   2.153  0.6637 -0.0369 -0.6989
 1022TIP3    H124481   1.870   2.540   2.082 -1.4891  1.6680  1.6993
 1022TIP3    H224482   1.908   2.413   2.156 -0.4463  0.1487 -1.3427
 1023TIP3   OH224483   6.172   2.886  12.560 -0.4312  0.1304 -0.2131
 1023TIP3    H124484   6.193   2.806  12.608  1.2019 -0.8936 -2.5557
 1023TIP3    H224485   6.080   2.878  12.537  0.1205 -1.8681 -1.8462
 1024TIP3   OH224486   1.052   4.014   5.494 -0.6833 -0.1400 -0.3742
 1024TIP3    H124487   0.977   3.997   5.552  0.9990 -2.2910  1.2042
 1024TIP3    H224488   1.104   3.934   5.496  2.2667  1.7027 -0.5838
 1025TIP3   OH224489   2.671   3.722  16.684  0.2749 -0.0958 -0.1198
 1025TIP3    H124490   2.591   3.766  16.657 -0.3350 -0.0406  1.7402
 1025TIP3    H224491   2.717   3.705  16.602 -0.9878  1.0896 -1.1104
 1026TIP3   OH224492   1.700   3.231   2.996 -0.3047 -0.5256 -0.4315
 1026TIP3    H124493   1.704   3.323   3.021 -1.3510 -0.5416 -0.1786
 1026TIP3    H224494   1.614   3.202   3.026 -0.8967 -0.9964 -2.4578
 1027TIP3   OH224495   4.671   2.533  14.021  0.5563  0.8310  0.2230
 1027TIP3    H124496   4.734   2.556  14.090  0.2912  2.3880 -0.0288
 1027TIP3    H224497   4.726   2.512  13.945  0.8910 -2.1671  1.2519
 1028TIP3   OH224498   5.399   5.867  15.457 -0.4216  0.6206  0.0170
 1028TIP3    H124499   5.362   5.798  15.512 -1.6571  1.0485 -0.2654
 1028TIP3    H224500   5.449   5.820  15.390  0.8118  0.0858  1.2788
 1029TIP3   OH224501   1.181   2.744  15.542 -0.1443 -0.2028  0.4066
 1029TIP3    H124502   1.161   2.777  15.630  2.1634  1.7702  0.2409
 1029TIP3    H224503   1.258   2.793  15.515 -1.3676 -0.1031 -3.1293
 1030TIP3   OH224504   5.062   1.769   1.036  0.2000 -0.2761 -0.0238
 1030TIP3    H124505   5.057   1.863   1.054  1.4015 -0.7088  2.9359
 1030TIP3    H224506   5.153   1.753   1.015 -0.0127 -0.7684 -0.5710
 1031TIP3   OH224507   4.706   5.435   5.191  0.1123 -0.2037 -0.7313
 1031TIP3    H124508   4.631   5.481   5.153  0.5698 -0.2774 -1.7391
 1031TIP3    H224509   4.775   5.444   5.125  1.1142  0.2101  0.3669
 1032TIP3   OH224510   3.420   4.744  13.572 -0.2002 -0.2203  0.1172
 1032TIP3    H124511   3.334   4.768  13.538  0.1191  0.9852  0.1499
 1032TIP3    H224512   3.482   4.773  13.506  0.1782 -1.4014 -0.0662
 1033TIP3   OH224513   0.283   5.244   1.918 -0.7257 -0.4027 -0.4922
 1033TIP3    H124514   0.334   5.163   1.931 -1.5253 -0.8050  0.2089
 1033TIP3    H224515   0.314   5.302   1.988 -1.4933 -0.7875  0.1780
 1034TIP3   OH224516   2.347   2.039  12.426 -0.4694 -0.4624  0.3562
 1034TIP3    H124517   2.369   2.016  12.517 -0.9130 -1.5503  0.1889
 1034TIP3    H224518   2.296   1.965  12.394 -1.3234  0.4578 -0.4155
 1035TIP3   OH224519   4.751   2.517   0.951 -0.3223  0.3884 -0.5009
 1035TIP3    H124520   4.817   2.454   0.920 -0.4034 -0.4248  0.9154
 1035TIP3    H224521   4.678   2.507   0.890 -0.7712 -1.7145  0.3330
 1036TIP3   OH224522   0.554   4.144   1.517  0.3082 -0.5314  0.1454
 1036TIP3    H124523   0.480   4.109   1.466  0.4806 -0.9261  0.1647
 1036TIP3    H224524   0.553   4.094   1.599  1.4908 -1.5887 -0.4550
 1037TIP3   OH224525   4.510   0.749  15.482  0.3067 -0.5350  0.3050
 1037TIP3    H124526   4.559   0.830  15.470  0.4399 -0.7586 -0.6644
 1037TIP3    H224527   4.561   0.700  15.547  1.0410 -0.4992 -0.2427
 1038TIP3   OH224528   5.953   2.612   3.861  0.4921 -0.5251  0.4372
 1038TIP3    H124529   5.956   2.634   3.768 -0.6762 -1.1065  0.2467
 1038TIP3    H224530   5.860   2.616   3.883  0.9019  1.3164  2.0059
 1039TIP3   OH224531   4.401   4.458   5.497 -0.4148 -0.3446  0.0344
 1039TIP3    H124532   4.436   4.390   5.440 -0.7057 -0.1987 -0.3183
 1039TIP3    H224533   4.404   4.538   5.444 -2.3813 -0.5515 -0.4127
 1040TIP3   OH224534   3.808   5.903  16.350  0.5215 -0.3093  0.0156
 1040TIP3    H124535   3.872   5.953  16.401  0.2475 -0.3558  0.4106
 1040TIP3    H224536   3.736   5.964  16.336  0.0996 -0.6503  0.6699
 1041TIP3   OH224537   1.123   5.382  14.072  0.0733  0.0680  0.0894
 1041TIP3    H124538   1.157   5.462  14.033 -1.0917  1.3717  1.6759
 1041TIP3    H224539   1.105   5.406  14.163 -0.5319 -1.9284  0.5152
 1042TIP3   OH224540   1.061   4.920   2.751 -0.6028 -0.2650  0.5593
 1042TIP3    H124541   1.147   4.951   2.781  0.0292 -0.9599 -0.5125
 1042TIP3    H224542   1.072   4.907   2.657 -0.6906 -4.2832  1.0388
 1043TIP3   OH224543   2.985   3.142   5.909  0.0734 -0.0934  0.9172
 1043TIP3    H124544   2.999   3.217   5.968 -0.2520 -0.3025  1.2661
 1043TIP3    H224545   2.890   3.141   5.894  0.0905 -0.3623  0.8201
 1044TIP3   OH224546   2.671   1.640   2.891 -0.0508 -0.0482  0.1386
 1044TIP3    H124547   2.703   1.706   2.952  0.1758 -0.1779  0.1601
 1044TIP3    H224548   2.602   1.594   2.938 -0.5108  0.4646 -0.0325
 1045TIP3   OH224549   4.727   3.501   1.864  0.0838  0.0418  0.1198
 1045TIP3    H124550   4.792   3.566   1.840  0.3714 -0.3002 -0.0331
 1045TIP3    H224551   4.659   3.509   1.797  0.3985 -0.2174 -0.2303
 1046TIP3   OH224552   2.353   4.108   4.174  0.2287 -0.4240 -0.0111
 1046TIP3    H124553   2.263   4.127   4.149  0.0185 -0.4876  0.6915
 1046TIP3    H224554   2.352   4.016   4.200  0.2951 -0.1708  0.9005
 1047TIP3   OH224555   4.568   2.409  14.234 -0.5681  0.1116  0.4631
 1047TIP3    H124556   4.589   2.454  14.152 -2.3961  1.8312  0.9147
 1047TIP3    H224557   4.478   2.434  14.253 -1.6942 -3.7750  0.7193
 1048TIP3   OH224558   0.675   5.425   0.710 -0.0085 -0.0207  0.0519
 1048TIP3    H124559   0.746   5.477   0.672  1.2916 -1.7329  0.1255
 1048TIP3    H224560   0.704   5.406   0.800 -1.2503  0.5529  0.5905
 1049TIP3   OH224561   5.178   2.585   5.254  0.1700  0.1740 -0.7277
 1049TIP3    H124562   5.100   2.530   5.247  1.1541 -1.2554 -0.5877
 1049TIP3    H224563   5.244   2.541   5.201  1.3397  0.5483  0.3854
 1050TIP3   OH224564   2.398   3.627  12.741 -0.6588  0.1884 -0.2990
 1050TIP3    H124565   2.387   3.721  12.727 -1.6492  0.1239  0.0295
 1050TIP3    H224566   2.385   3.615  12.835 -2.3173 -0.5271 -0.6121
 1051TIP3   OH224567   1.836   1.594   5.529 -0.3123 -0.2112  0.3431
 1051TIP3    H124568   1.866   1.612   5.440  0.0068  0.9399  0.6629
 1051TIP3    H224569   1.758   1.540   5.519 -1.5317  1.6785 -0.7259
 1052TIP3   OH224570   4.223   3.616   6.362  0.4094  0.5911 -0.5622
 1052TIP3    H124571   4.223   3.645   6.453  0.8157 -2.4585  0.4801
 1052TIP3    H224572   4.315   3.604   6.341  0.3181  1.3532 -1.4233
 1053TIP3   OH224573   1.125   6.215  14.187 -0.1705 -0.1560  0.3420
 1053TIP3    H124574   1.034   6.200  14.212  0.1711 -0.3470  1.4996
 1053TIP3    H224575   1.128   6.308  14.162 -0.5356  0.0227  0.9474
 1054TIP3   OH224576   0.262   5.925   0.251 -0.5136 -0.1817  0.0897
 1054TIP3    H124577   0.174   5.957   0.233 -0.3054  0.4192  0.1416
 1054TIP3    H224578   0.315   5.961   0.180 -0.4758 -1.2858 -0.4553
 1055TIP3   OH224579   6.530   6.649   5.413 -0.0303  0.1219  0.1211
 1055TIP3    H124580   6.465   6.612   5.473 -0.0356 -0.3280 -0.1576
 1055TIP3    H224581   6.550   6.577   5.353  0.3266  0.4254 -0.1226
 1056TIP3   OH224582   2.983   3.491   2.397  0.5189 -0.4339  0.3393
 1056TIP3    H124583   2.946   3.446   2.321  1.7728 -1.0020  0.0541
 1056TIP3    H224584   2.943   3.447   2.472 -1.2236  0.5591  0.0156
 1057TIP3   OH224585   3.338   2.320   3.985 -0.3765 -0.4817  0.2042
 1057TIP3    H124586   3.427   2.326   3.950  0.5827 -2.9715  2.1082
 1057TIP3    H224587   3.322   2.226   3.995 -2.0792  0.0251  2.7710
 1058TIP3   OH224588   3.970   6.451   2.340 -0.0667  0.3213  0.1069
 1058TIP3    H124589   3.923   6.409   2.268 -0.4049 -0.6773  0.9018
 1058TIP3    H224590   4.062   6.426   2.327  0.0237  0.9920 -0.5610
 1059TIP3   OH224591   1.664   3.130   4.117  0.0144  0.0726  0.1965
 1059TIP3    H124592   1.707   3.045   4.115  1.4647  0.7948 -0.3231
 1059TIP3    H224593   1.729   3.188   4.158 -0.8083  1.0053  0.1973
 1060TIP3   OH224594   1.986   5.041   5.474 -0.1760  0.3591 -0.1448
 1060TIP3    H124595   1.931   5.074   5.544  0.5143  2.3255 -0.5043
 1060TIP3    H224596   1.953   5.084   5.395 -1.1421 -2.0432 -1.1067
 1061TIP3   OH224597   1.069   3.960   4.912  0.4958 -0.0431  0.5438
 1061TIP3    H124598   1.011   4.025   4.871  0.5754  1.1889  2.3290
 1061TIP3    H224599   1.024   3.877   4.899  0.4012  0.3363 -1.8123
 1062TIP3   OH224600   6.380   5.116   2.387  0.3729 -0.2883  0.3731
 1062TIP3    H124601   6.443   5.048   2.409 -0.0418 -0.6004  0.6139
 1062TIP3    H224602   6.297   5.083   2.421 -0.3843 -1.0239 -2.0616
 1063TIP3   OH224603   0.902   4.602  16.189  0.0664  0.1604 -0.1467
 1063TIP3    H124604   0.826   4.652  16.158 -0.4469  0.3370  1.3886
 1063TIP3    H224605   0.909   4.530  16.126 -0.5901  0.8631 -1.0410
 1064TIP3   OH224606   0.761   1.497  12.967  0.0339 -0.3714 -0.0327
 1064TIP3    H124607   0.736   1.548  13.043  0.3740 -0.3637  0.0720
 1064TIP3    H224608   0.682   1.495  12.912  0.3154  1.0821 -0.4974
 1065TIP3   OH224609   6.723   2.824   5.475  0.5291  0.3862 -0.0373
 1065TIP3    H124610   6.779   2.789   5.544  1.7145  1.0413 -0.6515
 1065TIP3    H224611   6.677   2.896   5.516  0.3829  0.0554  0.3845
 1066TIP3   OH224612   4.034   3.844  14.752  0.0263  0.3357 -0.5940
 1066TIP3    H124613   3.970   3.779  14.723 -0.5623  0.0808  1.2102
 1066TIP3    H224614   4.101   3.793  14.797 -0.5200  0.9832  0.9710
 1067TIP3   OH224615   4.335   5.034   3.542 -0.1698 -0.2236  0.8321
 1067TIP3    H124616   4.303   5.008   3.628 -1.4667  0.8774  0.7124
 1067TIP3    H224617   4.257   5.030   3.486  0.5679 -0.4798 -0.1798
 1068TIP3   OH224618   5.524   1.977  11.669  0.0006  0.8314  0.3384
 1068TIP3    H124619   5.587   2.025  11.615  1.2296 -1.3671 -0.2603
 1068TIP3    H224620   5.573   1.951  11.747 -0.1026 -0.9904 -0.1776
 1069TIP3   OH224621   2.438   1.521   3.906 -0.5074  0.4372 -0.1163
 1069TIP3    H124622   2.368   1.511   3.841 -0.2409  1.2668 -0.5368
 1069TIP3    H224623   2.449   1.615   3.915 -1.4768  0.3775  2.1454
 1070TIP3   OH224624   2.951   0.918  11.412 -0.1444  0.1206  0.2153
 1070TIP3    H124625   2.980   0.991  11.357 -2.8897  0.6520 -0.6180
 1070TIP3    H224626   3.032   0.874  11.438  1.3662  1.1148 -2.5295
 1071TIP3   OH224627   6.316   6.035   4.084  0.5567  0.4403 -0.1433
 1071TIP3    H124628   6.390   6.042   4.145  0.7932  1.2495 -0.5161
 1071TIP3    H224629   6.241   6.065   4.134  0.3151 -1.2529  0.5249
 1072TIP3   OH224630   0.434   0.882  13.627  0.3606 -0.4166 -0.3305
 1072TIP3    H124631   0.398   0.823  13.561  0.6136 -0.0401 -0.8053
 1072TIP3    H224632   0.516   0.912  13.590  0.3284  0.0764 -0.0001
 1073TIP3   OH224633   4.252   1.265  14.119 -0.5427 -0.8638  0.1644
 1073TIP3    H124634   4.198   1.275  14.041 -0.1742 -1.3759 -0.1583
 1073TIP3    H224635   4.250   1.171  14.137  0.9968 -1.0108 -0.3928
 1074TIP3   OH224636   1.375   2.669   0.481 -0.5370  0.3243 -0.2170
 1074TIP3    H124637   1.362   2.581   0.446  0.4575  1.0143 -2.4193
 1074TIP3    H224638   1.329   2.726   0.420 -2.7432  1.2278  2.2056
 1075TIP3   OH224639   2.056   5.853   3.544  0.7725  0.0305  0.2381
 1075TIP3    H124640   2.137   5.864   3.594  1.4932  0.3803 -0.9861
 1075TIP3    H224641   2.085   5.825   3.457 -0.1933  3.6762 -1.3312
 1076TIP3   OH224642   4.054   2.115   5.971  0.5096  0.1461 -0.5086
 1076TIP3    H124643   4.010   2.136   6.054 -1.3691  0.6524 -1.5883
 1076TIP3    H224644   3.998   2.048   5.932  2.2234 -1.2035 -0.6793
 1077TIP3   OH224645   1.131   6.122   1.893 -0.2170  0.2961 -0.2309
 1077TIP3    H124646   1.047   6.078   1.908 -0.0914  1.0188  2.7748
 1077TIP3    H224647   1.194   6.071   1.943  0.3327  2.4501  1.3202
 1078TIP3   OH224648   5.198   6.608  10.228  0.6152 -0.4384 -0.0853
 1078TIP3    H124649   5.257   6.648  10.291  1.5086  1.2733 -1.9606
 1078TIP3    H224650   5.210   6.514  10.240 -0.3650 -0.1985  3.3044
 1079TIP3   OH224651   0.213   3.087   3.479 -0.0144 -0.7900  0.1931
 1079TIP3    H124652   0.142   3.128   3.430 -0.6104  1.2626  2.6672
 1079TIP3    H224653   0.169   3.035   3.546  0.7322  0.9113  2.0782
 1080TIP3   OH224654   3.337   3.766  13.730 -0.1158  0.0613 -0.2094
 1080TIP3    H124655   3.389   3.841  13.757 -1.3687  0.9277 -0.1791
 1080TIP3    H224656   3.248   3.787  13.757 -0.6151 -1.0914 -0.8994
 1081TIP3   OH224657   4.315   2.206   4.925  0.5083  0.1679  0.3640
 1081TIP3    H124658   4.242   2.264   4.948  0.7946  0.8083 -0.3233
 1081TIP3    H224659   4.305   2.131   4.983 -1.9420 -0.7320 -1.1005
 1082TIP3   OH224660   0.900   1.695  16.274 -0.2880  0.1279 -0.3779
 1082TIP3    H124661   0.931   1.696  16.365 -1.0040 -0.2825 -0.1307
 1082TIP3    H224662   0.879   1.604  16.257 -0.2629  0.2256 -0.9213
 1083TIP3   OH224663   1.113   2.579   6.048 -0.5451  0.6160 -0.2751
 1083TIP3    H124664   1.101   2.633   6.126  2.5851 -0.7215  1.1951
 1083TIP3    H224665   1.103   2.489   6.079 -0.0412  0.1081 -1.5453
 1084TIP3   OH224666   3.703   0.536   5.997  0.0689 -0.2909 -0.4650
 1084TIP3    H124667   3.698   0.471   6.067  0.0584 -0.1034 -0.2937
 1084TIP3    H224668   3.793   0.566   5.998 -0.0079 -0.0678 -0.3370
 1085TIP3   OH224669   4.295   5.449   2.288 -0.1258  0.6760 -0.3349
 1085TIP3    H124670   4.251   5.523   2.246 -1.6738  0.2682  0.5311
 1085TIP3    H224671   4.237   5.424   2.360  1.2971 -0.1944  0.5423
 1086TIP3   OH224672   6.659   1.569  14.296 -0.4941  0.1027 -0.2723
 1086TIP3    H124673   6.615   1.503  14.242  0.8278 -0.7465 -0.3224
 1086TIP3    H224674   6.748   1.573  14.262 -0.2322  1.0568  0.5131
 1087TIP3   OH224675   0.647   2.570  11.985  0.0123  0.0803  0.0666
 1087TIP3    H124676   0.588   2.569  11.910 -0.0087 -0.3236  0.0862
 1087TIP3    H224677   0.593   2.540  12.058  0.3256 -0.6020  0.0212
 1088TIP3   OH224678   3.821   5.018  10.899 -0.0356 -0.4282  0.1392
 1088TIP3    H124679   3.743   5.073  10.889 -1.0679 -1.6960  0.9853
 1088TIP3    H224680   3.867   5.027  10.816 -1.3186  0.0145 -0.5450
 1089TIP3   OH224681   1.659   1.824  10.592 -0.6287  0.3206 -0.2318
 1089TIP3    H124682   1.607   1.753  10.553  1.6001 -0.6522 -1.6126
 1089TIP3    H224683   1.663   1.891  10.524  0.3452  0.1370 -0.3751
 1090TIP3   OH224684   5.777   4.171   2.647  0.1221 -0.2835  0.2725
 1090TIP3    H124685   5.796   4.200   2.736 -1.9671  0.4627  0.5237
 1090TIP3    H224686   5.687   4.202   2.631 -0.3045 -2.2226 -1.3180
 1091TIP3   OH224687   6.227   5.379   3.211 -0.4681 -0.2811  0.0002
 1091TIP3    H124688   6.175   5.313   3.256 -1.0741  0.0251 -0.2403
 1091TIP3    H224689   6.275   5.330   3.144  1.4103 -0.9277  1.7816
 1092TIP3   OH224690   5.197   0.192   4.317 -0.8197 -0.7987 -0.2990
 1092TIP3    H124691   5.140   0.207   4.241 -0.6658 -0.8154 -0.4192
 1092TIP3    H224692   5.137   0.174   4.389 -1.0360  1.1109  0.0148
 1093TIP3   OH224693   4.580   3.880  11.197 -0.3357  0.7752 -0.0204
 1093TIP3    H124694   4.576   3.804  11.138  0.8592  1.9134 -1.6142
 1093TIP3    H224695   4.519   3.943  11.158 -0.1422  1.2349  0.4142
 1094TIP3   OH224696   0.061   4.362  14.474 -0.0097 -0.2324 -0.0680
 1094TIP3    H124697   0.085   4.355  14.382 -0.9659  0.3739 -0.3728
 1094TIP3    H224698  -0.014   4.303  14.484  0.9344 -1.3452  0.6425
 1095TIP3   OH224699   5.045   6.391   4.146 -0.3029  0.4177  0.4169
 1095TIP3    H124700   5.119   6.337   4.120 -0.7072 -1.4414  2.9651
 1095TIP3    H224701   5.074   6.481   4.131  1.5354 -0.3656 -0.9184
 1096TIP3   OH224702   1.875   0.152  16.313 -0.0158  0.1888  0.2362
 1096TIP3    H124703   1.846   0.117  16.228 -0.3284 -0.3552  0.5660
 1096TIP3    H224704   1.929   0.228  16.290  0.5848 -0.4438 -0.4759
 1097TIP3   OH224705   3.191   5.451   4.749  0.1992 -0.1049  0.5560
 1097TIP3    H124706   3.222   5.542   4.752  1.5358 -0.4278 -1.7999
 1097TIP3    H224707   3.100   5.457   4.722 -1.1139  0.7297  4.8559
 1098TIP3   OH224708   2.758   1.248  16.314 -0.3532 -0.0438 -0.1317
 1098TIP3    H124709   2.749   1.254  16.219 -0.7795 -1.1490 -0.1636
 1098TIP3    H224710   2.811   1.324  16.337 -0.0487  0.1084 -1.2804
 1099TIP3   OH224711   4.023   5.877   4.516  0.5467 -0.3267 -0.1074
 1099TIP3    H124712   4.112   5.911   4.519  1.0179 -1.4672 -0.6109
 1099TIP3    H224713   3.967   5.954   4.520  1.5536  0.3818  0.5090
 1100TIP3   OH224714   0.990   1.383   5.826  0.3747  0.0857 -0.7179
 1100TIP3    H124715   0.949   1.346   5.905  0.4548 -0.2975 -0.8556
 1100TIP3    H224716   1.026   1.307   5.780  2.6062  0.5661  0.1756
 1101TIP3   OH224717   4.940   4.563  16.663  0.0500  0.1796 -0.1949
 1101TIP3    H124718   4.891   4.645  16.662  1.4934  1.0486 -1.4378
 1101TIP3    H224719   4.922   4.525  16.749  0.7271  2.6449  1.0868
 1102TIP3   OH224720   4.288   1.651   3.101  0.0550  0.1029 -0.3267
 1102TIP3    H124721   4.294   1.700   3.020  0.5960  0.5615 -0.0119
 1102TIP3    H224722   4.371   1.603   3.106 -0.4084 -0.7439 -0.5654
 1103TIP3   OH224723   5.706   0.241   5.869  0.0210 -0.1065 -0.1507
 1103TIP3    H124724   5.698   0.262   5.962  0.0173 -1.5499  0.1943
 1103TIP3    H224725   5.782   0.182   5.865 -0.0821 -0.1830 -1.0371
 1104TIP3   OH224726   1.366   0.265   3.536  0.6857  0.3989 -0.1114
 1104TIP3    H124727   1.435   0.231   3.592  0.9131  1.6212  0.3664
 1104TIP3    H224728   1.401   0.257   3.447  1.4278  0.9555  0.1261
 1105TIP3   OH224729   4.856   2.376   3.983 -0.3342  0.3188 -0.4275
 1105TIP3    H124730   4.800   2.311   3.939 -0.9786 -0.7926  1.9452
 1105TIP3    H224731   4.944   2.356   3.951 -0.9127  0.2206 -2.0069
 1106TIP3   OH224732   3.793   3.977   5.723 -0.5987  0.9147  0.1810
 1106TIP3    H124733   3.771   4.032   5.798 -1.5517  1.1182 -0.2316
 1106TIP3    H224734   3.741   4.014   5.651  1.4085  1.6500 -0.9480
 1107TIP3   OH224735   4.962   5.402   4.056 -0.4122  0.4127 -0.3320
 1107TIP3    H124736   4.951   5.435   4.146 -0.0760  1.3756 -0.6441
 1107TIP3    H224737   5.047   5.358   4.058 -0.5679  0.1175 -0.0830
 1108TIP3   OH224738   2.020   6.716   4.062  0.4909 -0.6079  0.5464
 1108TIP3    H124739   2.080   6.774   4.108  1.6595 -2.0822  0.9113
 1108TIP3    H224740   2.031   6.737   3.970 -0.2399  0.8250  0.7726
 1109TIP3   OH224741   6.343   6.169  11.692  0.7369  0.3116 -0.2777
 1109TIP3    H124742   6.398   6.113  11.746  0.3620  0.1712 -0.0405
 1109TIP3    H224743   6.405   6.215  11.634  0.9187 -1.6577 -1.6966
 1110TIP3   OH224744   0.481   4.812   3.622  0.5090 -0.1985 -0.0819
 1110TIP3    H124745   0.541   4.880   3.590 -0.1436  0.5680  0.3196
 1110TIP3    H224746   0.408   4.861   3.661 -0.8591 -1.1238 -1.4635
 1111TIP3   OH224747   2.848   4.687  12.186  0.2902 -0.1535  0.3116
 1111TIP3    H124748   2.910   4.759  12.172  0.5023 -0.0504  1.7091
 1111TIP3    H224749   2.788   4.693  12.111  0.3328  1.4339  0.3758
 1112TIP3   OH224750   2.065   0.737   2.092  0.3430 -0.1643 -0.2363
 1112TIP3    H124751   2.153   0.709   2.065  0.2481 -0.7655  0.0785
 1112TIP3    H224752   2.061   0.830   2.067  0.0578 -0.8217 -2.7885
 1113TIP3   OH224753   1.134   0.469  14.421 -0.5215 -0.2217  0.5676
 1113TIP3    H124754   1.209   0.450  14.478 -1.5405 -0.6096  1.7831
 1113TIP3    H224755   1.136   0.399  14.355  0.0166 -0.3956  0.7613
 1114TIP3   OH224756   2.316   0.782  14.533 -0.6320  0.5874 -0.5492
 1114TIP3    H124757   2.284   0.698  14.500  0.3000  0.5293 -1.3528
 1114TIP3    H224758   2.405   0.788  14.497  0.3794  0.5817  1.8394
 1115TIP3   OH224759   5.517   4.339   2.645  0.1071 -0.0377  0.2010
 1115TIP3    H124760   5.452   4.300   2.586  0.9941  0.9372 -1.4506
 1115TIP3    H224761   5.488   4.313   2.732 -1.0585 -1.7764 -0.6689
 1116TIP3   OH224762   3.782   5.016  17.208 -0.0419 -0.4366  0.3973
 1116TIP3    H124763   3.768   4.925  17.182 -1.0364 -0.0968 -0.2802
 1116TIP3    H224764   3.700   5.060  17.188  0.7881  0.8428 -0.3049
 1117TIP3   OH224765   5.516   6.066   5.272  0.5786  0.3616 -0.7290
 1117TIP3    H124766   5.470   6.037   5.193 -0.0965  0.3844 -0.3506
 1117TIP3    H224767   5.454   6.126   5.315 -0.4022 -2.1676  1.4940
 1118TIP3   OH224768   2.878   2.990   0.261 -0.4546 -0.0408 -0.3114
 1118TIP3    H124769   2.786   2.995   0.233 -0.9037 -1.6302  0.7440
 1118TIP3    H224770   2.891   2.897   0.281  0.8175  0.4661  1.3517
 1119TIP3   OH224771   3.839   0.430  12.921  0.6822 -0.4017 -0.1726
 1119TIP3    H124772   3.851   0.404  13.012 -1.3383 -0.0905  0.2030
 1119TIP3    H224773   3.840   0.526  12.923 -0.5402 -0.3825 -0.3077
 1120TIP3   OH224774   6.496   4.628   0.105 -0.1828  0.5762 -0.5425
 1120TIP3    H124775   6.431   4.558   0.118  1.2942 -0.8453 -0.7071
 1120TIP3    H224776   6.539   4.636   0.190  0.4309  0.4826 -0.8422
 1121TIP3   OH224777   5.287   3.713   3.597  0.1809 -0.8728 -0.0243
 1121TIP3    H124778   5.248   3.644   3.652  0.9147 -0.9955  0.3507
 1121TIP3    H224779   5.318   3.666   3.520 -1.4126 -0.6106 -0.8559
 1122TIP3   OH224780   5.730   4.269   3.390 -0.3953  0.3268  0.1196
 1122TIP3    H124781   5.673   4.328   3.340 -0.0901 -0.3234 -1.0059
 1122TIP3    H224782   5.671   4.199   3.420 -0.6367  0.8694  0.9527
 1123TIP3   OH224783   5.737   6.587  13.026 -0.3782 -0.4362 -0.4827
 1123TIP3    H124784   5.777   6.545  13.102  0.5922  0.7937 -0.3129
 1123TIP3    H224785   5.801   6.576  12.956 -1.4629 -1.9635 -1.2551
 1124TIP3   OH224786   4.625   0.565  16.586  0.1065  0.0075 -0.1111
 1124TIP3    H124787   4.536   0.574  16.618 -0.5261 -3.0579 -0.8826
 1124TIP3    H224788   4.661   0.490  16.633  1.3949 -0.4215 -1.7289
 1125TIP3   OH224789   5.660   2.093   5.532 -0.2710  0.7534  0.2999
 1125TIP3    H124790   5.730   2.076   5.596 -0.9876 -0.5789  0.7682
 1125TIP3    H224791   5.589   2.129   5.585 -0.3330  1.0537  0.0081
 1126TIP3   OH224792   1.257   5.110   0.606 -0.2442 -0.0998  0.7129
 1126TIP3    H124793   1.202   5.038   0.576 -2.6283  1.9690 -0.0677
 1126TIP3    H224794   1.324   5.120   0.538  0.1576 -1.5863  0.8731
 1127TIP3   OH224795   4.771   2.715  11.698 -0.1362 -0.7723 -0.0410
 1127TIP3    H124796   4.739   2.692  11.785 -0.9451 -2.3967 -0.7430
 1127TIP3    H224797   4.864   2.735  11.711 -1.0933  3.0151  1.8414
 1128TIP3   OH224798   4.236   2.470  14.687 -0.3753  0.7933  0.0741
 1128TIP3    H124799   4.201   2.397  14.636  2.3676 -0.4996 -0.0618
 1128TIP3    H224800   4.228   2.546  14.628 -0.8417  0.0887 -0.7871
 1129TIP3   OH224801   3.326   0.268   0.880 -0.2556 -0.2094 -0.0615
 1129TIP3    H124802   3.319   0.361   0.900  2.3668  0.1043 -0.4423
 1129TIP3    H224803   3.272   0.256   0.802 -0.6736  0.9540  0.0420
 1130TIP3   OH224804   1.860   3.995   2.311 -0.1371  0.6619 -0.1084
 1130TIP3    H124805   1.949   4.002   2.277 -0.4485 -0.3923 -1.1819
 1130TIP3    H224806   1.816   3.934   2.251 -2.0226  2.3768 -0.5394
 1131TIP3   OH224807   0.670   3.716   2.833  0.6785 -0.0737  0.3211
 1131TIP3    H124808   0.594   3.741   2.885 -0.9040 -3.1699 -0.3927
 1131TIP3    H224809   0.670   3.778   2.759  0.5063  1.6753  1.7514
 1132TIP3   OH224810   0.564   2.282   3.027  0.3576  0.7550 -0.7192
 1132TIP3    H124811   0.594   2.200   3.066  1.4902  1.8306  0.7147
 1132TIP3    H224812   0.564   2.265   2.933  0.0615 -1.0631 -0.4052
 1133TIP3   OH224813   4.074   3.670   0.481  0.0779 -0.0644  0.0835
 1133TIP3    H124814   3.987   3.655   0.517  0.4239  0.4479  1.1623
 1133TIP3    H224815   4.126   3.700   0.556  1.7487 -2.4402 -0.0399
 1134TIP3   OH224816   4.064   0.121  15.901  0.0365 -0.3228 -0.3580
 1134TIP3    H124817   4.036   0.084  15.985  0.8257  1.4323  0.7178
 1134TIP3    H224818   3.982   0.150  15.860 -0.2403  0.1091  0.4709
 1135TIP3   OH224819   3.766   2.050   4.890 -0.1177  1.0236 -0.3849
 1135TIP3    H124820   3.804   1.962   4.893 -0.3752  0.9539  0.9495
 1135TIP3    H224821   3.834   2.105   4.851 -0.1020  0.1664 -1.5939
 1136TIP3   OH224822   6.269   6.207   1.697 -0.1189 -0.0525  0.3497
 1136TIP3    H124823   6.363   6.194   1.705 -0.2303 -1.2922 -0.1630
 1136TIP3    H224824   6.260   6.283   1.640  0.5723  0.6379  1.1493
 1137TIP3   OH224825   3.179   3.629  12.937  0.2321 -0.0113  0.9611
 1137TIP3    H124826   3.200   3.720  12.913  1.2323 -0.2118  1.0423
 1137TIP3    H224827   3.248   3.604  12.998 -1.6926  0.1386  3.2749
 1138TIP3   OH224828   4.861   6.430  16.945  0.1614 -0.3831 -0.0280
 1138TIP3    H124829   4.770   6.451  16.926  0.2506  0.2677  0.2656
 1138TIP3    H224830   4.911   6.494  16.895  0.5453 -2.5218 -2.5289
 1139TIP3   OH224831   1.945   1.616   2.202 -0.1968  0.2661  0.1460
 1139TIP3    H124832   1.881   1.635   2.134 -0.0138 -1.2481 -0.4757
 1139TIP3    H224833   2.030   1.640   2.164  0.0331 -1.7073 -0.6356
 1140TIP3   OH224834   2.862   5.130  16.770 -0.0783 -0.3999 -0.5784
 1140TIP3    H124835   2.857   5.201  16.834 -0.7552  0.6128 -1.7295
 1140TIP3    H224836   2.935   5.155  16.713  0.4172 -1.2090 -0.2992
 1141TIP3   OH224837   3.086   4.320   4.038  0.2742  0.3660  0.3363
 1141TIP3    H124838   3.128   4.235   4.051  1.6768  0.6935 -1.7119
 1141TIP3    H224839   2.993   4.301   4.037  0.6327 -1.4627 -1.8071
 1142TIP3   OH224840   6.397   0.957  12.950 -0.2242 -0.2875  0.2305
 1142TIP3    H124841   6.357   0.909  12.877 -1.2194  0.1346  0.4930
 1142TIP3    H224842   6.327   0.965  13.014  0.6786 -0.7487  1.2837
 1143TIP3   OH224843   2.131   1.456   0.759 -0.2706  0.2115 -0.2406
 1143TIP3    H124844   2.130   1.361   0.768 -2.8180  0.3007  0.6951
 1143TIP3    H224845   2.096   1.488   0.841 -0.2336  1.9548 -0.8859
 1144TIP3   OH224846   6.708   3.091  13.357  0.2511 -0.4267 -0.0192
 1144TIP3    H124847   6.669   3.003  13.355 -0.0210 -0.3010 -3.0237
 1144TIP3    H224848   6.704   3.121  13.266 -1.2573  3.4104  1.1825
 1145TIP3   OH224849   5.579   1.147  11.387  0.2326 -0.1054  0.0159
 1145TIP3    H124850   5.548   1.232  11.417 -0.9409  0.3303 -2.3510
 1145TIP3    H224851   5.500   1.092  11.385  1.0286 -1.4147  1.8928
 1146TIP3   OH224852   4.447   2.303  17.159 -0.3901 -0.1169 -0.3766
 1146TIP3    H124853   4.353   2.288  17.166 -0.8474  2.3657 -0.5066
 1146TIP3    H224854   4.479   2.233  17.102 -1.9629 -1.6092  0.5275
 1147TIP3   OH224855   1.890   0.475  15.898  0.8443 -0.3966 -1.1349
 1147TIP3    H124856   1.961   0.443  15.842 -0.7053 -1.6095 -2.4468
 1147TIP3    H224857   1.822   0.503  15.837  0.3308  1.1181  0.1050
 1148TIP3   OH224858   2.243   3.658   3.360 -0.3792  0.1731 -0.2125
 1148TIP3    H124859   2.331   3.679   3.327 -0.2180  1.8601  1.1869
 1148TIP3    H224860   2.247   3.678   3.453 -2.6527  1.5980 -0.3817
 1149TIP3   OH224861   5.578   6.311   2.072 -0.3083  0.2080  0.3638
 1149TIP3    H124862   5.491   6.306   2.112  0.0380 -0.1378  1.0918
 1149TIP3    H224863   5.635   6.264   2.133  0.4814  0.8828  0.1515
 1150TIP3   OH224864   0.962   4.908  13.621  0.1924  0.2915 -0.1431
 1150TIP3    H124865   0.887   4.909  13.680  1.0868  1.7855  1.0429
 1150TIP3    H224866   1.031   4.954  13.670  1.5760 -0.2063 -1.5709
 1151TIP3   OH224867   4.009   2.527  13.652  0.0802 -0.1199 -0.0109
 1151TIP3    H124868   4.062   2.487  13.721  0.1990 -1.5821 -0.9157
 1151TIP3    H224869   3.965   2.601  13.694  0.1782 -0.9690  1.6060
 1152TIP3   OH224870   1.545   2.201   2.971 -0.1317  0.6387 -0.3423
 1152TIP3    H124871   1.522   2.108   2.966  1.8822  0.0815  0.3843
 1152TIP3    H224872   1.588   2.220   2.887  2.3006  0.0857  0.7387
 1153TIP3   OH224873   3.510   2.650  13.937  0.1681 -0.2749 -0.7758
 1153TIP3    H124874   3.547   2.653  14.025  2.0299 -1.1341 -1.5011
 1153TIP3    H224875   3.517   2.741  13.905  0.7581 -0.2324 -0.5340
 1154TIP3   OH224876   0.271   3.624   4.332 -0.5002  0.1093  0.0068
 1154TIP3    H124877   0.351   3.604   4.380 -0.9691  0.5672  1.0037
 1154TIP3    H224878   0.242   3.709   4.367 -0.6178  0.6590 -1.4000
 1155TIP3   OH224879   2.755   0.371   1.303 -0.3502 -0.4435  0.0152
 1155TIP3    H124880   2.825   0.332   1.356  0.0177  1.6986  1.1403
 1155TIP3    H224881   2.800   0.436   1.249 -1.2529 -0.2157 -0.4627
 1156TIP3   OH224882   2.430   4.540   5.253  0.7493 -0.2200  0.3892
 1156TIP3    H124883   2.503   4.546   5.191 -0.0888 -2.7409 -0.8934
 1156TIP3    H224884   2.352   4.543   5.198 -0.0829  0.5674  1.5960
 1157TIP3   OH224885   3.826   4.851   5.241  0.4812  0.4585 -0.0896
 1157TIP3    H124886   3.790   4.928   5.285  2.9553  3.4108 -2.9891
 1157TIP3    H224887   3.913   4.840   5.280  0.0826 -1.0126  0.4246
 1158TIP3   OH224888   4.597   2.402   2.373 -0.6500  0.4419 -0.1899
 1158TIP3    H124889   4.578   2.324   2.320 -0.4706  0.4755 -0.3049
 1158TIP3    H224890   4.587   2.373   2.464 -0.4505  0.2484 -0.2290
 1159TIP3   OH224891   4.620   4.809   6.463 -0.3466  0.4114 -0.2387
 1159TIP3    H124892   4.691   4.760   6.505  0.0179  1.6844  0.6519
 1159TIP3    H224893   4.606   4.763   6.380  0.2707 -0.9455  0.3920
 1160TIP3   OH224894   6.224   2.200   1.597 -0.1188  0.7395 -0.1364
 1160TIP3    H124895   6.221   2.193   1.693 -0.4767  0.4359 -0.1684
 1160TIP3    H224896   6.224   2.295   1.581  1.9714  0.8204  0.2098
 1161TIP3   OH224897   6.123   4.885   5.004 -0.2505  0.4603  0.3638
 1161TIP3    H124898   6.096   4.926   5.086  0.1217  2.1973 -0.3580
 1161TIP3    H224899   6.106   4.791   5.017  0.0611  0.6783  2.5055
 1162TIP3   OH224900   0.291   0.074  13.438  0.3550  0.3982 -0.2352
 1162TIP3    H124901   0.343   0.155  13.432 -0.0240  0.7601  1.3081
 1162TIP3    H224902   0.203   0.104  13.461 -0.0660 -0.3731 -0.8313
 1163TIP3   OH224903   1.568   1.597  14.155  0.1747 -0.1719 -0.0027
 1163TIP3    H124904   1.531   1.684  14.168  0.9562  0.2476 -0.5971
 1163TIP3    H224905   1.495   1.545  14.119 -0.9056 -0.3408  2.3628
 1164TIP3   OH224906   6.461   0.167   0.399  0.4801 -0.0275 -0.3515
 1164TIP3    H124907   6.421   0.238   0.449  0.9092  0.0168 -0.0709
 1164TIP3    H224908   6.422   0.174   0.312 -2.2768 -1.7159  0.6547
 1165TIP3   OH224909   5.061   0.398   4.869 -0.2124  0.3467 -0.5078
 1165TIP3    H124910   5.139   0.418   4.922  0.8781 -1.1680 -1.5153
 1165TIP3    H224911   4.994   0.373   4.933  0.0016  2.0172  0.3947
 1166TIP3   OH224912   3.482   2.547   0.673 -0.6965 -0.1113  0.4158
 1166TIP3    H124913   3.423   2.576   0.743  1.3093 -1.5488  2.7587
 1166TIP3    H224914   3.528   2.627   0.646 -1.8311  0.5417  0.3685
 1167TIP3   OH224915   1.879   0.880  12.548 -0.3864 -0.3709 -0.1928
 1167TIP3    H124916   1.891   0.787  12.567  0.4593 -0.7307 -2.3251
 1167TIP3    H224917   1.796   0.884  12.500 -1.8245  0.3462  2.2908
 1168TIP3   OH224918   0.049   3.294   6.403 -0.2620  0.3140 -0.3019
 1168TIP3    H124919   0.069   3.232   6.474 -0.4425  0.3879 -0.1873
 1168TIP3    H224920   0.135   3.330   6.379 -0.3043  0.9790  0.5085
 1169TIP3   OH224921   6.729   1.437   1.365 -0.0807 -0.1550 -0.2192
 1169TIP3    H124922   6.724   1.391   1.281 -2.0281 -0.3434 -0.0386
 1169TIP3    H224923   6.676   1.516   1.352 -1.1733 -0.6490  1.0935
 1170TIP3   OH224924   5.502   2.641  13.537  0.1690 -0.0721 -0.3733
 1170TIP3    H124925   5.471   2.713  13.482 -0.0235 -0.0455 -0.2291
 1170TIP3    H224926   5.558   2.683  13.603 -0.5388  0.0306  0.1619
 1171TIP3   OH224927   4.017   6.697   3.737 -0.0460 -0.5994  0.1851
 1171TIP3    H124928   4.095   6.650   3.768  0.1554  0.1890  0.9055
 1171TIP3    H224929   4.052   6.762   3.675 -0.1007 -0.1021  0.6716
 1172TIP3   OH224930   6.495   5.212  11.171 -0.2804  0.3238 -0.0088
 1172TIP3    H124931   6.587   5.237  11.163 -0.0392 -0.8469 -0.9712
 1172TIP3    H224932   6.460   5.270  11.239  0.8340  1.6935 -0.5782
 1173TIP3   OH224933   2.789   4.191   5.921 -0.5407 -0.4826  0.3219
 1173TIP3    H124934   2.777   4.283   5.944  1.8699  0.3612 -1.6652
 1173TIP3    H224935   2.701   4.153   5.929 -1.7324  2.1771  0.2787
 1174TIP3   OH224936   6.252   2.781   3.713  0.3790 -0.6375  0.2722
 1174TIP3    H124937   6.287   2.844   3.775 -2.9523  1.3479  0.2161
 1174TIP3    H224938   6.223   2.834   3.639 -0.4946 -2.4587 -0.7206
 1175TIP3   OH224939   5.775   5.993   5.317 -0.2135 -0.1061 -0.2546
 1175TIP3    H124940   5.828   6.056   5.268  0.9708  0.3043  1.5351
 1175TIP3    H224941   5.685   6.022   5.303  0.3195  2.0210  0.5651
 1176TIP3   OH224942   0.923   5.365  15.764 -0.0242  0.2803 -0.1420
 1176TIP3    H124943   0.991   5.309  15.725  1.7399  1.6467  0.8628
 1176TIP3    H224944   0.927   5.446  15.713 -1.6518  0.0011 -0.7377
 1177TIP3   OH224945   6.470   3.188   3.758  0.2573 -0.0597 -0.2192
 1177TIP3    H124946   6.441   3.134   3.831  0.1724  1.6854  1.0910
 1177TIP3    H224947   6.410   3.263   3.758 -0.9739 -0.9662 -3.3233
 1178TIP3   OH224948   3.777   5.019  13.856 -0.2919  0.0406  0.1210
 1178TIP3    H124949   3.782   5.113  13.840 -1.2572  0.3075  1.2522
 1178TIP3    H224950   3.795   4.979  13.771  1.8045  1.1937 -0.0148
 1179TIP3   OH224951   5.367   2.313   1.449 -0.1846 -0.2583  0.0650
 1179TIP3    H124952   5.282   2.271   1.442 -1.0947  1.6532 -0.5242
 1179TIP3    H224953   5.381   2.356   1.365 -0.3255  2.5351  1.3959
 1180TIP3   OH224954   0.232   1.709   0.733  0.4721  0.2681 -0.0844
 1180TIP3    H124955   0.205   1.656   0.807  0.1140 -0.0804 -0.4639
 1180TIP3    H224956   0.283   1.650   0.678  0.2623  0.3738 -0.3940
 1181TIP3   OH224957   0.526   2.249  12.877 -0.1251  0.0073  0.0292
 1181TIP3    H124958   0.600   2.202  12.839  0.0679 -0.2437  0.7211
 1181TIP3    H224959   0.522   2.330  12.826 -1.5641 -1.5137 -2.3448
 1182TIP3   OH224960   4.607   3.631  14.177  0.3781  0.6400  0.3149
 1182TIP3    H124961   4.622   3.686  14.100  0.7129 -1.0551 -0.8724
 1182TIP3    H224962   4.544   3.565  14.147  0.3308  0.1008  1.5679
 1183TIP3   OH224963   5.004   6.645  13.200  0.1651  0.1723  0.0035
 1183TIP3    H124964   4.994   6.575  13.135 -0.1357  0.8084 -0.6421
 1183TIP3    H224965   5.087   6.686  13.179  1.7504 -1.8018  2.1683
 1184TIP3   OH224966   3.224   1.985   0.709  0.1893  0.2038  0.5871
 1184TIP3    H124967   3.170   1.951   0.638  0.3868 -0.5595  0.7967
 1184TIP3    H224968   3.312   1.993   0.672  0.2413  0.0355  0.6737
 1185TIP3   OH224969   3.085   4.282  15.514 -0.4079 -0.1061 -0.2114
 1185TIP3    H124970   3.139   4.323  15.582 -0.6250  0.0989 -0.1595
 1185TIP3    H224971   3.003   4.332  15.517 -0.0051  0.6358 -1.3894
 1186TIP3   OH224972   6.672   3.999   1.582 -0.4189  0.1387  0.1912
 1186TIP3    H124973   6.648   4.057   1.654  1.1618 -0.4432  1.2086
 1186TIP3    H224974   6.696   4.059   1.511  0.6373  0.7444  1.0383
 1187TIP3   OH224975   2.015   1.868  16.051  0.0158 -0.3016  0.5909
 1187TIP3    H124976   2.091   1.824  16.012  0.2460 -0.1101  0.8185
 1187TIP3    H224977   1.940   1.817  16.022  0.5473 -3.1346  3.9082
 1188TIP3   OH224978   1.325   4.473  13.365 -0.5165  0.3947 -0.2983
 1188TIP3    H124979   1.395   4.523  13.408 -1.9606  1.3590  0.9833
 1188TIP3    H224980   1.286   4.535  13.304 -0.3570 -0.0864 -0.8847
 1189TIP3   OH224981   6.571   5.572   5.462 -0.0605  0.0153  0.1030
 1189TIP3    H124982   6.570   5.662   5.494 -0.9349  0.1198 -0.2027
 1189TIP3    H224983   6.598   5.580   5.370 -0.5478  0.0076 -0.0414
 1190TIP3   OH224984   0.710   1.473  11.600 -0.3125  0.4149  0.5295
 1190TIP3    H124985   0.765   1.550  11.586 -0.1449  0.6435  2.3715
 1190TIP3    H224986   0.697   1.436  11.512  0.8324  1.6871 -0.1819
 1191TIP3   OH224987   3.064   5.336  15.657 -0.3564  0.2268 -0.3789
 1191TIP3    H124988   3.093   5.295  15.739 -2.2593  0.7641  0.5972
 1191TIP3    H224989   2.970   5.348  15.668 -0.1714  3.1055 -1.4345
 1192TIP3   OH224990   4.726   3.026  12.181 -0.0915  0.0453 -0.1710
 1192TIP3    H124991   4.749   3.064  12.266 -2.4816 -0.4670  0.7418
 1192TIP3    H224992   4.753   3.092  12.118  0.7228  0.9104  1.0403
 1193TIP3   OH224993   4.084   2.650   2.802 -0.0963  0.2350  0.0025
 1193TIP3    H124994   4.001   2.698   2.807 -2.3988 -3.5972  0.7172
 1193TIP3    H224995   4.108   2.654   2.709 -0.6861  2.0164 -0.0932
 1194TIP3   OH224996   6.773   3.567   3.750 -0.2851 -0.1334  0.8825
 1194TIP3    H124997   6.760   3.662   3.755  0.0600 -0.0992  1.1419
 1194TIP3    H224998   6.739   3.543   3.664 -0.0583  0.2790  0.6758
 1195TIP3   OH224999   0.807   1.954   2.802  0.3015  0.2955  0.6950
 1195TIP3    H125000   0.749   1.982   2.730  3.6061  0.1901 -2.1387
 1195TIP3    H225001   0.778   1.866   2.822 -0.7404  0.3441 -0.4907
 1196TIP3   OH225002   1.232   1.087  11.567  0.3060  0.3269 -0.0090
 1196TIP3    H125003   1.247   1.138  11.647 -0.3175  2.2409 -1.0902
 1196TIP3    H225004   1.266   1.000  11.588 -0.9283  0.4564  2.7557
 1197TIP3   OH225005   1.574   3.008   5.778 -0.2086 -0.4166  0.3085
 1197TIP3    H125006   1.556   3.069   5.849  0.5925 -1.8784  1.8060
 1197TIP3    H225007   1.521   2.931   5.798 -0.3138 -0.6730 -0.9097
 1198TIP3   OH225008   2.763   1.987  15.704 -0.6163 -0.0155  0.0500
 1198TIP3    H125009   2.744   1.931  15.779 -0.7544 -1.1330 -0.8142
 1198TIP3    H225010   2.842   2.035  15.730 -1.1343  0.2073  1.2311
 1199TIP3   OH225011   2.071   2.710   5.778  0.4725  0.1243  0.1738
 1199TIP3    H125012   2.030   2.624   5.781 -0.4983  0.5440 -0.7705
 1199TIP3    H225013   2.028   2.760   5.847 -1.2731  0.8315 -1.3724
 1200TIP3   OH225014   3.034   5.406   0.182  0.0389  0.2813  0.2227
 1200TIP3    H125015   2.950   5.377   0.217  0.0098  1.0363  0.7700
 1200TIP3    H225016   3.094   5.333   0.200 -0.3716 -0.0460  0.2791
 1201TIP3   OH225017   4.418   2.229   0.482 -0.2897 -0.3498 -0.0321
 1201TIP3    H125018   4.511   2.252   0.488 -0.2384 -0.2250 -1.1237
 1201TIP3    H225019   4.390   2.219   0.573  0.7960 -0.4145  0.3102
 1202TIP3   OH225020   1.575   4.451  16.209 -0.8592 -0.0839  0.2350
 1202TIP3    H125021   1.554   4.383  16.145 -0.8018  0.0682  0.0522
 1202TIP3    H225022   1.668   4.441  16.225 -0.8053  0.0895  0.0432
 1203TIP3   OH225023   2.846   2.626   1.687  0.2238 -0.0393 -0.0262
 1203TIP3    H125024   2.809   2.615   1.600 -0.6432  0.9819  0.2045
 1203TIP3    H225025   2.793   2.570   1.744 -0.8071  1.1769  0.2487
 1204TIP3   OH225026   5.107   2.504  11.531 -0.0727  0.0716  0.5658
 1204TIP3    H125027   5.057   2.547  11.460  1.5435  1.4407  0.2273
 1204TIP3    H225028   5.122   2.415  11.499 -1.3316 -0.0247  0.1935
 1205TIP3   OH225029   1.346   5.203  12.889  0.4034 -0.3261 -0.6582
 1205TIP3    H125030   1.318   5.288  12.855  1.7673  0.7449  0.8152
 1205TIP3    H225031   1.302   5.195  12.974 -1.0806 -1.9040 -1.5240
 1206TIP3   OH225032   4.922   3.448   3.244  0.4661  0.0180  0.1104
 1206TIP3    H125033   4.830   3.424   3.256 -0.0104  1.1488 -1.1309
 1206TIP3    H225034   4.953   3.468   3.333 -1.0719  1.6320  0.3041
 1207TIP3   OH225035   6.129   3.194   3.089 -0.1686  0.4921 -0.1032
 1207TIP3    H125036   6.163   3.200   3.179  0.4946  1.3037 -0.4051
 1207TIP3    H225037   6.188   3.132   3.046 -1.1102 -0.7026  0.2982
 1208TIP3   OH225038   1.860   6.748   2.403  0.1386  0.1168  0.6232
 1208TIP3    H125039   1.828   6.704   2.324  0.9635  0.4528  0.0862
 1208TIP3    H225040   1.862   6.679   2.470 -3.3882  0.5031  1.1828
 1209TIP3   OH225041   3.774   3.513   0.633 -0.4814 -0.3419  0.4080
 1209TIP3    H125042   3.684   3.495   0.661 -0.6495 -0.1066  0.0226
 1209TIP3    H225043   3.796   3.596   0.674 -1.2570  0.7588 -1.3459
 1210TIP3   OH225044   1.600   0.927  16.104 -0.4823  0.3433  0.0321
 1210TIP3    H125045   1.529   0.977  16.063 -0.7829 -0.8349 -0.9382
 1210TIP3    H225046   1.567   0.906  16.191 -1.0485  0.3949 -0.1634
 1211TIP3   OH225047   2.154   5.078  11.509 -0.2125  0.6559 -0.1686
 1211TIP3    H125048   2.162   5.021  11.585  0.2123 -0.3452 -0.9502
 1211TIP3    H225049   2.165   5.019  11.434 -0.0068  1.7324 -0.9873
 1212TIP3   OH225050   1.915   6.326  16.700  0.1259  0.2110  0.4621
 1212TIP3    H125051   1.904   6.396  16.635  2.9582 -0.2144 -0.5274
 1212TIP3    H225052   1.975   6.264  16.659  0.8302 -0.7910  2.9226
 1213TIP3   OH225053   0.249   6.041   4.917  0.2478 -0.0908  0.3249
 1213TIP3    H125054   0.287   6.122   4.950  0.3043 -0.2983  0.7682
 1213TIP3    H225055   0.168   6.031   4.967  1.2645 -1.3932  1.7526
 1214TIP3   OH225056   5.232   5.062   5.333 -0.1098 -0.0758 -0.6954
 1214TIP3    H125057   5.279   4.989   5.372  1.0693 -0.0480 -2.0368
 1214TIP3    H225058   5.290   5.137   5.345 -0.3665  0.2127 -1.2381
 1215TIP3   OH225059   6.213   4.326  11.265  0.0332 -0.1182 -0.2869
 1215TIP3    H125060   6.188   4.368  11.183  0.4387  0.6411 -0.0215
 1215TIP3    H225061   6.175   4.238  11.259 -2.3117  0.8374 -0.1079
 1216TIP3   OH225062   0.424   6.026  12.872  0.1992  0.5253  0.6566
 1216TIP3    H125063   0.459   6.083  12.803  0.7120  0.2983  0.7235
 1216TIP3    H225064   0.329   6.035  12.865  0.1396 -1.3609 -1.7090
 1217TIP3   OH225065   2.044   0.174  14.263 -0.2423 -0.4920 -0.0281
 1217TIP3    H125066   2.076   0.253  14.308  0.6709 -0.5268 -0.6110
 1217TIP3    H225067   2.013   0.118  14.334 -0.3975  0.1639  0.4362
 1218TIP3   OH225068   6.627   0.517  16.263 -0.0820  0.0609 -0.1238
 1218TIP3    H125069   6.597   0.478  16.345  0.5507  0.8517  0.4889
 1218TIP3    H225070   6.683   0.590  16.290  2.1551 -1.2059 -1.2396
 1219TIP3   OH225071   1.091   0.258  11.285  0.4585 -0.0116 -0.2377
 1219TIP3    H125072   1.091   0.210  11.202 -1.2787 -1.1166  0.3920
 1219TIP3    H225073   1.013   0.228  11.331  1.3485  0.6642  1.7764
 1220TIP3   OH225074   3.193   1.943   4.922 -0.4334 -0.1251 -0.4774
 1220TIP3    H125075   3.162   2.033   4.935 -1.4763 -0.4611 -0.6362
 1220TIP3    H225076   3.280   1.954   4.882 -0.9805  0.8130 -1.4394
 1221TIP3   OH225077   5.929   5.333   3.930  0.0069  0.2537 -0.3766
 1221TIP3    H125078   5.968   5.396   3.991  0.7997  1.1340 -1.7856
 1221TIP3    H225079   5.953   5.247   3.966  0.1453  0.7500  0.7498
 1222TIP3   OH225080   6.421   4.352   2.091  0.1342 -0.4274  0.6898
 1222TIP3    H125081   6.364   4.353   2.168  0.5382  0.6440  0.9884
 1222TIP3    H225082   6.500   4.399   2.119 -1.2820  3.5101 -1.5447
 1223TIP3   OH225083   2.000   2.399   1.233  0.4210  0.0133  0.0608
 1223TIP3    H125084   2.045   2.333   1.286 -1.2222 -1.6020 -0.4981
 1223TIP3    H225085   1.913   2.405   1.271 -0.1023  0.3705 -1.1577
 1224TIP3   OH225086   0.578   3.980  16.293  0.4819 -0.0114  0.3226
 1224TIP3    H125087   0.641   3.911  16.312 -0.2195 -0.7168  0.1301
 1224TIP3    H225088   0.493   3.941  16.314 -0.1635 -0.2004 -2.4686
 1225TIP3   OH225089   4.626   0.954   1.969  0.2671 -0.1442  0.1682
 1225TIP3    H125090   4.704   0.998   1.936  0.6403 -1.1131 -0.2468
 1225TIP3    H225091   4.596   0.899   1.896 -0.0145 -0.8257  0.7836
 1226TIP3   OH225092   2.880   3.183   5.279  0.2617 -0.3272 -0.5934
 1226TIP3    H125093   2.810   3.124   5.253  0.9262 -0.9925 -0.8910
 1226TIP3    H225094   2.839   3.244   5.340 -0.2536 -1.6259  0.3782
 1227TIP3   OH225095   0.952   1.777  13.031 -0.3905 -0.7813 -0.6833
 1227TIP3    H125096   0.861   1.805  13.032 -0.1971 -0.1086 -1.4578
 1227TIP3    H225097   0.960   1.718  13.106 -1.1736  0.0678  0.0779
 1228TIP3   OH225098   1.251   3.486   3.124  0.4082  0.5612  0.1418
 1228TIP3    H125099   1.284   3.404   3.159  2.4527  1.1623 -0.3165
 1228TIP3    H225100   1.190   3.518   3.191  0.8458 -0.5158  1.0634
 1229TIP3   OH225101   3.934   0.970  13.125  0.0485  0.1307  0.7087
 1229TIP3    H125102   3.999   0.930  13.068 -0.9817 -0.0190 -0.3666
 1229TIP3    H225103   3.958   0.941  13.213  2.4920  1.5073  0.5265
 1230TIP3   OH225104   4.895   5.332   2.991 -0.4899  0.6105 -0.0095
 1230TIP3    H125105   4.884   5.417   3.033 -1.8351  0.8600 -0.8637
 1230TIP3    H225106   4.899   5.270   3.064 -2.0592  1.1291  0.5291
 1231TIP3   OH225107   5.961   2.973   0.790 -0.0185  0.5095  0.0655
 1231TIP3    H125108   6.012   2.921   0.728  0.1518  1.3518 -0.5174
 1231TIP3    H225109   5.899   2.911   0.829  1.5499 -0.5648  0.9028
 1232TIP3   OH225110   0.193   4.654  12.492 -0.0730 -0.2161  0.0385
 1232TIP3    H125111   0.182   4.696  12.577 -0.2238  4.1271 -2.0333
 1232TIP3    H225112   0.117   4.680  12.442  1.6990  0.1489 -2.5670
 1233TIP3   OH225113   4.227   3.004   0.545 -0.2052  0.2577 -0.8582
 1233TIP3    H125114   4.147   3.011   0.597 -1.0356  2.7321 -2.3604
 1233TIP3    H225115   4.209   2.934   0.482 -0.2067 -0.9021  0.4006
 1234TIP3   OH225116   2.237   3.944   1.429 -0.2338 -0.3179 -0.2161
 1234TIP3    H125117   2.211   3.960   1.338 -0.2653 -1.3573 -0.3975
 1234TIP3    H225118   2.201   4.018   1.478  1.0151  1.0282 -1.2667
 1235TIP3   OH225119   4.208   2.046   2.875 -0.4892  0.7754  0.2462
 1235TIP3    H125120   4.196   2.130   2.919  0.0590  0.8541  0.2520
 1235TIP3    H225121   4.277   2.002   2.926  1.5865  1.7005 -1.6903
 1236TIP3   OH225122   5.289   0.980   2.830  0.0113 -0.1056  0.5887
 1236TIP3    H125123   5.382   0.974   2.808  0.1150  0.4589  0.8710
 1236TIP3    H225124   5.284   1.052   2.893 -0.5091 -0.6503  1.1718
 1237TIP3   OH225125   0.722   6.477  13.287  0.4402  0.0749 -0.0557
 1237TIP3    H125126   0.725   6.391  13.244  0.8474  0.3923 -0.6678
 1237TIP3    H225127   0.731   6.540  13.215  1.0608  0.6173  0.4983
 1238TIP3   OH225128   3.843   3.770  13.304  0.6779 -0.4534  0.3739
 1238TIP3    H125129   3.773   3.805  13.358  0.4010  2.2449 -1.6353
 1238TIP3    H225130   3.807   3.769  13.215  2.1319 -1.9924 -0.2364
 1239TIP3   OH225131   2.815   4.511   4.274  0.2912 -0.1673  0.7231
 1239TIP3    H125132   2.878   4.557   4.330  0.0953 -1.7090  2.2583
 1239TIP3    H225133   2.730   4.549   4.297  0.2286 -0.6932  1.3948
 1240TIP3   OH225134   2.864   2.648  14.884 -0.0868  0.3025 -0.5865
 1240TIP3    H125135   2.840   2.604  14.802 -1.4929 -0.1503  0.0513
 1240TIP3    H225136   2.887   2.737  14.858 -0.4779  0.1499 -1.4721
 1241TIP3   OH225137   1.219   2.059  17.176  0.1474  0.3041  0.4707
 1241TIP3    H125138   1.215   1.985  17.237  1.5747 -1.0120 -0.9737
 1241TIP3    H225139   1.133   2.058  17.133 -0.7328  1.0203  2.1758
 1242TIP3   OH225140   4.811   5.243  11.229  0.3779  0.3777 -0.5003
 1242TIP3    H125141   4.823   5.149  11.243  1.0757  0.3477 -1.2874
 1242TIP3    H225142   4.722   5.251  11.194  0.2731  0.0231 -0.3159
 1243TIP3   OH225143   6.078   3.721  12.792  0.2449 -0.7638 -0.0381
 1243TIP3    H125144   6.027   3.660  12.738 -0.6145 -1.1456  1.1825
 1243TIP3    H225145   6.090   3.675  12.875 -1.8201  1.3617  1.4996
 1244TIP3   OH225146   5.475   1.755   1.787  0.1548 -0.4118  0.1092
 1244TIP3    H125147   5.487   1.742   1.881 -0.6186 -0.0306  0.2634
 1244TIP3    H225148   5.442   1.672   1.755 -0.3366 -0.2966  0.3107
 1245TIP3   OH225149   5.313   5.566  15.994  0.0512  0.7574 -0.0407
 1245TIP3    H125150   5.238   5.507  15.995  0.4280  0.2129 -1.6098
 1245TIP3    H225151   5.370   5.534  16.063 -0.0400 -0.3365 -0.4718
 1246TIP3   OH225152   6.326   3.507  17.028 -0.2704 -0.5912 -0.2132
 1246TIP3    H125153   6.250   3.535  17.079  0.8551  1.1321  0.5549
 1246TIP3    H225154   6.342   3.580  16.968  1.0764 -0.7284 -0.0299
 1247TIP3   OH225155   1.178   2.266  11.467 -0.2796  0.3202  0.0086
 1247TIP3    H125156   1.189   2.266  11.372 -1.2131  0.3686 -0.1053
 1247TIP3    H225157   1.248   2.209  11.499 -0.4239 -0.3110 -0.7663
 1248TIP3   OH225158   5.653   2.334   6.299 -1.2757  0.2469  0.3933
 1248TIP3    H125159   5.648   2.389   6.377 -0.4277  1.0131 -0.0776
 1248TIP3    H225160   5.660   2.245   6.333  0.9105  0.7076  1.2496
 1249TIP3   OH225161   6.357   0.009  12.088  0.0936 -0.2133  0.5090
 1249TIP3    H125162   6.445   0.042  12.066 -0.3940  0.1776 -0.9394
 1249TIP3    H225163   6.357  -0.081  12.054  0.3917 -0.6768  1.7314
 1250TIP3   OH225164   1.755   1.869  15.732  0.1335 -0.9258  0.3024
 1250TIP3    H125165   1.762   1.808  15.805  0.2192 -0.2994  0.8290
 1250TIP3    H225166   1.772   1.817  15.654  0.6651 -1.4679  0.7839
 1251TIP3   OH225167   1.468   2.193  16.679 -0.4248  0.1995 -0.0154
 1251TIP3    H125168   1.500   2.117  16.632 -0.2317  0.5587 -0.4749
 1251TIP3    H225169   1.393   2.161  16.730 -0.3074 -0.3013 -0.1598
 1252TIP3   OH225170   3.747   2.950   5.434  0.7289 -0.2816  0.1497
 1252TIP3    H125171   3.766   3.038   5.467  2.6399 -0.3392 -0.7576
 1252TIP3    H225172   3.707   2.966   5.348 -1.3173 -0.2426  1.0708
 1253TIP3   OH225173   3.675   3.720   1.694  0.2005  0.1000  0.3557
 1253TIP3    H125174   3.708   3.699   1.606  1.0877  1.0911  0.4378
 1253TIP3    H225175   3.592   3.764   1.678  1.9300  3.3749 -0.2128
 1254TIP3   OH225176   5.302   2.843   4.145  0.9776  0.1971 -0.2245
 1254TIP3    H125177   5.261   2.777   4.201 -0.1242  0.7176 -0.4021
 1254TIP3    H225178   5.228   2.892   4.108  1.7976  1.7100  0.1240
 1255TIP3   OH225179   2.905   2.883   5.217  0.5393 -0.2647  0.3895
 1255TIP3    H125180   2.874   2.922   5.299  1.0535  0.5795  0.1880
 1255TIP3    H225181   2.825   2.858   5.170  0.2104  0.2711  0.6600
 1256TIP3   OH225182   5.728   1.585   5.778  0.3831  0.2836  0.1433
 1256TIP3    H125183   5.815   1.624   5.788  1.3338 -1.3816 -1.4372
 1256TIP3    H225184   5.742   1.491   5.792 -1.2684  0.0774  0.4796
 1257TIP3   OH225185   6.584   4.174  14.555 -0.0657 -0.2167 -0.1196
 1257TIP3    H125186   6.542   4.258  14.572 -2.0105 -0.9621 -1.0705
 1257TIP3    H225187   6.629   4.153  14.637 -0.4139  1.2436  0.4675
 1258TIP3   OH225188   4.050   3.595   4.584  0.0854 -0.3358 -1.1873
 1258TIP3    H125189   4.107   3.650   4.530  0.4010  0.9519  0.4281
 1258TIP3    H225190   3.965   3.598   4.541  0.3685  0.5620 -1.6926
 1259TIP3   OH225191   3.973   2.246   0.284  0.9010  0.2734 -0.2274
 1259TIP3    H125192   4.068   2.252   0.290  0.9783  2.4746 -2.6446
 1259TIP3    H225193   3.941   2.284   0.365  2.0589 -0.7983  0.7595
 1260TIP3   OH225194   2.520   1.852  15.136 -0.4716 -0.5479  0.3241
 1260TIP3    H125195   2.521   1.927  15.077 -2.0239 -0.7706  0.0020
 1260TIP3    H225196   2.612   1.841  15.162 -0.2982  1.7941  0.8222
 1261TIP3   OH225197   1.394   3.182  16.746  0.8266 -0.2076  0.6468
 1261TIP3    H125198   1.449   3.229  16.684  1.0870 -2.2614 -0.7339
 1261TIP3    H225199   1.445   3.103  16.768 -0.1689 -0.5304  1.8619
 1262TIP3   OH225200   4.414   0.076  14.638 -0.1413 -0.2677  0.1078
 1262TIP3    H125201   4.353   0.004  14.655 -1.0249  0.5028  0.2511
 1262TIP3    H225202   4.389   0.109  14.552 -0.2797  0.3954  0.4001
 1263TIP3   OH225203   6.724   5.479  14.481  0.2952  0.1683  0.3643
 1263TIP3    H125204   6.778   5.544  14.527  0.3756  0.3419  0.0227
 1263TIP3    H225205   6.667   5.531  14.425  0.7855 -0.0832 -0.3754
 1264TIP3   OH225206   1.685   3.268  14.747  0.1143 -0.2197 -0.5629
 1264TIP3    H125207   1.660   3.229  14.663  4.2949  1.9970 -3.0282
 1264TIP3    H225208   1.730   3.199  14.794  0.4983 -0.6133 -1.5011
 1265TIP3   OH225209   4.467   5.535   1.996  0.3651 -0.0136 -0.4559
 1265TIP3    H125210   4.484   5.479   2.072 -1.3538 -0.4703 -0.3838
 1265TIP3    H225211   4.527   5.609   2.006  1.1933 -0.8116  0.5526
 1266TIP3   OH225212   4.725   1.787   5.921 -0.7315  0.5816 -0.1583
 1266TIP3    H125213   4.743   1.766   6.013  0.3414 -0.6935 -0.6376
 1266TIP3    H225214   4.645   1.738   5.901  0.0504 -0.6047 -0.4079
 1267TIP3   OH225215   0.556   0.485   6.637  0.1935 -0.0784  0.2479
 1267TIP3    H125216   0.563   0.561   6.578 -0.3497 -0.5367 -0.4122
 1267TIP3    H225217   0.631   0.430   6.614  0.0698 -0.1825  0.0957
 1268TIP3   OH225218   5.992   3.195  15.932  0.0793 -0.4339  0.1222
 1268TIP3    H125219   6.083   3.170  15.918 -0.2634 -1.2332 -0.7605
 1268TIP3    H225220   5.981   3.277  15.884 -0.2925 -1.6013 -1.8537
 1269TIP3   OH225221   0.465   4.601  16.153  0.4950 -0.1203 -0.0515
 1269TIP3    H125222   0.376   4.568  16.162  0.6945 -0.9593 -1.0526
 1269TIP3    H225223   0.473   4.625  16.061  0.1574  3.3490  0.7614
 1270TIP3   OH225224   6.242   1.860   2.729 -0.0260  0.0069  0.2701
 1270TIP3    H125225   6.284   1.860   2.815  1.6902 -0.6366 -0.5504
 1270TIP3    H225226   6.170   1.798   2.738  0.5536 -0.5681  1.0629
 1271TIP3   OH225227   0.553   4.363  13.994 -0.4827  0.0790 -0.3698
 1271TIP3    H125228   0.487   4.352  14.063  1.2625 -0.9308  1.1907
 1271TIP3    H225229   0.606   4.436  14.023  0.4184 -0.5090 -0.5047
 1272TIP3   OH225230   6.047   3.266  14.891 -0.5728  0.3473 -0.1907
 1272TIP3    H125231   6.069   3.212  14.967  0.7408 -1.1659 -1.6082
 1272TIP3    H225232   5.972   3.222  14.851 -1.8866  1.6841  0.7504
 1273TIP3   OH225233   2.141   6.363  16.097 -0.4489 -0.0785 -0.3722
 1273TIP3    H125234   2.066   6.332  16.148 -0.3907  1.2332  0.5224
 1273TIP3    H225235   2.125   6.456  16.082  0.3905 -0.0589 -1.2634
 1274TIP3   OH225236   3.976   1.776   3.141 -0.5058 -0.0808 -0.1889
 1274TIP3    H125237   4.061   1.818   3.132 -0.6112  0.3054  0.5877
 1274TIP3    H225238   3.984   1.694   3.093  0.4226 -0.2152  0.2000
 1275TIP3   OH225239   5.907   1.587  14.908 -0.4361  0.0050  0.0894
 1275TIP3    H125240   5.977   1.572  14.971  0.6845 -0.5144 -1.2487
 1275TIP3    H225241   5.826   1.576  14.959  0.4377  0.3078  1.5757
 1276TIP3   OH225242   5.137   2.584  13.744  0.6326 -0.5180 -0.1815
 1276TIP3    H125243   5.145   2.518  13.813  1.8252  2.8676  3.0394
 1276TIP3    H225244   5.042   2.599  13.737  0.5776  0.1135  1.7202
 1277TIP3   OH225245   6.596   3.735   2.801 -0.3991  0.1707  0.2065
 1277TIP3    H125246   6.576   3.760   2.711 -0.3161  0.9461  0.3908
 1277TIP3    H225247   6.608   3.641   2.799 -5.7869 -0.6828  0.3855
 1278TIP3   OH225248   4.635   3.874  13.969  0.4531 -0.0105  0.0108
 1278TIP3    H125249   4.607   3.920  13.890  0.0514 -1.2934 -0.6102
 1278TIP3    H225250   4.704   3.815  13.939  0.0644 -0.7475  0.5561
 1279TIP3   OH225251   1.363   3.790  16.825 -0.3865 -0.2541 -0.1334
 1279TIP3    H125252   1.311   3.758  16.899  1.7483  0.5486  1.7757
 1279TIP3    H225253   1.448   3.811  16.863  0.6530  0.5032 -2.7823
 1280TIP3   OH225254   1.073   6.369  13.731  0.3081  0.5003  0.5838
 1280TIP3    H125255   0.997   6.352  13.786 -1.2458 -0.6965 -1.8749
 1280TIP3    H225256   1.142   6.313  13.766 -0.4188  0.3702  1.8121
 1281TIP3   OH225257   5.891   5.475   5.103  0.6387  0.5408 -0.5907
 1281TIP3    H125258   5.879   5.381   5.096 -0.2595  0.5951  0.1052
 1281TIP3    H225259   5.977   5.486   5.143  1.0491  0.0311 -1.3425
 1282TIP3   OH225260   2.839   1.713  14.012  0.7085 -0.3649 -0.3053
 1282TIP3    H125261   2.809   1.768  13.939 -0.1441  0.7018  0.8285
 1282TIP3    H225262   2.765   1.711  14.072  1.3603 -1.3478  0.4694
 1283TIP3   OH225263   3.015   4.015   4.734 -0.2038 -0.0844 -0.5476
 1283TIP3    H125264   3.025   3.925   4.766  0.6585  0.4487  0.7487
 1283TIP3    H225265   3.100   4.056   4.752 -0.2755  0.7240 -2.0004
 1284TIP3   OH225266   0.979   1.775   2.200 -0.4366 -0.5568 -0.5997
 1284TIP3    H125267   1.023   1.751   2.281 -0.6879 -1.0899 -0.6224
 1284TIP3    H225268   0.971   1.871   2.205  1.2833 -0.3729 -0.8849
 1285TIP3   OH225269   6.263   1.972   3.672 -0.1707 -0.0534 -0.0183
 1285TIP3    H125270   6.246   2.017   3.588 -0.9576  0.1739  0.2611
 1285TIP3    H225271   6.345   2.011   3.702 -0.2272  0.3510 -0.3624
 1286TIP3   OH225272   4.707   0.221   6.174 -0.4184 -0.2111  0.0150
 1286TIP3    H125273   4.739   0.174   6.251  0.7053  1.1374  0.3968
 1286TIP3    H225274   4.613   0.207   6.174 -0.1996 -1.8143  0.5528
 1287TIP3   OH225275   5.148   5.935   5.541 -0.5363 -0.8009 -0.2925
 1287TIP3    H125276   5.099   5.915   5.621 -1.3639 -0.6377 -0.7517
 1287TIP3    H225277   5.240   5.938   5.569 -0.8172 -0.7765  0.6426
 1288TIP3   OH225278   4.752   5.079  15.689 -0.3682 -0.1241 -0.0391
 1288TIP3    H125279   4.658   5.061  15.678  0.0457 -1.9672 -0.6879
 1288TIP3    H225280   4.789   5.067  15.602  0.3999  1.0939  0.1155
 1289TIP3   OH225281   5.007   2.642  12.709 -0.5080 -0.1045 -0.0572
 1289TIP3    H125282   4.974   2.723  12.671 -1.7409 -1.1548 -1.3108
 1289TIP3    H225283   5.100   2.640  12.686 -0.7552  0.3541 -1.0980
 1290TIP3   OH225284   1.432   3.081   1.451  0.0100  0.1958 -0.3127
 1290TIP3    H125285   1.340   3.077   1.477 -0.5431  0.8033 -2.0847
 1290TIP3    H225286   1.455   2.990   1.433 -0.3063  0.0645 -0.0722
 1291TIP3   OH225287   1.162   2.197   6.467 -0.6256 -0.3414 -0.5499
 1291TIP3    H125288   1.096   2.142   6.425 -0.3832 -0.5172 -0.7039
 1291TIP3    H225289   1.115   2.244   6.535 -1.1647  0.4211 -1.4325
 1292TIP3   OH225290   4.528   1.487  14.915 -0.1032 -0.3042  0.3963
 1292TIP3    H125291   4.520   1.563  14.857  0.4921 -0.6888 -0.1995
 1292TIP3    H225292   4.599   1.435  14.877 -0.6284 -1.2517  0.6930
 1293TIP3   OH225293   3.355   5.336   2.569 -0.8016  0.2797  0.1515
 1293TIP3    H125294   3.289   5.268   2.562  0.6170 -0.8579 -2.7573
 1293TIP3    H225295   3.390   5.328   2.658 -2.3718 -1.1405  0.6401
 1294TIP3   OH225296   3.107   6.136   4.491 -0.0117 -0.7817 -0.3690
 1294TIP3    H125297   3.142   6.130   4.580  0.4620 -0.2760 -0.5212
 1294TIP3    H225298   3.184   6.129   4.435 -0.3370 -1.3375 -0.7458
 1295TIP3   OH225299   5.817   5.550   3.352 -0.7750  0.2650  0.7693
 1295TIP3    H125300   5.802   5.477   3.291 -0.2745 -0.5137  1.5605
 1295TIP3    H225301   5.768   5.525   3.431  1.7941 -0.6383  2.1133
 1296TIP3   OH225302   6.599   2.810   5.232 -0.0078  0.2916 -0.7414
 1296TIP3    H125303   6.610   2.846   5.144  0.0142  0.8564 -0.5157
 1296TIP3    H225304   6.672   2.846   5.282  0.6455 -0.9611 -0.7744
 1297TIP3   OH225305   4.138   4.652   0.630  0.7017  0.4806 -0.0220
 1297TIP3    H125306   4.159   4.680   0.718  0.7596 -0.7168  0.3592
 1297TIP3    H225307   4.220   4.620   0.594  0.4896  0.1068 -0.1797
 1298TIP3   OH225308   5.150   1.878  14.078  0.0107 -0.2944 -0.6892
 1298TIP3    H125309   5.141   1.947  14.143  0.5063 -1.9309  1.1428
 1298TIP3    H225310   5.062   1.866  14.043 -0.4076  0.0513  0.2334
 1299TIP3   OH225311   0.894   2.968   5.277 -0.0296 -0.3199  0.0388
 1299TIP3    H125312   0.946   2.993   5.200  0.8430  0.7894  0.9670
 1299TIP3    H225313   0.946   2.900   5.320 -0.1117 -0.3374  0.1110
 1300TIP3   OH225314   0.320   2.347  16.589  0.0462 -0.4649  0.5545
 1300TIP3    H125315   0.292   2.410  16.655 -1.5108 -0.5306 -0.0187
 1300TIP3    H225316   0.405   2.380  16.558 -1.0547  1.7361 -0.2059
 1301TIP3   OH225317   3.545   3.024   0.692  0.6156  0.2922  0.0734
 1301TIP3    H125318   3.525   2.932   0.671  0.0609  1.0076 -2.6914
 1301TIP3    H225319   3.459   3.065   0.701  0.8680  0.5919  1.0593
 1302TIP3   OH225320   0.156   4.340   0.344 -0.1750 -0.0471 -0.7967
 1302TIP3    H125321   0.067   4.374   0.352 -0.1693 -0.1976 -0.0360
 1302TIP3    H225322   0.188   4.375   0.261 -0.2826  1.5151 -0.1921
 1303TIP3   OH225323   5.337   0.129  14.205 -0.2128  0.5303 -0.1946
 1303TIP3    H125324   5.391   0.147  14.128 -0.2268  0.9022 -0.1158
 1303TIP3    H225325   5.259   0.087  14.169 -0.7204  1.7099 -0.5039
 1304TIP3   OH225326   4.350   0.528  14.447 -0.3443 -0.1459 -0.9339
 1304TIP3    H125327   4.276   0.590  14.451  0.2657  0.5090  0.6117
 1304TIP3    H225328   4.427   0.582  14.468  0.7502 -0.5920 -3.5384
 1305TIP3   OH225329   5.985   4.450   2.649 -0.3952  0.0429  0.1615
 1305TIP3    H125330   6.010   4.364   2.614  2.0205  1.0890 -0.7772
 1305TIP3    H225331   6.029   4.455   2.733  0.4117  0.8188 -0.3009
 1306TIP3   OH225332   2.204   0.548  17.022  0.7272 -0.1510 -0.0755
 1306TIP3    H125333   2.157   0.466  17.010  1.7696 -1.0382  1.7792
 1306TIP3    H225334   2.176   0.579  17.108  1.2553  0.8437 -0.2577
 1307TIP3   OH225335   2.207   5.967  11.691 -0.5770  0.5000  0.3992
 1307TIP3    H125336   2.233   5.918  11.613  0.2025  1.5565 -0.0270
 1307TIP3    H225337   2.113   5.953  11.698 -0.8476  1.2987 -1.3840
 1308TIP3   OH225338   6.203   0.235   4.036  0.0467 -0.6342 -0.0316
 1308TIP3    H125339   6.156   0.296   4.092  0.2029 -0.0071 -0.5745
 1308TIP3    H225340   6.136   0.176   4.002  0.0103 -1.2968  1.1460
 1309TIP3   OH225341   1.503   1.566   1.921  0.4439 -0.1837 -0.0870
 1309TIP3    H125342   1.479   1.636   1.983 -2.3414 -1.1548 -0.0038
 1309TIP3    H225343   1.517   1.489   1.976 -1.6151 -0.9424 -0.5906
 1310TIP3   OH225344   3.049   4.068  12.985  0.2885 -0.7787 -0.4409
 1310TIP3    H125345   2.975   4.008  12.981  0.4628 -0.9333 -1.3059
 1310TIP3    H225346   3.025   4.140  12.927  0.6345 -0.6270 -0.3966
 1311TIP3   OH225347   4.575   6.454   0.255  0.4324  0.3413  0.1463
 1311TIP3    H125348   4.661   6.476   0.293  0.3942  0.4257  0.1839
 1311TIP3    H225349   4.568   6.512   0.180  0.5905  0.0417 -0.1005
 1312TIP3   OH225350   0.695   5.529   2.766 -1.0118  0.2294  0.4447
 1312TIP3    H125351   0.666   5.441   2.745 -2.2468  0.5692  0.6916
 1312TIP3    H225352   0.779   5.538   2.720 -0.1983 -1.5355  1.5274
 1313TIP3   OH225353   6.192   5.118  14.221 -0.0188 -0.1059 -0.2122
 1313TIP3    H125354   6.177   5.167  14.139 -0.1936 -0.8344 -0.6188
 1313TIP3    H225355   6.208   5.028  14.192  2.8861  0.1903  0.3653
 1314TIP3   OH225356   3.696   5.430  11.878 -0.3313 -0.1552  0.0277
 1314TIP3    H125357   3.718   5.516  11.911 -0.0076 -0.4104  0.4762
 1314TIP3    H225358   3.608   5.440  11.840 -1.5390 -0.3340  2.7109
 1315TIP3   OH225359   6.010   0.611   1.639  0.3901 -0.2922 -0.0851
 1315TIP3    H125360   5.939   0.671   1.616  1.0989  0.7170  0.3223
 1315TIP3    H225361   6.032   0.568   1.557  0.2706  0.4370 -0.5061
 1316TIP3   OH225362   3.032   5.966  16.295  0.0786 -0.1110 -0.2579
 1316TIP3    H125363   3.127   5.973  16.295  0.0871 -0.2243  0.1875
 1316TIP3    H225364   3.013   5.895  16.356 -0.1757 -1.7945 -2.2281
 1317TIP3   OH225365   6.113   4.922   0.198  0.3152 -0.1170 -0.4881
 1317TIP3    H125366   6.157   4.839   0.215 -0.9187 -0.6065  0.3829
 1317TIP3    H225367   6.027   4.912   0.239 -0.2040  1.2228 -1.2424
 1318TIP3   OH225368   3.747   2.458  16.877 -0.1822 -0.5388 -0.3745
 1318TIP3    H125369   3.842   2.454  16.872 -0.2063 -1.1529 -0.3447
 1318TIP3    H225370   3.723   2.532  16.821  0.3590  0.0381  0.1572
 1319TIP3   OH225371   5.680   6.256   5.477  0.3301 -0.7161  0.0298
 1319TIP3    H125372   5.588   6.246   5.453 -0.0528  0.9994  0.6880
 1319TIP3    H225373   5.705   6.172   5.514 -0.7044 -1.5032 -1.0439
 1320TIP3   OH225374   5.898   4.286  16.189  0.7013  0.5053 -0.1410
 1320TIP3    H125375   5.875   4.201  16.152  0.9739  0.3037  0.1568
 1320TIP3    H225376   5.841   4.348  16.143  0.9567  0.2409 -0.8160
 1321TIP3   OH225377   3.266   2.654   3.761 -0.1501  0.1581  0.6049
 1321TIP3    H125378   3.249   2.678   3.852  0.3038 -0.3463  0.8272
 1321TIP3    H225379   3.202   2.704   3.710 -0.5878  0.2246  1.2206
 1322TIP3   OH225380   5.633   4.452   4.436  0.4205 -0.4349 -0.1759
 1322TIP3    H125381   5.620   4.482   4.526  0.3207  0.9882 -0.6623
 1322TIP3    H225382   5.547   4.458   4.395  0.1788 -2.3512 -0.0103
 1323TIP3   OH225383   3.464   5.750  14.317 -0.4252 -0.0120  0.0791
 1323TIP3    H125384   3.473   5.757  14.412  0.7365  0.8558 -0.0838
 1323TIP3    H225385   3.461   5.655  14.301  0.2209 -0.1815  0.9039
 1324TIP3   OH225386   0.388   4.406   0.546 -0.2676  0.7558  0.0004
 1324TIP3    H125387   0.327   4.382   0.476 -0.8017  1.3246  0.2726
 1324TIP3    H225388   0.398   4.326   0.597 -1.6258  0.9456  0.5860
 1325TIP3   OH225389   4.046   5.970  15.807  0.2473 -0.3120 -0.2861
 1325TIP3    H125390   4.015   5.900  15.863  0.7438 -0.6135 -0.3902
 1325TIP3    H225391   4.141   5.964  15.810  0.3397  1.2644  0.8656
 1326TIP3   OH225392   4.353   5.585  14.385  0.1156  0.0007  0.1025
 1326TIP3    H125393   4.285   5.524  14.412  0.5592 -1.0716 -1.1400
 1326TIP3    H225394   4.311   5.638  14.317  0.0344  0.4150  0.4735
 1327TIP3   OH225395   3.563   3.859   3.355 -0.6465  0.2524 -0.3614
 1327TIP3    H125396   3.630   3.927   3.350 -0.8858  0.5745  0.6977
 1327TIP3    H225397   3.500   3.883   3.287  0.4795 -0.2443 -1.5883
 1328TIP3   OH225398   2.752   6.014   2.470 -0.3245  0.7152  0.6983
 1328TIP3    H125399   2.690   5.949   2.437 -0.4240  0.3754  1.5515
 1328TIP3    H225400   2.701   6.095   2.475 -0.3954  0.6968  0.3303
 1329TIP3   OH225401   2.086   5.684  16.603 -0.2596  0.4217  0.1945
 1329TIP3    H125402   2.178   5.693  16.579 -0.3429 -0.8604 -0.6833
 1329TIP3    H225403   2.071   5.752  16.669  1.0061  1.4017 -0.5093
 1330TIP3   OH225404   5.258   3.187  16.862  0.0696  0.2372  0.5134
 1330TIP3    H125405   5.212   3.268  16.883  0.4776  0.1845  1.6846
 1330TIP3    H225406   5.342   3.216  16.826  0.6349  0.3669  1.8736
 1331TIP3   OH225407   1.764   4.511   5.156  0.5620  0.3142 -0.2784
 1331TIP3    H125408   1.700   4.450   5.119  0.4293  0.5620 -0.4568
 1331TIP3    H225409   1.743   4.513   5.249  2.1638 -1.8497  0.1762
 1332TIP3   OH225410   0.059   3.569  13.672 -0.2344  0.4510  0.3850
 1332TIP3    H125411   0.123   3.632  13.638 -1.2265 -0.0255 -2.5252
 1332TIP3    H225412   0.109   3.489  13.684  0.1039  0.5774 -0.1389
 1333TIP3   OH225413   4.383   3.181   6.613  0.3359  0.7403 -0.4358
 1333TIP3    H125414   4.292   3.209   6.607 -0.3300 -1.1260  0.6213
 1333TIP3    H225415   4.417   3.226   6.690 -0.2991 -0.1711  0.3867
 1334TIP3   OH225416   4.151   0.315  12.815  0.7819 -0.0045  0.6464
 1334TIP3    H125417   4.144   0.250  12.885 -1.2842 -0.6007 -0.0724
 1334TIP3    H225418   4.221   0.283  12.758  0.4736 -1.0665  0.8632
 1335TIP3   OH225419   3.376   4.059  17.051 -0.1607  0.1912 -0.2914
 1335TIP3    H125420   3.464   4.096  17.057 -0.2852  0.3964  0.3736
 1335TIP3    H225421   3.317   4.133  17.069 -0.4237 -0.2012  0.5089
 1336TIP3   OH225422   0.234   0.554   5.786 -0.6192 -0.1579 -0.1994
 1336TIP3    H125423   0.315   0.510   5.814 -0.9464  1.3669  3.5279
 1336TIP3    H225424   0.262   0.615   5.718  1.5643  0.8335  1.5131
 1337TIP3   OH225425   3.497   0.856   3.364 -0.0969  0.3449  0.3034
 1337TIP3    H125426   3.575   0.909   3.346  0.9715 -0.6469  1.8960
 1337TIP3    H225427   3.462   0.892   3.445 -1.3292  0.7804 -0.3999
 1338TIP3   OH225428   2.630   3.017  14.794  0.1693  0.1017 -0.2973
 1338TIP3    H125429   2.607   2.935  14.750  0.5924  0.7554 -1.7723
 1338TIP3    H225430   2.549   3.066  14.799 -0.4269 -1.0624  2.0614
 1339TIP3   OH225431   4.385   2.748  10.949  0.2524 -0.4944 -0.0283
 1339TIP3    H125432   4.347   2.660  10.951  0.1566 -0.4667 -0.5478
 1339TIP3    H225433   4.345   2.790  10.873 -0.1300  0.1990  0.5519
 1340TIP3   OH225434   4.239   2.724  14.877  0.2115 -0.0801 -0.0656
 1340TIP3    H125435   4.278   2.653  14.826  0.9148  0.4631 -0.2911
 1340TIP3    H225436   4.270   2.804  14.835 -1.7710  0.3719 -0.7293
 1341TIP3   OH225437   1.630   5.259   4.275  0.5625 -0.4557  0.1996
 1341TIP3    H125438   1.661   5.239   4.186 -0.5242  0.5152 -0.4074
 1341TIP3    H225439   1.672   5.342   4.296  0.0348 -0.1971  0.2156
 1342TIP3   OH225440   4.695   1.977  13.150 -0.1915 -0.1826 -0.0248
 1342TIP3    H125441   4.689   2.070  13.126  0.9985 -0.0727  0.1070
 1342TIP3    H225442   4.689   1.930  13.067  0.7082  0.0729 -0.2377
 1343TIP3   OH225443   1.992   5.649   5.570  0.0938 -0.2776 -0.1704
 1343TIP3    H125444   2.022   5.573   5.519 -0.6251 -0.8206  0.2042
 1343TIP3    H225445   2.006   5.624   5.661 -0.0549  0.0824 -0.0486
 1344TIP3   OH225446   3.088   1.472  10.991  0.1460  0.1711  0.1274
 1344TIP3    H125447   3.179   1.480  11.018  0.2302 -0.2285 -0.0398
 1344TIP3    H225448   3.065   1.560  10.959  0.9385 -0.1254 -1.2852
 1345TIP3   OH225449   1.565   1.443  13.749 -0.1721  0.4657 -0.0688
 1345TIP3    H125450   1.553   1.399  13.833 -1.8020  0.5117 -0.2552
 1345TIP3    H225451   1.637   1.504  13.764  2.1720 -2.2574  0.1756
 1346TIP3   OH225452   6.046   5.420  14.539 -0.8678  0.2886 -0.0212
 1346TIP3    H125453   6.119   5.385  14.590 -1.9201  0.0175  1.3320
 1346TIP3    H225454   6.067   5.513  14.526  0.0230  0.0602 -0.2150
 1347TIP3   OH225455   6.719   6.122  15.366  0.0639 -0.1408  0.4553
 1347TIP3    H125456   6.773   6.127  15.445 -0.8499 -2.7097  1.2948
 1347TIP3    H225457   6.659   6.049  15.383 -0.0812 -0.8073 -2.6692
 1348TIP3   OH225458   2.843   2.179  12.233 -0.3153  0.4622  0.3615
 1348TIP3    H125459   2.851   2.196  12.140 -1.9397  2.7050  0.6030
 1348TIP3    H225460   2.756   2.140  12.243 -0.5145  1.0794  1.0602
 1349TIP3   OH225461   6.229   0.754  13.321  0.3483 -0.2838  0.0589
 1349TIP3    H125462   6.136   0.750  13.298  0.6835  0.0296 -1.4046
 1349TIP3    H225463   6.274   0.728  13.241  1.4961 -1.8763  1.1972
 1350TIP3   OH225464   2.415   2.129  17.095 -0.1985  0.5831  0.0260
 1350TIP3    H125465   2.398   2.218  17.126 -0.8679  0.3620  0.2969
 1350TIP3    H225466   2.356   2.117  17.021 -1.0271 -0.0711  0.7685
 1351TIP3   OH225467   4.572   2.237  14.443  0.1905  0.2413 -0.3334
 1351TIP3    H125468   4.615   2.300  14.385 -0.0275  0.2005 -0.5383
 1351TIP3    H225469   4.531   2.292  14.510  0.8067  0.2659  0.0300
 1352TIP3   OH225470   4.180   5.030   0.256  0.2267 -0.0305 -0.0240
 1352TIP3    H125471   4.175   5.042   0.161  1.5722 -0.1485 -0.1187
 1352TIP3    H225472   4.090   5.042   0.286 -0.5651 -1.9521 -1.5336
 1353TIP3   OH225473   0.344   4.117  12.990  0.5332 -0.0995 -0.1957
 1353TIP3    H125474   0.321   4.206  12.965 -0.0924 -0.3086 -0.3704
 1353TIP3    H225475   0.353   4.070  12.907 -0.3920 -0.5054 -0.0756
 1354TIP3   OH225476   2.568   4.760   4.657  0.4063  0.3194 -0.2786
 1354TIP3    H125477   2.623   4.701   4.708 -2.5139 -1.9866  0.3280
 1354TIP3    H225478   2.591   4.848   4.689  0.8592 -0.8618  2.8306
 1355TIP3   OH225479   3.431   2.619  11.795  0.0032  0.1295 -0.1742
 1355TIP3    H125480   3.433   2.524  11.803 -0.1104 -0.2073 -3.5640
 1355TIP3    H225481   3.522   2.643  11.777  0.0713  0.7034  0.8864
 1356TIP3   OH225482   6.666   0.290   5.489  0.3966 -0.1069  0.7866
 1356TIP3    H125483   6.587   0.344   5.481  0.3480 -0.4782 -1.5446
 1356TIP3    H225484   6.736   0.344   5.454  0.6277 -0.9484 -0.0692
 1357TIP3   OH225485   2.627   0.580   1.583  0.8301  0.3144 -0.2564
 1357TIP3    H125486   2.718   0.567   1.612  0.9672  0.3562 -0.6536
 1357TIP3    H225487   2.634   0.647   1.515  0.3038  1.4358  0.7822
 1358TIP3   OH225488   0.339   6.196  16.013 -0.2183  0.1269 -0.4664
 1358TIP3    H125489   0.405   6.264  16.014  1.7328 -1.6973 -1.0395
 1358TIP3    H225490   0.386   6.116  16.035 -1.9685 -1.4226 -2.0944
 1359TIP3   OH225491   1.185   2.245   2.827 -0.1977 -0.2178  0.5276
 1359TIP3    H125492   1.236   2.296   2.890 -1.5688  0.0667  1.4514
 1359TIP3    H225493   1.237   2.167   2.811  0.8897  0.4400  0.8357
 1360TIP3   OH225494   1.122   6.742   2.160 -0.5229 -0.2366  0.5408
 1360TIP3    H125495   1.027   6.737   2.163 -0.6174  0.9270  0.0048
 1360TIP3    H225496   1.151   6.706   2.244 -1.4465 -0.2810  0.8432
 1361TIP3   OH225497   0.993   4.317   1.569 -0.2060  0.5948  0.1350
 1361TIP3    H125498   0.923   4.271   1.615  0.3425  0.3411  0.7126
 1361TIP3    H225499   0.978   4.409   1.588 -1.1233  0.6382 -0.7688
 1362TIP3   OH225500   6.607   3.734   3.251 -0.4827  0.2081  0.0768
 1362TIP3    H125501   6.542   3.787   3.297  0.0768  0.0026  1.1288
 1362TIP3    H225502   6.650   3.795   3.190 -1.3855  0.4303 -0.3421
 1363TIP3   OH225503   6.738   0.733   5.491 -0.0816 -0.8942 -0.2452
 1363TIP3    H125504   6.675   0.759   5.558 -0.0805 -0.3550 -0.4519
 1363TIP3    H225505   6.688   0.680   5.430 -0.1546 -1.1191  0.0082
 1364TIP3   OH225506   1.832   1.831  14.734 -0.1423  0.3237 -0.5375
 1364TIP3    H125507   1.882   1.770  14.789 -0.1363 -0.7168 -1.6807
 1364TIP3    H225508   1.898   1.872  14.678 -0.2622  0.7530 -0.3678
 1365TIP3   OH225509   3.749   6.458   3.337  0.1186  0.0906 -0.2277
 1365TIP3    H125510   3.835   6.440   3.375  0.3823  1.1636 -0.2841
 1365TIP3    H225511   3.757   6.433   3.245 -0.5903 -2.7345  0.4552
 1366TIP3   OH225512   1.604   3.236  12.095  0.6240 -0.3794 -0.5127
 1366TIP3    H125513   1.664   3.300  12.134  1.3998 -1.1697 -0.3802
 1366TIP3    H225514   1.636   3.226  12.005 -0.3897  0.5014 -0.9821
 1367TIP3   OH225515   5.945   4.106  11.612  0.6185 -0.3833 -0.0508
 1367TIP3    H125516   5.909   4.145  11.691  1.5720 -1.5719  1.0095
 1367TIP3    H225517   5.870   4.095  11.553 -0.0723  0.6321  0.6274
 1368TIP3   OH225518   1.996   2.621  11.044  0.2470  0.3392 -0.5728
 1368TIP3    H125519   2.010   2.527  11.031 -2.9809 -0.2356 -0.3716
 1368TIP3    H225520   1.997   2.632  11.139  3.1294  0.9649 -0.6548
 1369TIP3   OH225521   0.949   2.215  14.720  0.2170 -0.4999 -0.0658
 1369TIP3    H125522   0.946   2.160  14.798 -1.4960 -0.9551 -0.4346
 1369TIP3    H225523   0.931   2.303  14.751  2.1375 -0.2388  0.4043
 1370TIP3   OH225524   0.540   4.062  15.713 -0.8441 -0.1225  0.2085
 1370TIP3    H125525   0.589   4.069  15.631 -2.3465 -1.0155 -0.7850
 1370TIP3    H225526   0.606   4.072  15.781  0.3477  1.1659 -1.1068
 1371TIP3   OH225527   5.183   5.326  14.156  0.3044 -0.3353 -0.4774
 1371TIP3    H125528   5.195   5.296  14.246  0.8416  0.3508 -0.3143
 1371TIP3    H225529   5.093   5.303  14.135  0.5471 -1.6300 -0.1984
 1372TIP3   OH225530   4.942   4.693  14.142  0.1636  0.0758 -0.3692
 1372TIP3    H125531   5.028   4.722  14.174  0.0103  0.1766 -0.0485
 1372TIP3    H225532   4.956   4.602  14.116  1.0431  0.8792 -2.8724
 1373TIP3   OH225533   2.428   1.166  15.965  0.1329  0.0122  0.0201
 1373TIP3    H125534   2.477   1.247  15.946  0.5627 -0.2485  0.0034
 1373TIP3    H225535   2.414   1.127  15.879  1.2381 -0.6847  0.1439
 1374TIP3   OH225536   3.785   5.534   2.512 -0.0969 -0.1980 -0.4259
 1374TIP3    H125537   3.881   5.542   2.512 -0.0298 -0.9223 -1.1087
 1374TIP3    H225538   3.754   5.624   2.499  0.4843  0.0721  0.0369
 1375TIP3   OH225539   0.934   5.585   2.687  0.5968  0.2301  1.0471
 1375TIP3    H125540   0.959   5.672   2.657 -1.4123  0.1481 -0.9102
 1375TIP3    H225541   1.004   5.527   2.656 -0.3786  0.4689 -1.6759
 1376TIP3   OH225542   3.657   3.761   4.322  0.3989  0.5311 -0.1454
 1376TIP3    H125543   3.673   3.840   4.270  2.1545 -1.3838 -2.6079
 1376TIP3    H225544   3.601   3.706   4.267 -0.8121  0.0052  1.5472
 1377TIP3   OH225545   5.140   6.727  12.096 -0.1826 -0.0653 -0.4252
 1377TIP3    H125546   5.224   6.707  12.054  0.3871 -0.2954  0.7793
 1377TIP3    H225547   5.078   6.665  12.057 -0.0201  0.7844 -2.0575
 1378TIP3   OH225548   3.566   4.666  14.411 -0.7637 -0.2667 -0.1130
 1378TIP3    H125549   3.497   4.602  14.431 -0.5642 -0.9037 -1.3886
 1378TIP3    H225550   3.633   4.650  14.478 -0.5844 -1.6063 -0.5828
 1379TIP3   OH225551   3.667   0.402  12.044 -0.0181 -0.3712  0.4412
 1379TIP3    H125552   3.574   0.384  12.033 -0.1578  1.2374 -1.4993
 1379TIP3    H225553   3.671   0.466  12.115 -0.4781  0.1491  0.0051
 1380TIP3   OH225554   2.534   6.315  15.652  0.1269  0.1615 -0.5373
 1380TIP3    H125555   2.441   6.325  15.673 -0.1270 -0.2436 -1.4360
 1380TIP3    H225556   2.580   6.355  15.726 -0.7822  1.9336 -0.8963
 1381TIP3   OH225557   2.779   6.191  11.331  0.4127 -0.2327 -0.1218
 1381TIP3    H125558   2.810   6.249  11.400  2.1264 -1.1216 -0.1198
 1381TIP3    H225559   2.768   6.247  11.255 -1.4785  0.7563  0.8353
 1382TIP3   OH225560   5.484   3.858   4.972  0.3592 -0.4459  0.0568
 1382TIP3    H125561   5.478   3.897   5.059  0.3519 -0.7149  0.1777
 1382TIP3    H225562   5.425   3.911   4.918 -0.0098 -0.5736  0.3266
 1383TIP3   OH225563   3.779   1.794  13.938 -0.5406  0.9170  0.2674
 1383TIP3    H125564   3.798   1.878  13.980 -2.4671  1.8782 -0.7090
 1383TIP3    H225565   3.698   1.764  13.980 -1.0637  0.6422 -0.9041
 1384TIP3   OH225566   2.988   5.623  10.595 -0.4881 -0.5638  0.5653
 1384TIP3    H125567   3.062   5.658  10.645  0.4993  0.0041 -1.2312
 1384TIP3    H225568   2.964   5.695  10.536 -1.9072 -1.0693  0.5195
 1385TIP3   OH225569   4.382   4.998  15.804 -0.2198 -0.3833  0.4917
 1385TIP3    H125570   4.352   5.078  15.848  0.7662  0.2375  0.0548
 1385TIP3    H225571   4.437   4.954  15.868  1.5620  0.7326 -0.2211
 1386TIP3   OH225572   6.200   0.187   6.498  0.3277 -0.1816 -0.3612
 1386TIP3    H125573   6.186   0.099   6.464  1.2378 -0.6936  0.5417
 1386TIP3    H225574   6.142   0.193   6.574  3.5023 -1.6480  2.2828
 1387TIP3   OH225575   5.228   6.691   1.324 -0.3227 -0.1488  0.5764
 1387TIP3    H125576   5.185   6.684   1.239  0.0385  1.5314  0.2530
 1387TIP3    H225577   5.167   6.648   1.384 -0.8360 -0.8578 -0.4362
 1388TIP3   OH225578   4.734   0.753   2.431 -0.5151  0.1882  0.5353
 1388TIP3    H125579   4.668   0.789   2.490 -1.1068  0.0034 -0.0156
 1388TIP3    H225580   4.730   0.809   2.353 -0.2505 -0.0256  0.3662
 1389TIP3   OH225581   1.395   4.934   5.077  0.1394 -0.2550 -0.4411
 1389TIP3    H125582   1.354   4.855   5.044  0.3669 -0.9127  0.8177
 1389TIP3    H225583   1.433   4.909   5.161  1.0541  0.9390 -0.4702
 1390TIP3   OH225584   4.629   4.321   2.257 -0.0090 -0.6767 -0.0646
 1390TIP3    H125585   4.678   4.244   2.287 -1.5712 -0.8737  2.1404
 1390TIP3    H225586   4.687   4.395   2.277  0.2256 -1.0578  0.7124
 1391TIP3   OH225587   4.077   0.988  13.815  0.3756  0.7756 -0.6433
 1391TIP3    H125588   4.130   0.933  13.757 -0.3094  0.2141 -0.7328
 1391TIP3    H225589   4.050   0.929  13.886 -3.1263  0.1263 -2.4413
 1392TIP3   OH225590   2.377   2.661   4.682  0.2267  0.1852  0.4720
 1392TIP3    H125591   2.289   2.626   4.696  0.6972 -0.5885  1.6178
 1392TIP3    H225592   2.413   2.609   4.610 -0.2540  0.4966  0.0094
 1393TIP3   OH225593   2.499   6.016  16.405  0.0136  0.2061 -0.3362
 1393TIP3    H125594   2.460   6.046  16.323 -0.7972  0.2339  0.0468
 1393TIP3    H225595   2.574   5.963  16.379 -0.3351  0.0833 -1.1009
 1394TIP3   OH225596   2.206   6.575   4.529  0.0069 -0.1425 -0.2869
 1394TIP3    H125597   2.138   6.509   4.541 -0.6574  0.6167  0.1973
 1394TIP3    H225598   2.193   6.607   4.439 -1.4487  1.2762  0.3995
 1395TIP3   OH225599   1.623   4.785  12.487 -0.2525  0.9470  0.4193
 1395TIP3    H125600   1.597   4.744  12.404 -1.2977  1.4296  0.4942
 1395TIP3    H225601   1.689   4.726  12.523 -0.2552  0.3954 -0.4550
 1396TIP3   OH225602   3.290   4.800  16.519  0.1136 -0.4900 -0.2428
 1396TIP3    H125603   3.369   4.840  16.482 -0.2919 -1.5602 -2.2891
 1396TIP3    H225604   3.313   4.785  16.611  2.6914 -1.7320 -1.0449
 1397TIP3   OH225605   4.434   2.954   2.692 -0.3575 -0.1864 -0.0800
 1397TIP3    H125606   4.346   2.956   2.731 -0.7012 -0.4409 -0.8435
 1397TIP3    H225607   4.447   3.042   2.657 -0.3993 -0.2149 -0.1681
 1398TIP3   OH225608   2.723   3.832   3.187  0.1987 -0.8124 -0.2052
 1398TIP3    H125609   2.776   3.780   3.247  0.8099 -1.0464 -0.9408
 1398TIP3    H225610   2.770   3.828   3.104 -0.2063  0.1877 -0.4927
 1399TIP3   OH225611   1.125   1.344  15.527 -0.2525 -0.2070 -0.5504
 1399TIP3    H125612   1.053   1.330  15.466 -0.0882 -1.3568 -0.4861
 1399TIP3    H225613   1.133   1.262  15.575  0.8949  0.0073 -0.3457
 1400TIP3   OH225614   6.342   6.138  14.552  0.0175  0.2435  0.5885
 1400TIP3    H125615   6.278   6.138  14.481  1.0975  0.7189 -0.4065
 1400TIP3    H225616   6.378   6.049  14.552  0.8989  0.5893 -0.2880
 1401TIP3   OH225617   4.293   0.447   4.796 -0.1633  0.4178 -0.0499
 1401TIP3    H125618   4.203   0.414   4.804  0.3650 -0.6104  2.0009
 1401TIP3    H225619   4.300   0.513   4.864  0.6379  0.4861 -0.1984
 1402TIP3   OH225620   4.737   2.168  14.932 -0.0434 -1.2756 -0.1156
 1402TIP3    H125621   4.735   2.145  14.839  0.3601 -3.6037  0.4209
 1402TIP3    H225622   4.830   2.170  14.954 -0.0847  0.5151 -0.0327
 1403TIP3   OH225623   2.329   4.346  15.939  0.5720 -0.1714 -0.6164
 1403TIP3    H125624   2.409   4.338  15.992 -0.5856  0.1533  1.2445
 1403TIP3    H225625   2.268   4.283  15.979  0.0931 -0.8573 -2.4054
 1404TIP3   OH225626   1.381   3.501   0.581 -0.7416 -0.2158  0.0391
 1404TIP3    H125627   1.405   3.548   0.662  2.3354 -2.1692  0.3362
 1404TIP3    H225628   1.380   3.409   0.606  1.0691 -0.9250 -2.2880
 1405TIP3   OH225629   6.396   3.826  13.922  0.5365  0.1633  0.3950
 1405TIP3    H125630   6.440   3.750  13.959 -0.1802 -0.5026 -0.1042
 1405TIP3    H225631   6.463   3.895  13.922  1.8973 -1.1156 -1.2912
 1406TIP3   OH225632   1.574   0.828  12.099  0.0626 -0.3232  0.2334
 1406TIP3    H125633   1.580   0.835  12.003  2.5259  1.3807  0.4823
 1406TIP3    H225634   1.500   0.884  12.122  0.6304  0.7468 -0.5106
 1407TIP3   OH225635   2.931   6.656  14.620  0.4540  0.3267 -0.0193
 1407TIP3    H125636   2.889   6.706  14.690 -1.2382 -0.4498 -0.4311
 1407TIP3    H225637   2.858   6.612  14.576  1.8256 -1.9234 -0.1101
 1408TIP3   OH225638   4.056   2.874   3.236 -0.0558 -0.4628 -0.1799
 1408TIP3    H125639   4.127   2.836   3.289 -0.5487 -0.4273  0.5197
 1408TIP3    H225640   4.066   2.969   3.249 -0.1698 -0.4542 -0.1544
 1409TIP3   OH225641   3.497   6.556  11.407  0.1868  0.0009  0.3026
 1409TIP3    H125642   3.482   6.521  11.319  0.3453  0.9775 -0.1254
 1409TIP3    H225643   3.416   6.602  11.429  0.1099 -0.3253  0.7159
 1410TIP3   OH225644   3.775   3.738   1.163  0.2004  0.6153  0.1222
 1410TIP3    H125645   3.709   3.783   1.110 -0.9299 -0.6836  0.3998
 1410TIP3    H225646   3.797   3.660   1.112 -0.4566 -0.3404  1.2828
 1411TIP3   OH225647   4.259   3.574  11.578  0.5999 -0.1914  0.1506
 1411TIP3    H125648   4.312   3.603  11.504  1.1803 -0.0631  0.6094
 1411TIP3    H225649   4.206   3.503  11.543  0.1732  0.5047 -0.6334
 1412TIP3   OH225650   4.708   5.379  13.528 -0.1929 -0.4050  0.4182
 1412TIP3    H125651   4.723   5.429  13.448  1.3934 -3.2373 -1.1433
 1412TIP3    H225652   4.796   5.358  13.560 -0.7706 -3.6588  0.0326
 1413TIP3   OH225653   1.999   0.480  12.229 -0.0222 -0.0341  0.0526
 1413TIP3    H125654   2.094   0.488  12.218 -0.0887 -0.2551 -0.6773
 1413TIP3    H225655   1.962   0.514  12.148 -0.5081 -1.4198 -0.3279
 1414TIP3   OH225656   1.087   1.424  14.766 -0.2785 -0.2243  0.5356
 1414TIP3    H125657   1.131   1.404  14.684 -0.7038 -0.0181  0.2571
 1414TIP3    H225658   1.011   1.366  14.768  0.4084 -1.1148  1.3657
 1415TIP3   OH225659   3.376   6.455  10.187  0.1687  0.2309 -0.2585
 1415TIP3    H125660   3.462   6.493  10.204  0.2292  0.7795 -1.6926
 1415TIP3    H225661   3.314   6.519  10.221  0.3064  0.6330 -0.7566
 1416TIP3   OH225662   3.553   5.333  17.009 -0.1030  0.9080  0.2588
 1416TIP3    H125663   3.624   5.336  16.945  0.5476  0.1083  0.9423
 1416TIP3    H225664   3.498   5.261  16.980  0.9306 -0.3431  1.3642
 1417TIP3   OH225665   0.720   5.030   2.689  0.6455  0.0467 -1.0492
 1417TIP3    H125666   0.783   5.035   2.761  2.0841 -0.6322 -2.2456
 1417TIP3    H225667   0.764   4.979   2.621 -1.0438 -0.0998 -2.0703
 1418TIP3   OH225668   6.690   5.280  12.844  0.8093 -0.2508  0.0103
 1418TIP3    H125669   6.771   5.270  12.794  0.7518 -1.6147  0.1675
 1418TIP3    H225670   6.640   5.201  12.824  0.5146 -0.5183  1.7085
 1419TIP3   OH225671   1.605   1.475   2.499 -0.3311  0.2434  0.7711
 1419TIP3    H125672   1.569   1.390   2.523  1.0748 -0.6657 -0.2241
 1419TIP3    H225673   1.551   1.539   2.546 -1.8721 -1.1538  0.9359
 1420TIP3   OH225674   0.367   5.070  13.453  0.3019  0.7018  0.6443
 1420TIP3    H125675   0.316   5.119  13.388  1.7896  2.0080  0.4502
 1420TIP3    H225676   0.329   4.982  13.451 -1.4615  1.4480 -0.0268
 1421TIP3   OH225677   2.889   3.879   1.591  0.6617 -0.9387 -0.2239
 1421TIP3    H125678   2.911   3.804   1.646  0.8391 -1.9520 -1.6384
 1421TIP3    H225679   2.959   3.942   1.608 -0.0464 -0.6626  1.7433
 1422TIP3   OH225680   4.317   6.368   0.175  0.3095  0.1794 -0.2601
 1422TIP3    H125681   4.333   6.288   0.124  1.2720  0.7159 -0.8215
 1422TIP3    H225682   4.404   6.391   0.209 -0.7204 -1.6922  3.9220
 1423TIP3   OH225683   4.784   5.607  16.325 -0.0316  0.2144 -0.6200
 1423TIP3    H125684   4.748   5.629  16.239  0.9286 -0.7844 -1.2873
 1423TIP3    H225685   4.773   5.512  16.332  2.7600 -0.1636 -0.9806
 1424TIP3   OH225686   4.143   3.824   2.054 -0.0633  0.4040  0.5442
 1424TIP3    H125687   4.130   3.730   2.064  2.0509  0.0143  0.0095
 1424TIP3    H225688   4.219   3.843   2.110 -0.2602  1.7258  0.3770
 1425TIP3   OH225689   2.701   0.100   0.611 -0.4912  0.2434  0.6307
 1425TIP3    H125690   2.658   0.156   0.547  0.5452 -1.1016 -1.3092
 1425TIP3    H225691   2.740   0.160   0.673 -0.8707  1.6164 -0.4259
 1426TIP3   OH225692   0.283   4.826  13.724  0.7419  0.4021  0.2041
 1426TIP3    H125693   0.338   4.755  13.689  0.6091  1.0559 -1.3648
 1426TIP3    H225694   0.200   4.816  13.678  0.6755  1.4870  0.0855
 1427TIP3   OH225695   5.502   2.697  16.578  0.5980 -0.1477 -0.3788
 1427TIP3    H125696   5.509   2.790  16.554 -0.7299  0.2714  0.8381
 1427TIP3    H225697   5.570   2.685  16.645  1.7939 -0.4397 -1.6076
 1428TIP3   OH225698   0.574   1.885   5.080  0.2894  0.5660 -0.4547
 1428TIP3    H125699   0.543   1.907   5.168  1.0953 -0.2636  0.0487
 1428TIP3    H225700   0.667   1.868   5.092  0.1396 -0.8556 -1.2305
 1429TIP3   OH225701   0.878   5.099   3.080  0.1508  0.2116 -0.6686
 1429TIP3    H125702   0.911   5.026   3.028  1.5599 -0.8305  1.6139
 1429TIP3    H225703   0.949   5.119   3.140 -1.1775  1.8593  0.3794
 1430TIP3   OH225704   0.229   1.211   2.015  0.1668  0.1648 -0.2717
 1430TIP3    H125705   0.156   1.248   2.065 -1.2750  0.7899 -2.7291
 1430TIP3    H225706   0.307   1.253   2.051 -0.6793 -0.2956  2.2076
 1431TIP3   OH225707   4.008   6.417  16.263 -0.4899  0.0574  0.3167
 1431TIP3    H125708   4.091   6.464  16.251  0.1711 -1.0105  0.6179
 1431TIP3    H225709   3.961   6.430  16.181  0.2851  0.0550 -0.1290
 1432TIP3   OH225710   1.632   5.622   3.818 -0.0090  0.0237 -0.3724
 1432TIP3    H125711   1.710   5.586   3.860  1.4727  0.7729 -2.4052
 1432TIP3    H225712   1.577   5.545   3.799 -0.5903 -0.3465  2.5973
 1433TIP3   OH225713   2.365   0.745  14.159 -0.0229 -0.3593 -0.0223
 1433TIP3    H125714   2.366   0.835  14.191 -0.6802 -0.3984  0.1238
 1433TIP3    H225715   2.443   0.737  14.105 -0.2907  0.4714 -0.5259
 1434TIP3   OH225716   5.976   1.603  11.794  0.4769 -0.7173  0.0896
 1434TIP3    H125717   5.991   1.681  11.741  0.7004 -1.3642 -0.8010
 1434TIP3    H225718   5.904   1.558  11.751 -2.2425  0.9047  2.7379
 1435TIP3   OH225719   1.176   4.371  16.305  0.6925  0.1655 -0.1763
 1435TIP3    H125720   1.229   4.386  16.384 -1.2241  1.8714  0.8579
 1435TIP3    H225721   1.203   4.441  16.245 -1.2776  1.9133  0.8853
 1436TIP3   OH225722   2.732   4.628   0.550 -0.0058  0.3971 -0.6824
 1436TIP3    H125723   2.665   4.566   0.579 -1.4345  2.1064 -0.2714
 1436TIP3    H225724   2.815   4.588   0.577 -0.5189 -3.3397 -4.0039
 1437TIP3   OH225725   5.653   6.770  15.788 -0.5379  0.3245  0.0304
 1437TIP3    H125726   5.684   6.851  15.747  0.7966 -0.0087  0.3664
 1437TIP3    H225727   5.588   6.799  15.851 -0.9969  1.0312 -0.7562
 1438TIP3   OH225728   6.576   4.066  12.395 -0.4165 -0.7131  0.3923
 1438TIP3    H125729   6.540   4.092  12.310  1.3795  0.4160 -0.0349
 1438TIP3    H225730   6.671   4.072  12.384 -0.0794 -3.1701  1.6668
 1439TIP3   OH225731   3.627   2.116   3.017  0.4909 -0.4289  0.0050
 1439TIP3    H125732   3.670   2.154   2.941 -0.4743 -0.0947 -0.3887
 1439TIP3    H225733   3.644   2.023   3.011  1.1205 -0.3013 -0.1675
 1440TIP3   OH225734   3.557   2.941  17.218  0.2853  0.0058 -0.0879
 1440TIP3    H125735   3.485   2.999  17.194  0.0600 -1.0097 -1.9330
 1440TIP3    H225736   3.636   2.988  17.193  0.0767 -0.7517 -2.2919
 1441TIP3   OH225737   5.100   4.338   4.635  0.2964  0.0428 -0.5081
 1441TIP3    H125738   5.028   4.383   4.680  0.4037  0.6403 -0.9377
 1441TIP3    H225739   5.173   4.399   4.639  0.0982  0.4050 -2.1533
 1442TIP3   OH225740   4.328   0.887  13.714  0.3879  0.4510 -0.4124
 1442TIP3    H125741   4.402   0.946  13.720  0.2177  0.5429  0.7901
 1442TIP3    H225742   4.359   0.804  13.751  0.2819  0.1112 -1.0683
 1443TIP3   OH225743   5.539   4.768  12.095  0.7887 -0.6715 -0.0456
 1443TIP3    H125744   5.515   4.839  12.035  0.0141  0.0870  1.1136
 1443TIP3    H225745   5.515   4.802  12.181 -0.4214 -2.6920  0.4463
 1444TIP3   OH225746   4.850   0.969   1.190 -0.7972 -0.3984  0.0326
 1444TIP3    H125747   4.822   0.878   1.184  1.0087 -0.9396 -0.5361
 1444TIP3    H225748   4.782   1.018   1.144 -1.0628 -1.6132 -0.9009
 1445TIP3   OH225749   4.029   2.822   0.088  0.1961 -0.2069 -0.5761
 1445TIP3    H125750   4.011   2.904   0.041 -2.2267  0.0811  0.8068
 1445TIP3    H225751   3.948   2.773   0.084  0.4337 -0.8689  1.9408
 1446TIP3   OH225752   1.841   1.798   3.835  0.4372  0.1554 -0.1204
 1446TIP3    H125753   1.928   1.830   3.858  0.4012  1.7270 -2.0278
 1446TIP3    H225754   1.857   1.716   3.789  0.8793  0.0905  0.1472
 1447TIP3   OH225755   6.543   2.976  12.908 -0.2450 -0.2086 -0.3642
 1447TIP3    H125756   6.522   3.031  12.833 -0.7152  0.4433  0.2339
 1447TIP3    H225757   6.514   2.888  12.882  2.4899 -0.6357 -2.1677
 1448TIP3   OH225758   1.090   4.256   3.698 -0.2555 -0.1213 -0.3867
 1448TIP3    H125759   1.129   4.343   3.712 -0.0526 -0.3824  0.6790
 1448TIP3    H225760   1.085   4.248   3.602 -1.5904  1.6513 -0.5119
 1449TIP3   OH225761   3.207   0.235  14.273 -0.3531 -0.1274  0.6049
 1449TIP3    H125762   3.111   0.235  14.280 -0.6558  1.9210 -2.3791
 1449TIP3    H225763   3.231   0.143  14.273 -2.3337 -0.6790  1.2883
 1450TIP3   OH225764   1.338   4.456  16.504  0.1727  0.1197 -0.9356
 1450TIP3    H125765   1.387   4.510  16.566  0.2934  0.1296 -1.0414
 1450TIP3    H225766   1.385   4.373  16.501  1.1615  0.7018 -2.3133
 1451TIP3   OH225767   1.771   1.264  14.353 -0.1772 -0.0772  0.0135
 1451TIP3    H125768   1.842   1.216  14.395  0.5582  0.7047 -0.3266
 1451TIP3    H225769   1.705   1.274  14.422  0.3496 -0.1743  0.5360
 1452TIP3   OH225770   4.524   2.324   3.502  0.0842 -0.1430  0.3517
 1452TIP3    H125771   4.616   2.334   3.526 -0.7814  1.7742  3.1354
 1452TIP3    H225772   4.481   2.294   3.582 -2.1813  2.0515  0.0290
 1453TIP3   OH225773   6.044   2.496   3.023  0.0342  0.5411 -0.3201
 1453TIP3    H125774   6.063   2.452   3.106  0.5795  2.1306  0.4202
 1453TIP3    H225775   5.952   2.474   3.005  0.0979 -0.3440  0.3637
 1454TIP3   OH225776   4.203   3.316  15.030 -0.4819  0.4225 -0.7412
 1454TIP3    H125777   4.202   3.256  15.105  1.0355  1.9808  0.5863
 1454TIP3    H225778   4.284   3.367  15.042  0.5147 -0.2073 -4.1859
 1455TIP3   OH225779   5.524   2.017  14.713 -0.0362 -0.2408  0.2386
 1455TIP3    H125780   5.537   1.932  14.754 -0.5962 -0.3144  0.2674
 1455TIP3    H225781   5.585   2.017  14.638 -0.6777 -1.0247 -0.2871
 1456TIP3   OH225782   2.087   0.755   5.821  0.2005 -0.0879 -0.5250
 1456TIP3    H125783   2.085   0.663   5.848 -1.4580 -0.4206 -1.7126
 1456TIP3    H225784   1.997   0.785   5.831  0.5649  1.1725 -0.9565
 1457TIP3   OH225785   1.024   2.571   1.120 -0.3062  0.4093  0.2273
 1457TIP3    H125786   1.118   2.558   1.116 -0.5107 -0.8560 -0.7269
 1457TIP3    H225787   1.000   2.547   1.210 -0.0113 -1.4470 -0.1675
 1458TIP3   OH225788   3.222   2.117   5.647 -0.6025  0.4573  0.6848
 1458TIP3    H125789   3.214   2.041   5.589 -0.9931 -0.0705  1.4214
 1458TIP3    H225790   3.133   2.134   5.678 -0.3495  0.5268  1.3873
 1459TIP3   OH225791   2.852   6.489  13.161 -0.2260  0.4105  0.1495
 1459TIP3    H125792   2.782   6.453  13.106 -0.8370  1.1048  0.4611
 1459TIP3    H225793   2.932   6.477  13.109 -0.4664 -1.0466  0.1008
 1460TIP3   OH225794   2.039   4.139  14.853 -0.4324 -0.0398 -0.3317
 1460TIP3    H125795   2.069   4.169  14.767  0.0917  0.9614  0.1935
 1460TIP3    H225796   2.064   4.046  14.855  0.1606  0.0928 -0.9958
 1461TIP3   OH225797   0.198   1.451  16.537  0.6252  0.3195  0.2594
 1461TIP3    H125798   0.230   1.532  16.577  1.0462 -0.4659  1.5381
 1461TIP3    H225799   0.121   1.428  16.589 -0.0690  0.4202 -0.7196
 1462TIP3   OH225800   6.117   5.831  10.008 -0.1704  0.0633  0.3526
 1462TIP3    H125801   6.126   5.915  10.053 -0.6056  0.7449 -0.8071
 1462TIP3    H225802   6.061   5.779  10.066 -2.2443  1.5711 -0.2504
 1463TIP3   OH225803   2.962   3.321  12.263 -0.2151 -0.2836  0.1279
 1463TIP3    H125804   3.039   3.290  12.215 -0.4472 -0.2266 -0.2890
 1463TIP3    H225805   2.955   3.413  12.240 -0.9031 -0.4905 -0.5208
 1464TIP3   OH225806   1.209   3.381  10.583  0.1286 -0.7419 -0.1564
 1464TIP3    H125807   1.297   3.411  10.562 -0.6973  2.2014  0.3744
 1464TIP3    H225808   1.199   3.399  10.677 -1.1598 -0.6773 -0.2920
 1465TIP3   OH225809   0.323   0.529  12.184  0.5072  0.4235  0.2492
 1465TIP3    H125810   0.268   0.597  12.145 -1.9507 -0.9793  1.1386
 1465TIP3    H225811   0.373   0.574  12.252  0.0293  1.6398 -0.1964
 1466TIP3   OH225812   1.277   2.664   5.491  0.4607  0.1086 -0.2334
 1466TIP3    H125813   1.298   2.571   5.503 -0.0992 -0.0295 -0.3162
 1466TIP3    H225814   1.320   2.708   5.564  1.3877 -0.1212 -0.6280
 1467TIP3   OH225815   0.051   2.566  15.462  0.1962 -0.5313  0.4290
 1467TIP3    H125816   0.001   2.510  15.402 -0.5292  0.7612 -0.1813
 1467TIP3    H225817   0.102   2.623  15.405 -0.3199  0.5508  1.0387
 1468TIP3   OH225818   0.301   2.447   4.872  0.1971 -0.0444 -0.1588
 1468TIP3    H125819   0.296   2.359   4.835 -1.4404  0.2895 -0.8030
 1468TIP3    H225820   0.344   2.435   4.957  0.5646 -1.3696 -0.5205
 1469TIP3   OH225821   4.468   0.713  11.588 -0.1612 -0.0698 -0.4324
 1469TIP3    H125822   4.548   0.660  11.594  0.7534  1.5248  3.0923
 1469TIP3    H225823   4.498   0.798  11.555 -1.0212 -0.5242 -2.4676
 1470TIP3   OH225824   2.991   5.258  11.559  0.1751 -0.2766 -0.2054
 1470TIP3    H125825   2.909   5.305  11.542  1.3296  2.1635  0.6476
 1470TIP3    H225826   2.976   5.214  11.643  0.0120  0.8654  0.3757
 1471TIP3   OH225827   4.358   5.454  13.511  0.2743 -0.1604  0.1426
 1471TIP3    H125828   4.275   5.497  13.530  0.2433 -0.0783 -0.1771
 1471TIP3    H225829   4.424   5.520  13.532  0.1638  0.6442 -1.9591
 1472TIP3   OH225830   0.155   0.750   5.163 -0.4366 -0.1961 -0.2452
 1472TIP3    H125831   0.117   0.669   5.195 -1.6018 -0.3310 -1.9060
 1472TIP3    H225832   0.238   0.724   5.122  0.2040 -0.2521  1.0730
 1473TIP3   OH225833   1.742   0.637   4.989 -0.0547 -0.8359 -0.7439
 1473TIP3    H125834   1.784   0.553   4.974 -0.4565 -1.1180 -0.3245
 1473TIP3    H225835   1.783   0.697   4.927 -0.1415 -1.4627 -1.4122
 1474TIP3   OH225836   2.889   6.121   3.038  0.1126  0.2683 -0.1999
 1474TIP3    H125837   2.842   6.038   3.030 -0.4071  0.4990  0.4257
 1474TIP3    H225838   2.903   6.132   3.133 -0.9739  1.5385 -0.1732
 1475TIP3   OH225839   2.449   6.236  14.050 -0.1680 -0.0457 -0.2752
 1475TIP3    H125840   2.369   6.207  14.094  0.1095 -2.4657 -1.2721
 1475TIP3    H225841   2.513   6.166  14.069  1.2044  1.0100 -0.9149
 1476TIP3   OH225842   5.389   3.977  15.283 -0.2291 -0.1379 -0.0969
 1476TIP3    H125843   5.437   4.050  15.242  0.7507 -0.4004  0.5390
 1476TIP3    H225844   5.306   3.973  15.237  0.0264  0.8935 -0.6642
 1477TIP3   OH225845   2.424   2.679  13.179  0.1356  0.2891  0.0550
 1477TIP3    H125846   2.437   2.638  13.265 -0.4004  0.1305  0.0591
 1477TIP3    H225847   2.381   2.611  13.126  2.2840 -0.3318 -0.9570
 1478TIP3   OH225848   3.910   0.414  15.674  0.1243 -0.0475 -0.2820
 1478TIP3    H125849   3.922   0.465  15.594 -0.6339  0.0837 -0.3193
 1478TIP3    H225850   3.818   0.388  15.672  0.1274 -0.1373  0.4903
 1479TIP3   OH225851   3.330   1.093   4.337  0.8678  0.1451 -0.1043
 1479TIP3    H125852   3.334   1.031   4.410 -0.1519 -0.6899 -0.7470
 1479TIP3    H225853   3.237   1.099   4.315  1.0542  1.2309 -0.6333
 1480TIP3   OH225854   5.108   1.883  16.037 -0.7462 -0.1679 -0.0997
 1480TIP3    H125855   5.013   1.871  16.045 -0.8875  1.7336  1.5964
 1480TIP3    H225856   5.117   1.969  15.995  0.2382  0.0387  0.5269
 1481TIP3   OH225857   5.075   1.609   3.306 -0.1966  0.3531  0.3515
 1481TIP3    H125858   5.075   1.703   3.323 -2.8374  0.2815  1.0210
 1481TIP3    H225859   5.087   1.569   3.393  0.8418  0.0495  0.0798
 1482TIP3   OH225860   1.745   5.211   3.108  0.0530  0.1386  0.1867
 1482TIP3    H125861   1.779   5.179   3.192  0.1274 -1.9564 -0.6099
 1482TIP3    H225862   1.667   5.262   3.131 -0.5169 -1.2839  1.4466
 1483TIP3   OH225863   0.074   2.938  10.668 -0.4784  0.3374  0.6040
 1483TIP3    H125864   0.096   2.857  10.623 -1.3160  1.0341 -1.1055
 1483TIP3    H225865   0.137   2.943  10.740  0.9686 -0.7521 -0.5568
 1484TIP3   OH225866   0.992   4.080  11.566  0.3737 -0.2689  0.6678
 1484TIP3    H125867   1.064   4.030  11.604 -1.1778 -2.2214  1.0922
 1484TIP3    H225868   0.923   4.077  11.632 -0.7411  0.0753 -0.4673
 1485TIP3   OH225869   4.845   3.586  15.079 -0.2096  0.2373 -0.3847
 1485TIP3    H125870   4.750   3.583  15.086 -0.1582  2.9590  2.0264
 1485TIP3    H225871   4.864   3.672  15.042  1.3640 -0.0501 -0.2767
 1486TIP3   OH225872   4.895   5.870  16.423  0.5172 -0.2559 -0.0102
 1486TIP3    H125873   4.883   5.775  16.417  1.5985 -0.5884  2.5903
 1486TIP3    H225874   4.859   5.894  16.508 -1.6332  2.0106 -1.4893
 1487TIP3   OH225875   1.012   3.468  11.449  0.2670  0.0487 -0.0779
 1487TIP3    H125876   0.977   3.513  11.526 -0.6120  1.6713 -1.3801
 1487TIP3    H225877   0.955   3.393  11.437 -0.7560  0.8447 -0.2464
 1488TIP3   OH225878   3.377   2.761   3.357 -0.3091  0.0569 -0.0319
 1488TIP3    H125879   3.358   2.688   3.298  0.6712 -0.3454  0.1407
 1488TIP3    H225880   3.294   2.809   3.363 -0.9953 -1.1124 -0.0349
 1489TIP3   OH225881   2.685   2.594   0.120  0.5147  0.2196  0.3751
 1489TIP3    H125882   2.686   2.506   0.157  0.4577  0.3451  0.6734
 1489TIP3    H225883   2.678   2.580   0.025  0.1178 -0.0909  0.4472
 1490TIP3   OH225884   0.036   0.330   6.373  0.4868 -0.0050  0.1681
 1490TIP3    H125885  -0.031   0.263   6.361  2.4462 -1.6013 -2.3045
 1490TIP3    H225886  -0.004   0.411   6.341 -0.3632 -0.9090 -1.1008
 1491TIP3   OH225887   4.571   3.103  13.171 -0.3217  0.4435 -0.0875
 1491TIP3    H125888   4.487   3.148  13.159  0.4593  2.0250  0.2215
 1491TIP3    H225889   4.598   3.079  13.082 -0.7424  0.5885 -0.2571
 1492TIP3   OH225890   0.592   6.021  16.062  0.2722 -0.2596  0.4732
 1492TIP3    H125891   0.567   5.966  16.136 -0.7264 -0.6239 -0.1257
 1492TIP3    H225892   0.644   6.091  16.101  0.5054 -0.9409  1.4006
 1493TIP3   OH225893   5.045   2.844   5.215  0.6528 -0.2981 -0.8769
 1493TIP3    H125894   5.101   2.922   5.213  0.2881 -0.0395 -1.3390
 1493TIP3    H225895   5.105   2.771   5.205  0.8303  0.0258 -2.4461
 1494TIP3   OH225896   5.351   6.032  12.061  0.2634 -0.4652 -0.2544
 1494TIP3    H125897   5.330   6.009  12.151  2.0186  0.9327  0.5391
 1494TIP3    H225898   5.354   5.948  12.015  1.3062 -1.3781  1.4250
 1495TIP3   OH225899   3.785   4.091  16.222  0.1472 -0.3911 -0.0369
 1495TIP3    H125900   3.839   4.015  16.242  0.6326 -0.1463 -0.4133
 1495TIP3    H225901   3.802   4.153  16.293 -2.0871 -1.5657  1.6006
 1496TIP3   OH225902   2.091   0.710   0.279  0.0861 -0.0850  0.5133
 1496TIP3    H125903   2.150   0.669   0.341 -0.7717 -0.0798  1.3354
 1496TIP3    H225904   2.029   0.759   0.333 -0.4993  0.1441 -0.3524
 1497TIP3   OH225905   2.572   3.227   4.073  0.0028 -0.7730 -0.4671
 1497TIP3    H125906   2.498   3.212   4.014 -1.5340 -0.6881  1.4187
 1497TIP3    H225907   2.572   3.152   4.132 -0.0783  0.4414  1.0856
 1498TIP3   OH225908   5.797   4.255  10.699  0.2604 -0.3421 -0.2762
 1498TIP3    H125909   5.728   4.217  10.644  1.1505 -1.9958 -0.2678
 1498TIP3    H225910   5.872   4.264  10.640  0.3601  0.5378 -0.0321
 1499TIP3   OH225911   0.788   4.631   0.118  0.3268 -0.3053 -0.1826
 1499TIP3    H125912   0.801   4.537   0.133  1.1384 -0.4223 -1.5509
 1499TIP3    H225913   0.875   4.669   0.129 -0.0221  0.3131  0.4783
 1500TIP3   OH225914   5.701   0.341  12.095  0.9180  0.6246 -0.1864
 1500TIP3    H125915   5.748   0.330  12.012  1.8235  2.4496  0.0638
 1500TIP3    H225916   5.738   0.421  12.133 -1.4826  1.4056  0.6045
 1501TIP3   OH225917   1.305   0.100   5.776 -0.1804 -0.1286  0.1685
 1501TIP3    H125918   1.322   0.167   5.843  1.0530  0.6408 -0.8730
 1501TIP3    H225919   1.374   0.036   5.789  0.7219  0.5783 -1.0450
 1502TIP3   OH225920   1.567   0.550   2.741  0.0290 -0.3984 -0.2526
 1502TIP3    H125921   1.480   0.583   2.763  0.4173  0.1923  0.4056
 1502TIP3    H225922   1.628   0.611   2.783  0.7741 -2.3395  1.6322
 1503TIP3   OH225923   1.857   4.660   2.788  0.2352 -0.2082 -0.5648
 1503TIP3    H125924   1.915   4.731   2.816  0.5816 -0.5309 -0.4506
 1503TIP3    H225925   1.817   4.628   2.870 -0.9083  0.7049 -0.7621
 1504TIP3   OH225926   5.830   3.678  15.083  0.3348 -0.8172  0.1214
 1504TIP3    H125927   5.882   3.750  15.049  1.0769 -1.6442 -0.5343
 1504TIP3    H225928   5.755   3.720  15.125  0.2920  0.2858 -1.0321
 1505TIP3   OH225929   6.520   2.845  11.880  0.7927 -0.6022  0.3005
 1505TIP3    H125930   6.612   2.863  11.857  0.8401  0.2809  1.1493
 1505TIP3    H225931   6.489   2.787  11.811  2.2850 -1.7003  0.5311
 1506TIP3   OH225932   6.288   6.718  11.109 -0.0990  0.2658 -0.0895
 1506TIP3    H125933   6.263   6.791  11.053  0.1183  0.5020  0.1170
 1506TIP3    H225934   6.318   6.760  11.190 -2.9112 -0.1357  1.2304
 1507TIP3   OH225935   5.113   3.677  16.061  0.0580 -0.6699 -0.2812
 1507TIP3    H125936   5.056   3.677  15.984 -0.7842  0.7252  0.3077
 1507TIP3    H225937   5.190   3.727  16.034 -0.5146  0.3573 -0.0380
 1508TIP3   OH225938   6.072   3.016   1.516 -0.1566 -0.4118  1.0533
 1508TIP3    H125939   6.094   2.925   1.535  1.7600 -0.7903 -2.5338
 1508TIP3    H225940   6.003   3.011   1.451 -0.4473  0.7294  1.2596
 1509TIP3   OH225941   2.108   5.110   1.598  0.4083  0.6825 -0.0051
 1509TIP3    H125942   2.115   5.073   1.686 -1.2330 -0.5228 -0.3515
 1509TIP3    H225943   2.198   5.133   1.574  0.9962  0.1151  1.5832
 1510TIP3   OH225944   6.037   1.429   6.090 -0.0977  0.0997 -0.4914
 1510TIP3    H125945   6.003   1.364   6.151  0.0914  0.3856 -0.0735
 1510TIP3    H225946   5.968   1.495   6.085 -0.8755 -0.8102 -1.9871
 1511TIP3   OH225947   1.674   3.857   2.714 -0.3402 -0.0040  0.4531
 1511TIP3    H125948   1.690   3.923   2.782 -0.0286  0.7791 -0.3647
 1511TIP3    H225949   1.584   3.872   2.686 -0.5208 -0.4301  0.7989
 1512TIP3   OH225950   3.891   2.459  12.261  0.4527  0.4170 -0.2799
 1512TIP3    H125951   3.958   2.515  12.300  0.6193 -1.3314  2.0152
 1512TIP3    H225952   3.936   2.412  12.191  0.6038  2.2060 -1.4188
 1513TIP3   OH225953   1.677   0.460   0.045  0.1153 -0.0949 -0.0997
 1513TIP3    H125954   1.752   0.435   0.100  0.9006  0.2675 -0.9905
 1513TIP3    H225955   1.610   0.487   0.108  0.4981 -1.0501  0.7342
 1514TIP3   OH225956   3.602   0.573  11.814 -0.0972 -0.2907 -0.5386
 1514TIP3    H125957   3.584   0.490  11.858  3.0337 -0.3857  0.7325
 1514TIP3    H225958   3.659   0.619  11.875 -1.3160  2.5700 -1.5023
 1515TIP3   OH225959   3.975   3.563   1.585 -0.6642 -0.4267 -0.1167
 1515TIP3    H125960   4.056   3.551   1.536  0.6828  0.3026  1.8724
 1515TIP3    H225961   3.938   3.475   1.594  0.2017 -0.8305 -0.5401
 1516TIP3   OH225962   4.785   1.492   4.526  0.0377 -0.0966  0.2501
 1516TIP3    H125963   4.839   1.476   4.604  0.7111 -0.1174 -0.2136
 1516TIP3    H225964   4.804   1.417   4.469 -1.8651 -1.0468  0.8275
 1517TIP3   OH225965   5.350   5.558   4.073  0.1777  0.3758  0.4772
 1517TIP3    H125966   5.258   5.572   4.093 -0.0120 -0.5333  0.2675
 1517TIP3    H225967   5.392   5.542   4.158  0.0160  0.0895  0.5031
 1518TIP3   OH225968   3.790   2.362  11.049  0.4954 -0.3571 -0.6420
 1518TIP3    H125969   3.876   2.398  11.026 -0.0789  1.1292 -0.5619
 1518TIP3    H225970   3.776   2.291  10.987  0.3951  1.4804 -2.7588
 1519TIP3   OH225971   3.014   0.991   1.838  0.0149 -0.1408 -0.1073
 1519TIP3    H125972   2.999   1.078   1.800 -1.3050 -0.3303 -0.0272
 1519TIP3    H225973   3.041   1.009   1.928  1.2263  0.2348 -0.5299
 1520TIP3   OH225974   4.418   0.236   4.193 -0.1378 -0.0226  0.2919
 1520TIP3    H125975   4.467   0.172   4.244  0.2205 -1.2168 -1.5138
 1520TIP3    H225976   4.480   0.308   4.179  0.3064 -0.4364  0.1105
 1521TIP3   OH225977   2.947   2.526   4.435 -0.1394  0.5229  0.0862
 1521TIP3    H125978   2.950   2.602   4.493 -1.4166 -0.0990  0.9739
 1521TIP3    H225979   2.948   2.451   4.493  0.2829 -0.1404 -0.7677
 1522TIP3   OH225980   3.535   6.209  13.423  0.3349  0.0028  0.9683
 1522TIP3    H125981   3.619   6.225  13.465 -0.5599  1.6320  2.2061
 1522TIP3    H225982   3.484   6.288  13.440 -1.2665 -0.7341 -0.2251
 1523TIP3   OH225983   4.253   5.939   6.015  0.2879 -0.0927  0.7115
 1523TIP3    H125984   4.194   6.002   6.057  0.8925  1.4583 -0.7212
 1523TIP3    H225985   4.215   5.924   5.929  1.5443  0.3150  0.0710
 1524TIP3   OH225986   4.437   5.962   0.922  0.6007  0.0075  0.4455
 1524TIP3    H125987   4.358   5.919   0.956  0.4386  0.4578  0.6483
 1524TIP3    H225988   4.425   5.963   0.827  0.1597  0.4673  0.5064
 1525TIP3   OH225989   0.743   1.528  12.610 -0.3469 -1.2393 -0.0332
 1525TIP3    H125990   0.732   1.585  12.534  0.7638  3.5307  3.1812
 1525TIP3    H225991   0.655   1.517  12.645 -0.2324  1.7198  1.3919
 1526TIP3   OH225992   3.471   0.506   1.330  0.2240 -0.2291  0.0478
 1526TIP3    H125993   3.483   0.601   1.326  0.2160 -0.1753  1.1697
 1526TIP3    H225994   3.547   0.475   1.379 -0.8712 -0.5769  1.5334
 1527TIP3   OH225995   2.616   2.714  14.946  0.0667 -0.2883 -0.4755
 1527TIP3    H125996   2.620   2.774  15.020  0.8781  0.9418 -1.4867
 1527TIP3    H225997   2.703   2.673  14.943  0.1164 -0.1659 -0.8542
 1528TIP3   OH225998   1.104   2.361   5.792  0.1038 -0.0237  0.4127
 1528TIP3    H125999   1.145   2.294   5.846 -0.7306 -1.8115 -1.1012
 1528TIP3    H226000   1.019   2.377   5.833  0.5581  0.5903  1.1328
 1529TIP3   OH226001   2.379   5.193   3.031  0.7001  0.6118 -0.2589
 1529TIP3    H126002   2.346   5.280   3.011 -0.6766  0.4833  1.3177
 1529TIP3    H226003   2.469   5.207   3.061  0.3500  1.5404  0.3705
 1530TIP3   OH226004   5.152   2.862  14.195  0.5448 -0.8180  0.0833
 1530TIP3    H126005   5.228   2.879  14.251  0.4822  0.0873 -0.0865
 1530TIP3    H226006   5.171   2.780  14.151  2.0830  0.1414 -1.0558
 1531TIP3   OH226007   4.014   4.166   5.392 -0.1581 -0.0162  0.1387
 1531TIP3    H126008   4.098   4.199   5.426  0.1226  1.1100 -1.6363
 1531TIP3    H226009   4.039   4.100   5.327 -0.6116  1.3384 -1.4320
 1532TIP3   OH226010   2.105   3.402   3.347 -0.1186 -0.2077 -0.2138
 1532TIP3    H126011   2.165   3.331   3.371 -0.9641 -0.0828  2.5149
 1532TIP3    H226012   2.158   3.482   3.353  0.3281 -0.4206 -1.3084
 1533TIP3   OH226013   5.030   2.867   1.337  0.2452  0.0454  0.0760
 1533TIP3    H126014   5.051   2.877   1.430 -1.2010 -1.4565  0.5813
 1533TIP3    H226015   5.102   2.813   1.302  1.5280  1.7671 -0.0084
 1534TIP3   OH226016   3.232   6.594   3.982 -0.4137 -0.1945 -0.0478
 1534TIP3    H126017   3.317   6.561   4.011 -0.1658 -0.8566 -1.4661
 1534TIP3    H226018   3.206   6.657   4.049  0.8115 -0.6043  0.8218
 1535TIP3   OH226019   1.246   5.646  16.023 -0.2044  0.4922 -0.0410
 1535TIP3    H126020   1.316   5.595  15.982  1.5345  4.2929 -2.0892
 1535TIP3    H226021   1.283   5.677  16.105  0.6967  2.7273 -1.2495
 1536TIP3   OH226022   1.489   5.026   1.185 -0.4959 -0.6173 -0.0457
 1536TIP3    H126023   1.535   5.006   1.103 -1.1296  0.8878 -0.7886
 1536TIP3    H226024   1.537   5.101   1.222 -0.5559 -0.9269  0.6754
 1537TIP3   OH226025   1.777   4.612   4.260  0.0866 -0.3615  0.0668
 1537TIP3    H126026   1.812   4.523   4.265 -0.1160 -0.3963  1.0288
 1537TIP3    H226027   1.846   4.667   4.296 -0.2848 -0.2718  0.6467
 1538TIP3   OH226028   5.697   1.319  14.963  0.1411 -0.3237 -0.3144
 1538TIP3    H126029   5.738   1.359  14.886 -0.1563  0.4817 -0.0579
 1538TIP3    H226030   5.661   1.393  15.012  1.3147 -0.7411  1.1834
 1539TIP3   OH226031   6.261   1.077   4.854  0.3258  0.3266 -0.5853
 1539TIP3    H126032   6.345   1.034   4.873  0.6953  0.7374 -1.2675
 1539TIP3    H226033   6.203   1.048   4.925  1.8909  2.4833  1.6854
 1540TIP3   OH226034   6.422   5.110  15.112  0.0996 -0.3382  0.0151
 1540TIP3    H126035   6.426   5.051  15.187 -0.6166  0.1387  0.4429
 1540TIP3    H226036   6.513   5.125  15.088  0.4299  0.8025  1.8395
 1541TIP3   OH226037   2.992   0.041   3.002  0.1972  0.0131 -0.0046
 1541TIP3    H126038   2.964   0.132   3.011  0.1100  0.0931 -1.0628
 1541TIP3    H226039   3.033   0.020   3.086  0.0984  0.9888  0.2866
 1542TIP3   OH226040   3.005   2.147   4.862  0.3357 -0.4604  0.1723
 1542TIP3    H126041   2.963   2.182   4.940 -0.2290 -1.4313  0.2972
 1542TIP3    H226042   2.947   2.172   4.790 -1.4003 -3.3081  0.5215
 1543TIP3   OH226043   6.477   0.904  16.322  0.3104  0.5866  0.3372
 1543TIP3    H126044   6.563   0.870  16.299  1.2446  3.6777 -1.0839
 1543TIP3    H226045   6.421   0.877  16.249  0.0707 -1.3040  1.1945
 1544TIP3   OH226046   0.067   5.211   6.174 -0.2692  0.6795  0.5448
 1544TIP3    H126047   0.098   5.166   6.252  0.0603 -0.8742 -0.4684
 1544TIP3    H226048  -0.028   5.204   6.178 -0.1697 -2.6650 -1.0309
 1545TIP3   OH226049   6.338   4.920   6.047  0.0820  0.7699 -0.1635
 1545TIP3    H126050   6.328   4.880   6.133 -0.4015  3.2933  0.9984
 1545TIP3    H226051   6.431   4.909   6.026  0.0630 -0.4282  0.3846
 1546TIP3   OH226052   4.689   5.341  15.201  0.2358  0.2866 -0.6713
 1546TIP3    H126053   4.640   5.420  15.177  2.7780  2.1956  0.2602
 1546TIP3    H226054   4.727   5.362  15.286  0.2492 -2.3032 -0.0092
 1547TIP3   OH226055   5.190   4.626   3.295 -0.4565  0.0933  0.0967
 1547TIP3    H126056   5.153   4.551   3.247 -1.1801  0.3336  0.2850
 1547TIP3    H226057   5.115   4.668   3.336 -0.1852  1.5393 -0.8583
 1548TIP3   OH226058   1.861   4.080   6.633 -0.2398 -0.1451  0.0582
 1548TIP3    H126059   1.931   4.031   6.676 -0.3324 -0.3383 -0.0093
 1548TIP3    H226060   1.825   4.019   6.568 -3.1570 -1.5258  2.8416
 1549TIP3   OH226061   5.050   4.141   4.086 -0.3717 -0.6181 -0.1408
 1549TIP3    H126062   5.039   4.100   4.172 -0.0793  2.0559  1.2041
 1549TIP3    H226063   5.126   4.198   4.095  0.0685 -0.7949 -2.3816
 1550TIP3   OH226064   1.011   4.063  10.542  0.6551  0.0855 -0.0447
 1550TIP3    H126065   0.937   4.010  10.512 -0.9803  0.8144  2.5311
 1550TIP3    H226066   1.073   4.000  10.578 -0.0375 -0.3204  0.4485
 1551TIP3   OH226067   4.420   0.383   2.295  0.3942 -0.0237  0.1750
 1551TIP3    H126068   4.475   0.306   2.279  0.1427 -0.2320  0.3139
 1551TIP3    H226069   4.460   0.452   2.242  0.7977 -0.1706  0.2863
 1552TIP3   OH226070   1.148   0.743  14.400  0.5102 -0.1960  0.3191
 1552TIP3    H126071   1.224   0.732  14.455  0.3204  0.2986  0.6873
 1552TIP3    H226072   1.118   0.654  14.381 -0.2106 -0.3460  2.1045
 1553TIP3   OH226073   2.724   6.267  16.569 -0.5766  0.4466 -0.0623
 1553TIP3    H126074   2.746   6.237  16.658 -2.3323  0.4230  0.3700
 1553TIP3    H226075   2.784   6.219  16.513  0.5670  0.4644  1.1116
 1554TIP3   OH226076   2.316   2.487   1.155 -0.4213 -0.7683 -0.5537
 1554TIP3    H126077   2.244   2.510   1.096 -0.4110 -0.1729 -0.3350
 1554TIP3    H226078   2.395   2.499   1.103 -0.3464  0.7969 -0.1041
 1555TIP3   OH226079   4.365   4.553  17.181 -0.2016  0.2266 -0.1045
 1555TIP3    H126080   4.428   4.615  17.143  0.2062 -0.1889 -0.1175
 1555TIP3    H226081   4.358   4.483  17.116 -0.6657  0.2605 -0.0925
 1556TIP3   OH226082   1.198   4.546  14.884 -0.2485 -0.0138 -0.3373
 1556TIP3    H126083   1.193   4.555  14.789  0.2612 -1.1517 -0.4708
 1556TIP3    H226084   1.246   4.465  14.899  1.4350  1.1526  0.8932
 1557TIP3   OH226085   1.361   1.501   6.573  0.2970 -0.3278 -0.3787
 1557TIP3    H126086   1.366   1.590   6.538  1.0303  0.6570  2.0803
 1557TIP3    H226087   1.377   1.444   6.498  0.2770  1.6358 -1.9065
 1558TIP3   OH226088   4.379   6.186   1.814  0.1509 -0.9982  0.0124
 1558TIP3    H126089   4.372   6.115   1.751 -1.2806 -1.1410  0.3144
 1558TIP3    H226090   4.473   6.202   1.823  0.3459 -0.2499 -2.9635
 1559TIP3   OH226091   2.533   2.026   4.283 -0.2081 -0.2827  0.9527
 1559TIP3    H126092   2.588   2.048   4.207  0.6197  1.2804  1.9822
 1559TIP3    H226093   2.444   2.043   4.253  0.2265  2.1903  0.8911
 1560TIP3   OH226094   3.854   4.708  15.877 -0.2559  0.5757 -0.4116
 1560TIP3    H126095   3.923   4.765  15.910 -0.2058 -0.1737  0.7853
 1560TIP3    H226096   3.900   4.642  15.824 -0.1405  0.5746 -0.3072
 1561TIP3   OH226097   4.756   0.340  16.689  0.0758  0.2376  0.4259
 1561TIP3    H126098   4.850   0.338  16.670  0.1493  0.0815  0.8047
 1561TIP3    H226099   4.751   0.367  16.781 -0.2087 -1.0420  0.7823
 1562TIP3   OH226100   5.406   4.165  11.579 -0.0569  0.1823  0.1177
 1562TIP3    H126101   5.394   4.240  11.521 -2.9904 -1.0638 -0.9848
 1562TIP3    H226102   5.348   4.182  11.653 -1.6016 -1.4606 -0.6700
 1563TIP3   OH226103   4.151   2.310  13.051  0.3326 -0.5685 -0.5932
 1563TIP3    H126104   4.150   2.218  13.080  0.0289 -0.6489 -0.8481
 1563TIP3    H226105   4.236   2.343  13.079 -0.0714 -0.5502  0.6916
 1564TIP3   OH226106   5.177   2.073   4.682 -0.3226 -0.2035  0.1766
 1564TIP3    H126107   5.218   2.040   4.603 -0.7226 -0.1748 -0.0452
 1564TIP3    H226108   5.227   2.152   4.704 -0.1788 -0.2410 -0.0174
 1565TIP3   OH226109   0.112   4.882  15.338  1.0599  0.0077 -0.0052
 1565TIP3    H126110   0.067   4.906  15.418  0.1937  0.7359 -0.6992
 1565TIP3    H226111   0.150   4.964  15.306  1.0215 -0.1829 -0.5623
 1566TIP3   OH226112   0.092   4.961   3.381  0.1445 -0.2447 -0.3342
 1566TIP3    H126113   0.163   4.907   3.347 -0.1757 -0.1580 -1.1474
 1566TIP3    H226114   0.124   5.051   3.372 -0.2845 -0.1722 -1.2300
 1567TIP3   OH226115   0.804   6.767   3.720 -0.0994 -0.1451 -0.1623
 1567TIP3    H126116   0.740   6.837   3.711  0.7308  0.7759  0.8948
 1567TIP3    H226117   0.766   6.709   3.786  0.6345  0.9858  1.2866
 1568TIP3   OH226118   0.372   0.789   5.619  0.2204 -0.6583 -0.4214
 1568TIP3    H126119   0.318   0.845   5.675 -0.5312 -2.4575  0.7149
 1568TIP3    H226120   0.396   0.844   5.545  0.1740  1.3909  1.0608
 1569TIP3   OH226121   0.129   3.838   2.586  0.0262  0.2699 -0.1755
 1569TIP3    H126122   0.188   3.823   2.659  0.7137  1.3884 -0.4842
 1569TIP3    H226123   0.103   3.750   2.558 -0.1857 -0.1657  1.3501
 1570TIP3   OH226124   1.660   0.180   3.097 -0.2806  0.1712 -0.2965
 1570TIP3    H126125   1.675   0.272   3.075  0.2604 -0.0710 -0.9940
 1570TIP3    H226126   1.617   0.182   3.182  2.4212  0.9627  1.0944
 1571TIP3   OH226127   1.303   6.417  10.495  0.1736  0.1216  0.1734
 1571TIP3    H126128   1.348   6.412  10.411 -0.8732 -1.9034 -0.2956
 1571TIP3    H226129   1.240   6.345  10.493 -0.9784  1.0348  2.0466
 1572TIP3   OH226130   6.707   1.017   1.492  0.0233 -0.1499  0.5842
 1572TIP3    H126131   6.709   0.954   1.420  1.3853  0.2777  0.2407
 1572TIP3    H226132   6.709   0.963   1.571  0.0022 -0.5649  0.3012
 1573TIP3   OH226133   1.760   0.953  17.014 -0.1037  0.3102  0.3368
 1573TIP3    H126134   1.839   0.961  17.068  0.3040 -1.4868  0.0319
 1573TIP3    H226135   1.712   0.880  17.052 -0.6785  0.1564 -0.6655
 1574TIP3   OH226136   2.969   0.770   1.018 -0.1034  0.1804  0.1472
 1574TIP3    H126137   2.963   0.832   1.091 -1.5893 -0.2542  0.4299
 1574TIP3    H226138   2.972   0.825   0.940 -0.2649  0.6341  0.4544
 1575TIP3   OH226139   3.566   4.208  14.028  0.5542 -0.2215 -0.5070
 1575TIP3    H126140   3.655   4.229  13.998  0.9019  0.7547  1.1229
 1575TIP3    H226141   3.578   4.175  14.117 -0.8632  1.8558  0.5104
 1576TIP3   OH226142   1.050   4.430  14.536 -0.0767 -0.2356  0.6175
 1576TIP3    H126143   1.054   4.432  14.441  1.4725  1.5437  0.6947
 1576TIP3    H226144   0.965   4.389  14.556  0.0513 -1.5943 -1.4907
 1577TIP3   OH226145   2.347   5.039   4.806  0.3399  0.1102  0.8549
 1577TIP3    H126146   2.267   5.055   4.757 -0.1910 -3.5883  0.3263
 1577TIP3    H226147   2.411   5.099   4.769 -0.9258 -0.2858 -2.1046
 1578TIP3   OH226148   2.707   3.224  11.304  0.0670  0.0528  0.2949
 1578TIP3    H126149   2.743   3.308  11.276  1.9590 -0.9930 -0.4954
 1578TIP3    H226150   2.683   3.237  11.396  1.6351  1.0391  0.5787
 1579TIP3   OH226151   5.426   3.904  14.756 -0.3792  0.1205 -0.2414
 1579TIP3    H126152   5.451   3.859  14.675  1.8637 -1.6101  1.3110
 1579TIP3    H226153   5.438   3.838  14.824 -0.6528  1.9996  1.6855
 1580TIP3   OH226154   4.237   4.003   4.948  0.1607  0.5751 -0.2424
 1580TIP3    H126155   4.241   4.069   4.879 -0.5395  1.0624  0.1743
 1580TIP3    H226156   4.260   3.921   4.904 -1.5771  0.6492 -1.3692
 1581TIP3   OH226157   0.904   1.831   0.786 -0.0759 -0.4950  0.0934
 1581TIP3    H126158   0.815   1.826   0.750  0.7350 -2.1778 -1.7805
 1581TIP3    H226159   0.916   1.924   0.806 -2.2177 -0.2273  0.2928
 1582TIP3   OH226160   4.546   0.188   0.261  0.3419 -0.1168 -0.3765
 1582TIP3    H126161   4.638   0.217   0.261  0.7034 -1.2180 -1.1260
 1582TIP3    H226162   4.498   0.263   0.225  0.6444  1.3003  2.0678
 1583TIP3   OH226163   1.553   5.821  16.429  0.4154 -0.3002  0.2091
 1583TIP3    H126164   1.562   5.861  16.516  0.7499  0.5213 -0.1984
 1583TIP3    H226165   1.639   5.784  16.410 -0.3803 -2.8644  1.3615
 1584TIP3   OH226166   1.439   6.170   0.052 -0.7172  0.2285  0.2187
 1584TIP3    H126167   1.369   6.110   0.026  1.1821 -0.9829 -2.3319
 1584TIP3    H226168   1.495   6.118   0.110 -0.1266  0.0993 -0.4512
 1585TIP3   OH226169   1.772   5.779   0.872  0.2128 -0.4043 -0.1310
 1585TIP3    H126170   1.769   5.778   0.968 -0.5822  0.6496 -0.1457
 1585TIP3    H226171   1.695   5.729   0.846 -1.0050  1.4641 -0.2261
 1586TIP3   OH226172   4.938   1.346   0.987 -0.4311  0.5758  0.6671
 1586TIP3    H126173   4.883   1.412   0.946  0.3826  0.5885 -0.4337
 1586TIP3    H226174   4.986   1.394   1.055  0.4996  1.2496 -0.4305
 1587TIP3   OH226175   1.267   5.243   5.875 -0.0106  0.0471  0.1912
 1587TIP3    H126176   1.265   5.331   5.837 -2.3197  0.1216  0.3906
 1587TIP3    H226177   1.176   5.225   5.898  0.2858 -2.7451 -0.6180
 1588TIP3   OH226178   0.560   0.237  17.020  0.0421  0.0170  0.2138
 1588TIP3    H126179   0.514   0.305  17.069 -0.5857 -0.3374  0.1226
 1588TIP3    H226180   0.639   0.280  16.987  0.1636  0.4248  1.0174
 1589TIP3   OH226181   1.278   6.587   0.613 -0.6280 -0.2029  0.1368
 1589TIP3    H126182   1.185   6.595   0.594 -0.1722  1.8022 -1.3605
 1589TIP3    H226183   1.321   6.637   0.543  1.5477 -0.8003  1.0228
 1590TIP3   OH226184   0.346   0.601   3.325  0.2445 -0.7753  0.5367
 1590TIP3    H126185   0.261   0.635   3.352  0.4048 -1.4100  1.8715
 1590TIP3    H226186   0.365   0.530   3.386  1.3346 -1.2184 -0.2876
 1591TIP3   OH226187   6.681   1.142   3.753  0.6190 -0.0728  0.2318
 1591TIP3    H126188   6.742   1.200   3.706  0.8350 -0.2832  0.2543
 1591TIP3    H226189   6.731   1.062   3.768 -0.2519 -0.9422 -1.3592
 1592TIP3   OH226190   3.764   2.252   1.457 -0.1704 -0.6450 -0.4066
 1592TIP3    H126191   3.709   2.280   1.384  0.5070  1.8453 -0.0058
 1592TIP3    H226192   3.813   2.330   1.482  0.6536 -1.8085  1.7935
 1593TIP3   OH226193   1.785   1.285   5.001 -0.1617 -0.5425  0.0634
 1593TIP3    H126194   1.832   1.229   4.939 -0.8289  1.1311 -2.0468
 1593TIP3    H226195   1.821   1.372   4.987 -1.2940  0.1044  1.0618
 1594TIP3   OH226196   5.083   4.591   4.339  0.0707  0.3318  0.8000
 1594TIP3    H126197   5.016   4.525   4.359 -0.0871 -0.2749 -1.5817
 1594TIP3    H226198   5.144   4.545   4.282 -0.4943  2.4874 -1.5968
 1595TIP3   OH226199   6.227   2.090   5.761 -0.0723  0.4184  0.8098
 1595TIP3    H126200   6.270   2.004   5.757 -1.7949 -0.4257 -0.5393
 1595TIP3    H226201   6.153   2.077   5.820 -0.2365  1.0366  0.7421
 1596TIP3   OH226202   1.247   6.327  16.355  0.3612 -0.3008  0.2064
 1596TIP3    H126203   1.330   6.302  16.315 -0.8060 -1.9294 -1.2929
 1596TIP3    H226204   1.270   6.360  16.442  2.5420 -0.8266 -0.1532
 1597TIP3   OH226205   0.587   3.788  11.757 -0.2864  0.3207 -0.4366
 1597TIP3    H126206   0.521   3.742  11.705  0.3424 -2.4052  1.1071
 1597TIP3    H226207   0.669   3.743  11.738  0.8402  2.4832 -0.8742
 1598TIP3   OH226208   2.204   4.907   4.230  0.3168  0.1404  0.4454
 1598TIP3    H126209   2.294   4.897   4.198  0.6738 -0.5468  1.6384
 1598TIP3    H226210   2.213   4.938   4.320 -0.6546  0.6827  0.3646
 1599TIP3   OH226211   3.114   5.867   5.235 -0.2328  0.1263  0.3402
 1599TIP3    H126212   3.138   5.871   5.327  3.0051  0.6235 -0.4571
 1599TIP3    H226213   3.113   5.774   5.213  2.0410  0.1137  0.1797
 1600TIP3   OH226214   3.970   2.607  17.072  0.1616 -0.0350  0.0423
 1600TIP3    H126215   4.005   2.584  17.158 -1.5967 -0.4154  0.6922
 1600TIP3    H226216   4.009   2.543  17.012  2.5627  1.1765  0.2925
 1601TIP3   OH226217   0.381   4.461  13.685 -0.4493 -0.0359 -0.3184
 1601TIP3    H126218   0.455   4.461  13.625 -0.3516 -1.6640 -0.2258
 1601TIP3    H226219   0.310   4.501  13.636 -0.5074 -1.7906 -1.7190
 1602TIP3   OH226220   0.091   0.913   5.806 -0.4739  0.5350  0.0921
 1602TIP3    H126221   0.167   0.937   5.858 -0.6938 -1.6895  1.5125
 1602TIP3    H226222   0.045   0.996   5.791  1.6672  1.7527  0.0663
 1603TIP3   OH226223   2.744   6.138  15.791 -0.1819 -0.1063  0.5997
 1603TIP3    H126224   2.728   6.096  15.707 -0.4951  0.5178  0.3384
 1603TIP3    H226225   2.685   6.094  15.852 -1.7367  1.0514 -0.0125
 1604TIP3   OH226226   6.218   4.921   4.690 -0.1595 -0.1124  0.4441
 1604TIP3    H126227   6.203   4.979   4.764 -1.2300 -2.1973  1.9200
 1604TIP3    H226228   6.293   4.868   4.716 -0.8941 -1.2452  0.3103
 1605TIP3   OH226229   6.484   1.140  17.229  0.1388  0.1047 -0.7620
 1605TIP3    H126230   6.432   1.193  17.288 -0.2872 -1.0077 -0.1167
 1605TIP3    H226231   6.456   1.050  17.246  1.4396 -0.4079 -1.2333
 1606TIP3   OH226232   5.240   3.476   4.839 -0.2563  0.1341  0.7287
 1606TIP3    H126233   5.163   3.463   4.894 -1.1274 -1.3264 -0.7838
 1606TIP3    H226234   5.309   3.427   4.882 -0.9825 -1.1690  0.4467
 1607TIP3   OH226235   3.777   6.483  13.818  0.6411 -0.0733  0.5681
 1607TIP3    H126236   3.772   6.576  13.798 -1.0053 -0.1712  0.4441
 1607TIP3    H226237   3.708   6.469  13.883 -0.6543 -1.6259 -1.0873
 1608TIP3   OH226238   4.608   6.544  14.569 -0.1048 -0.3491 -0.6928
 1608TIP3    H126239   4.618   6.574  14.659 -0.7901  1.0058 -1.0441
 1608TIP3    H226240   4.586   6.451  14.576  1.6222 -0.6808  0.4585
 1609TIP3   OH226241   0.040   3.409  15.559 -1.1378 -0.0135 -1.0301
 1609TIP3    H126242   0.037   3.319  15.591 -0.4713 -0.1228 -1.2634
 1609TIP3    H226243   0.124   3.415  15.513 -0.4468  1.1886  0.3625
 1610TIP3   OH226244   0.338   4.619  12.169 -0.5253 -0.2635  0.4219
 1610TIP3    H126245   0.314   4.528  12.189 -0.8197 -0.1855  0.4330
 1610TIP3    H226246   0.423   4.631  12.210  0.5343 -1.2108 -1.4804
 1611TIP3   OH226247   0.689   2.745  13.411 -0.6687  0.6258 -0.1132
 1611TIP3    H126248   0.651   2.678  13.468 -0.1334  1.2521  0.9871
 1611TIP3    H226249   0.616   2.775  13.357 -0.9355 -0.7620 -0.5338
 1612TIP3   OH226250   1.684   1.477   3.872  0.6731  0.2348  0.7103
 1612TIP3    H126251   1.626   1.553   3.881  1.1738  0.8096 -0.7842
 1612TIP3    H226252   1.763   1.512   3.832 -0.2368 -1.5498 -2.9013
 1613TIP3   OH226253   0.849   5.535  14.198  0.2473 -0.3261 -0.1501
 1613TIP3    H126254   0.892   5.608  14.153  0.0630  0.3753  0.8002
 1613TIP3    H226255   0.914   5.503  14.260 -0.2094  0.0550  0.5406
 1614TIP3   OH226256   2.762   6.208   2.196  0.0250  0.3094 -0.0548
 1614TIP3    H126257   2.756   6.232   2.289 -3.1245  0.5460 -0.2559
 1614TIP3    H226258   2.672   6.186   2.171  0.6387  1.2028 -3.3035
 1615TIP3   OH226259   4.399   5.183   0.043  0.1363 -0.7483  0.0695
 1615TIP3    H126260   4.410   5.248   0.113 -0.9756  0.8377 -1.1824
 1615TIP3    H226261   4.316   5.207   0.002  0.8224 -1.6011 -1.8538
 1616TIP3   OH226262   6.285   2.335  12.536  0.3578 -0.6045 -0.2848
 1616TIP3    H126263   6.337   2.359  12.612 -0.3910  0.7732 -0.1810
 1616TIP3    H226264   6.348   2.303  12.472  1.0419 -1.2635  0.7255
 1617TIP3   OH226265   3.864   1.701  12.086 -0.0259  0.8358  0.1512
 1617TIP3    H126266   3.959   1.707  12.103 -0.5034  2.3032  2.6946
 1617TIP3    H226267   3.843   1.782  12.040  0.4734 -1.0534 -3.5795
 1618TIP3   OH226268   5.827   5.918   2.874  0.2929  0.1188 -0.6040
 1618TIP3    H126269   5.838   5.822   2.873  0.6828  0.1552  0.1722
 1618TIP3    H226270   5.819   5.941   2.781 -0.5750 -0.7511 -0.7673
 1619TIP3   OH226271   4.021   1.414   4.944 -0.1145 -0.0137 -0.1784
 1619TIP3    H126272   3.975   1.407   5.028 -1.4298  1.0305 -0.7980
 1619TIP3    H226273   4.034   1.508   4.931  0.9379 -0.2252 -0.6867
 1620TIP3   OH226274   1.429   4.482  15.730 -0.2913 -0.2196  0.2080
 1620TIP3    H126275   1.501   4.463  15.790 -0.1405 -0.5308 -0.0655
 1620TIP3    H226276   1.390   4.397  15.712  0.5709 -0.3377 -1.2652
 1621TIP3   OH226277   2.305   2.190  14.357 -0.5702  0.4174  0.2760
 1621TIP3    H126278   2.273   2.254  14.420  0.0880  1.8341 -0.8060
 1621TIP3    H226279   2.267   2.107  14.386  0.0017  0.9870  2.7101
 1622TIP3   OH226280   5.839   4.273  12.104 -0.5562  0.4760  0.4938
 1622TIP3    H126281   5.840   4.306  12.194 -0.0257  4.5382 -0.9079
 1622TIP3    H226282   5.760   4.311  12.066 -0.2302 -0.3758 -1.0379
 1623TIP3   OH226283   0.452   3.074  13.541  0.4396 -0.0184 -0.5101
 1623TIP3    H126284   0.472   3.168  13.545 -1.7831  0.5452 -1.5455
 1623TIP3    H226285   0.528   3.036  13.497  1.1779  1.3748 -0.4849
 1624TIP3   OH226286   0.096   6.689  14.063  0.3854  0.0935 -0.4915
 1624TIP3    H126287   0.159   6.711  14.131 -0.5375  1.7288 -0.1576
 1624TIP3    H226288   0.084   6.594  14.072  2.3214 -0.1412 -0.1661
 1625TIP3   OH226289   0.233   2.444   0.766  0.0141  0.4275  0.2089
 1625TIP3    H126290   0.147   2.484   0.779 -1.0086 -2.0675  1.5936
 1625TIP3    H226291   0.259   2.470   0.678 -2.4035  0.7859 -0.4400
 1626TIP3   OH226292   2.320   4.256  16.278  0.5587 -0.2536 -0.2193
 1626TIP3    H126293   2.365   4.242  16.194 -0.0283  0.8784 -0.7474
 1626TIP3    H226294   2.284   4.171  16.301  1.3138 -0.7292 -0.7749
 1627TIP3   OH226295   2.603   1.898  11.361 -0.3727  1.2036 -0.3033
 1627TIP3    H126296   2.541   1.837  11.400  0.0490  0.6007 -0.5610
 1627TIP3    H226297   2.623   1.860  11.275  0.4424  1.3241 -0.1725
 1628TIP3   OH226298   1.155   1.429   0.267 -0.3591  0.2757 -0.3398
 1628TIP3    H126299   1.184   1.378   0.191 -3.1387  1.0993 -2.0114
 1628TIP3    H226300   1.072   1.389   0.293 -1.5926  2.6627 -0.4586
 1629TIP3   OH226301   3.094   0.158  12.159  0.0237 -0.0507 -0.0423
 1629TIP3    H126302   3.005   0.140  12.190 -0.9911  0.8176 -2.3437
 1629TIP3    H226303   3.118   0.080  12.109 -0.2059  0.4942 -1.0195
 1630TIP3   OH226304   1.292   4.851  15.256 -0.3863 -0.9126  0.0809
 1630TIP3    H126305   1.340   4.917  15.205 -1.0219 -1.2699 -1.0066
 1630TIP3    H226306   1.317   4.868  15.347 -0.4707  0.7784 -0.1871
 1631TIP3   OH226307   1.424   6.088  10.566 -0.0836  0.0669  0.2583
 1631TIP3    H126308   1.513   6.054  10.569 -1.0908 -2.8113 -0.8942
 1631TIP3    H226309   1.379   6.034  10.502 -2.3739  2.2585 -0.0882
 1632TIP3   OH226310   1.962   4.666  15.323  0.0185  0.0329 -0.2513
 1632TIP3    H126311   1.934   4.741  15.375  0.9399 -0.3201  0.7819
 1632TIP3    H226312   2.056   4.659  15.340  0.8245  1.2508 -3.7017
 1633TIP3   OH226313   6.073   1.841   1.263 -0.4708  0.3415  0.6677
 1633TIP3    H126314   6.105   1.887   1.341  2.2535  0.6449 -0.5679
 1633TIP3    H226315   6.082   1.748   1.285  2.3483  0.4087 -0.0230
 1634TIP3   OH226316   4.407   5.152  10.502 -0.3589 -0.3905  0.5816
 1634TIP3    H126317   4.446   5.066  10.519  1.5881 -0.2617 -2.7439
 1634TIP3    H226318   4.474   5.214  10.529  0.5066 -0.1019 -2.0285
 1635TIP3   OH226319   6.730   3.371   5.127  0.2559 -0.0123  0.3314
 1635TIP3    H126320   6.685   3.455   5.129 -2.1858 -1.2823 -0.0645
 1635TIP3    H226321   6.664   3.308   5.099  2.2424 -1.9622 -0.1357
 1636TIP3   OH226322   0.775   4.514   4.791 -0.2455  0.1325 -0.0296
 1636TIP3    H126323   0.740   4.553   4.711  0.4278  0.5117 -0.1434
 1636TIP3    H226324   0.856   4.471   4.763 -0.6004 -0.7141  0.2364
 1637TIP3   OH226325   5.005   6.645   2.319 -0.0332 -0.1005 -0.3806
 1637TIP3    H126326   5.013   6.582   2.390 -1.0284 -0.9933 -1.0435
 1637TIP3    H226327   4.949   6.715   2.355  0.8461  0.2725  0.2613
 1638TIP3   OH226328   5.035   3.759  12.272  0.1055 -0.6890 -0.4434
 1638TIP3    H126329   5.086   3.739  12.351 -0.9487 -0.9071  0.1989
 1638TIP3    H226330   5.100   3.783  12.206  0.8784  2.3868  1.3087
 1639TIP3   OH226331   5.127   2.960  15.412 -0.3900  0.5188  0.0335
 1639TIP3    H126332   5.075   2.996  15.484  0.3733  1.6064  0.0589
 1639TIP3    H226333   5.214   2.997  15.425  0.4069 -1.2921 -0.0070
 1640TIP3   OH226334   4.916   6.553  15.854 -0.3450  0.2846  0.4592
 1640TIP3    H126335   4.864   6.599  15.789  0.0153  0.5955  0.3911
 1640TIP3    H226336   4.855   6.534  15.925 -0.5630  0.6066  0.3579
 1641TIP3   OH226337   0.995   3.741  14.064 -0.2388  0.2072  0.7434
 1641TIP3    H126338   0.965   3.739  13.973 -0.2784 -0.4427  0.7653
 1641TIP3    H226339   0.926   3.788  14.111  1.3737  3.6108 -0.1085
 1642TIP3   OH226340   4.343   1.143  13.429  0.5860 -0.0166  0.3212
 1642TIP3    H126341   4.277   1.204  13.464  2.5937  1.5373  1.5085
 1642TIP3    H226342   4.424   1.167  13.474  1.8139 -2.4358 -0.5083
 1643TIP3   OH226343   4.088   6.505  14.101  0.3363 -0.1163 -0.4471
 1643TIP3    H126344   4.031   6.458  14.040 -0.4568 -1.3502  1.2167
 1643TIP3    H226345   4.049   6.592  14.108 -0.5925 -0.5359 -0.3348
 1644TIP3   OH226346   4.701   2.897  15.931 -0.2301 -0.1162 -0.3185
 1644TIP3    H126347   4.663   2.857  16.009 -0.9233 -1.5902 -1.3863
 1644TIP3    H226348   4.763   2.961  15.964 -1.1551 -0.1177  1.4457
 1645TIP3   OH226349   6.315   3.087   2.931  0.8804 -0.5630  0.2755
 1645TIP3    H126350   6.231   3.076   2.887  2.2833 -1.9106 -2.1804
 1645TIP3    H226351   6.330   3.181   2.930 -0.9481 -0.2312  1.4655
 1646TIP3   OH226352   0.317   2.479  15.853 -0.0254  0.5437 -0.4016
 1646TIP3    H126353   0.237   2.523  15.824 -0.8354  0.0666  1.0586
 1646TIP3    H226354   0.291   2.431  15.931  1.2735 -1.0575 -0.9115
 1647TIP3   OH226355   2.953   1.825   2.745 -0.5772  0.5825  0.1142
 1647TIP3    H126356   2.885   1.758   2.756 -1.3294  1.5814  1.6819
 1647TIP3    H226357   3.035   1.776   2.747 -1.1061 -0.2722  1.5923
 1648TIP3   OH226358   4.138   4.497   5.238  0.7236 -0.2769  0.5063
 1648TIP3    H126359   4.065   4.456   5.285  0.7603 -0.3846  0.4697
 1648TIP3    H226360   4.208   4.432   5.242  0.1229 -1.0457 -1.3177
 1649TIP3   OH226361   6.470   4.449   0.814  0.2280  0.3437  0.2875
 1649TIP3    H126362   6.553   4.405   0.801  1.3774  2.8778 -1.2181
 1649TIP3    H226363   6.489   4.517   0.879 -0.8972  0.2999  0.6717
 1650TIP3   OH226364   5.392   0.513   6.322  0.4904  0.5004  0.6945
 1650TIP3    H126365   5.449   0.560   6.383  1.1278  0.1581  0.3601
 1650TIP3    H226366   5.311   0.501   6.371  0.6848  1.0253  1.1570
 1651TIP3   OH226367   2.490   3.833  15.592  0.2499  0.3670 -0.3094
 1651TIP3    H126368   2.454   3.882  15.666 -0.1454 -0.9434  0.3669
 1651TIP3    H226369   2.464   3.884  15.515 -2.5536 -0.2393  0.1892
 1652TIP3   OH226370   0.798   6.235  12.890  0.1725  0.0158  0.5044
 1652TIP3    H126371   0.762   6.241  12.979 -1.1967  0.4785 -0.0678
 1652TIP3    H226372   0.808   6.141  12.875  1.6858 -0.0270  1.6360
 1653TIP3   OH226373   4.581   1.973  13.828 -0.7384  0.2974 -0.1638
 1653TIP3    H126374   4.588   2.057  13.873 -2.3628  0.1481  0.4137
 1653TIP3    H226375   4.566   1.909  13.897  1.4380 -0.6364 -0.5130
 1654TIP3   OH226376   2.002   4.509  14.302  1.0689 -0.0912  0.3376
 1654TIP3    H126377   1.964   4.428  14.337  0.5323 -0.3248 -0.7551
 1654TIP3    H226378   2.086   4.482  14.267  0.1525 -0.5316 -1.5758
 1655TIP3   OH226379   5.963   6.708   1.133  0.0646 -0.3440  0.2219
 1655TIP3    H126380   5.986   6.757   1.212 -1.5267 -0.0807  0.5382
 1655TIP3    H226381   5.886   6.753   1.099  0.4652 -0.7385 -1.2342
 1656TIP3   OH226382   1.516   2.264  10.545  0.1049 -0.3219 -0.3948
 1656TIP3    H126383   1.471   2.253  10.629 -0.2347  0.4502 -0.4675
 1656TIP3    H226384   1.453   2.310  10.490  0.5678 -0.2459 -0.8671
 1657TIP3   OH226385   4.765   6.163  11.112 -0.0632  0.0375  0.4063
 1657TIP3    H126386   4.768   6.075  11.151  0.3581 -0.9036 -1.6475
 1657TIP3    H226387   4.838   6.209  11.153 -1.2745 -0.0285  2.7009
 1658TIP3   OH226388   4.585   0.220   5.118 -0.1167 -0.5476  0.1088
 1658TIP3    H126389   4.646   0.170   5.065 -0.9594  0.0075 -1.4376
 1658TIP3    H226390   4.511   0.238   5.059  0.0860  2.3532  0.6380
 1659TIP3   OH226391   3.377   0.709   1.931 -0.0362  0.0354 -0.0853
 1659TIP3    H126392   3.366   0.803   1.944  1.3586  0.2139 -0.1047
 1659TIP3    H226393   3.420   0.702   1.846  0.4115 -0.5847  0.1889
 1660TIP3   OH226394   2.507   3.158  11.150 -0.4602  0.1545 -0.1908
 1660TIP3    H126395   2.570   3.177  11.220 -0.3533  1.1361 -0.5442
 1660TIP3    H226396   2.476   3.070  11.170 -1.7461  1.0665  2.0908
 1661TIP3   OH226397   6.347   3.037   1.077  0.2351  0.1978  0.5950
 1661TIP3    H126398   6.298   2.967   1.121  2.6435 -0.5267  2.2339
 1661TIP3    H226399   6.352   3.107   1.141  0.7070  0.5455  0.1857
 1662TIP3   OH226400   3.364   5.988  12.230 -0.1439  0.1291  0.1395
 1662TIP3    H126401   3.457   5.984  12.255 -0.2189  3.9656  1.2647
 1662TIP3    H226402   3.317   5.955  12.306  0.2067 -0.9143 -0.0776
 1663TIP3   OH226403   3.126   6.351   1.461 -0.2472  0.5293 -0.4533
 1663TIP3    H126404   3.048   6.310   1.499 -0.4918  1.0436 -0.3961
 1663TIP3    H226405   3.120   6.443   1.487  1.1226  0.2802  0.7421
 1664TIP3   OH226406   0.364   5.269  10.861  0.0351  0.1088 -0.1557
 1664TIP3    H126407   0.458   5.251  10.865  0.0339  0.3562  1.2832
 1664TIP3    H226408   0.328   5.195  10.813  1.3269  1.5566 -3.5037
 1665TIP3   OH226409   4.588   0.664   4.605 -0.0100 -0.2573 -0.0387
 1665TIP3    H126410   4.605   0.603   4.533 -2.4748 -1.6175  0.4791
 1665TIP3    H226411   4.494   0.681   4.600  0.0217  0.6634  2.0578
 1666TIP3   OH226412   5.193   1.499   2.897  0.1152 -0.3183 -0.3476
 1666TIP3    H126413   5.289   1.497   2.898  0.1305  0.2483  1.5323
 1666TIP3    H226414   5.171   1.575   2.843  0.6952 -0.7563 -1.2279
 1667TIP3   OH226415   1.676   0.537   1.545  0.2895 -0.3763 -0.4212
 1667TIP3    H126416   1.583   0.555   1.559  0.9737  4.1463 -1.0260
 1667TIP3    H226417   1.717   0.557   1.629  1.0313  0.1234 -0.8996
 1668TIP3   OH226418   4.944   2.352   2.241 -0.2166 -0.2904  0.4974
 1668TIP3    H126419   4.876   2.285   2.234  0.9853 -1.3691 -1.1335
 1668TIP3    H226420   4.933   2.406   2.163  1.0880 -0.7441 -0.0058
 1669TIP3   OH226421   3.545   2.140   5.832  0.1215  0.1604 -0.2465
 1669TIP3    H126422   3.482   2.195   5.786 -1.7018 -0.6517  1.2062
 1669TIP3    H226423   3.523   2.150   5.925  0.3264 -2.3107  0.1031
 1670TIP3   OH226424   0.068   6.466   0.053  0.0699  0.2562  0.5527
 1670TIP3    H126425   0.086   6.528  -0.017  2.4397 -1.5468 -0.4992
 1670TIP3    H226426   0.025   6.392   0.009 -0.5298  0.0984  1.3824
 1671TIP3   OH226427   4.990   1.753  16.770 -0.2701  0.1565  0.2520
 1671TIP3    H126428   4.915   1.694  16.759 -0.2560  0.1348  0.2766
 1671TIP3    H226429   4.963   1.834  16.726 -0.7978  0.5737  1.3168
 1672TIP3   OH226430   2.134   1.774   0.472  0.5027  0.8683 -0.0493
 1672TIP3    H126431   2.098   1.716   0.404  0.9117  1.6109 -0.9177
 1672TIP3    H226432   2.199   1.720   0.517  1.3898  0.8463 -1.3140
 1673TIP3   OH226433   4.915   2.675   1.885 -0.5482 -0.3576  0.3300
 1673TIP3    H126434   4.876   2.717   1.809 -1.0363 -0.0554  0.7434
 1673TIP3    H226435   4.866   2.710   1.960  0.0945 -0.4548  0.8012
 1674TIP3   OH226436   2.754   6.338   2.954  0.0251  0.3917  0.0651
 1674TIP3    H126437   2.669   6.306   2.923 -0.6963  1.9018  0.4497
 1674TIP3    H226438   2.802   6.258   2.977 -0.9962 -0.5160 -0.8902
 1675TIP3   OH226439   1.081   0.722  16.933  0.0352  0.5449  0.1104
 1675TIP3    H126440   1.127   0.787  16.882  1.8710  0.1134  1.1854
 1675TIP3    H226441   0.988   0.742  16.920  0.5307  1.8909 -1.4390
 1676TIP3   OH226442   3.284   4.753   5.524 -0.7458  0.9258 -0.3512
 1676TIP3    H126443   3.251   4.678   5.475  0.2367 -2.1206  3.4324
 1676TIP3    H226444   3.342   4.798   5.462 -1.4074 -1.3651 -2.7414
 1677TIP3   OH226445   4.582   1.291  12.471  0.5106 -0.3187  0.4057
 1677TIP3    H126446   4.504   1.236  12.477 -0.1440  0.6711  0.9430
 1677TIP3    H226447   4.652   1.230  12.445  0.0934 -1.6891  2.3362
 1678TIP3   OH226448   0.468   4.027   1.745 -0.4970  0.6019 -0.7641
 1678TIP3    H126449   0.459   4.013   1.840  1.7447 -3.8375 -1.0611
 1678TIP3    H226450   0.377   4.031   1.713 -1.3089 -0.4143  1.2977
 1679TIP3   OH226451   3.529   2.004   1.448  0.1443  0.6093  0.0426
 1679TIP3    H126452   3.574   1.934   1.401 -0.8639 -0.4915  0.6995
 1679TIP3    H226453   3.592   2.077   1.449  0.9495 -0.0649 -1.1978
 1680TIP3   OH226454   3.361   0.639   3.043  0.0150  0.1576 -0.2408
 1680TIP3    H126455   3.379   0.603   2.956 -0.8519 -1.1868  0.1138
 1680TIP3    H226456   3.277   0.683   3.034 -0.7440 -1.1615  0.2309
 1681TIP3   OH226457   0.062   0.651   2.892 -0.6215 -0.2021  0.3302
 1681TIP3    H126458   0.031   0.708   2.822 -0.6677 -1.7741 -0.9741
 1681TIP3    H226459   0.030   0.691   2.973 -1.5839  0.9948 -0.6298
 1682TIP3   OH226460   4.106   2.087  13.406  0.0592  0.1840 -0.3375
 1682TIP3    H126461   4.013   2.081  13.428 -0.2683 -0.7404 -1.8597
 1682TIP3    H226462   4.136   2.166  13.450 -1.2544  0.0481  0.8436
 1683TIP3   OH226463   0.643   2.535  15.507 -0.1639  0.8557 -0.6621
 1683TIP3    H126464   0.593   2.459  15.477 -2.4867  0.7831  3.0933
 1683TIP3    H226465   0.718   2.497  15.554  0.5806  0.9361 -1.7704
 1684TIP3   OH226466   6.481   2.911  12.145  0.5090  0.1772 -0.5478
 1684TIP3    H126467   6.423   2.986  12.133 -0.0475  0.0603  1.3364
 1684TIP3    H226468   6.475   2.863  12.062  1.0704  2.3230 -1.8691
 1685TIP3   OH226469   6.229   5.447   3.663  0.1334  0.1681  0.2416
 1685TIP3    H126470   6.230   5.355   3.690  0.1028  0.3920  1.0189
 1685TIP3    H226471   6.209   5.495   3.743  1.9267  0.9804  0.2198
 1686TIP3   OH226472   0.411   0.432  13.739  0.3493 -0.3153 -0.1275
 1686TIP3    H126473   0.367   0.512  13.708  1.5712 -0.1532 -1.5195
 1686TIP3    H226474   0.475   0.464  13.803 -0.0749 -0.3274  0.3062
 1687TIP3   OH226475   1.176   3.183   5.058  0.1530 -0.1526 -0.2136
 1687TIP3    H126476   1.088   3.216   5.075 -0.5161 -0.4548 -2.9353
 1687TIP3    H226477   1.224   3.259   5.023  0.3263 -0.5676 -0.8756
 1688TIP3   OH226478   4.858   4.774  16.933 -0.6306  0.6456  0.1946
 1688TIP3    H126479   4.827   4.683  16.937 -0.2042  0.5448  1.3873
 1688TIP3    H226480   4.950   4.770  16.960 -0.2448  1.2629 -1.0147
 1689TIP3   OH226481   6.034   0.346  16.262 -0.2011  0.3399  0.4433
 1689TIP3    H126482   6.010   0.316  16.174 -1.6965  0.8935  0.6577
 1689TIP3    H226483   6.107   0.290  16.287  0.5224  0.4515 -1.3232
 1690TIP3   OH226484   4.277   5.133   2.351 -0.2306 -0.2175  0.1196
 1690TIP3    H126485   4.253   5.045   2.322 -0.1318  0.7150 -3.0240
 1690TIP3    H226486   4.361   5.121   2.396 -0.4669 -1.7864  0.1852
 1691TIP3   OH226487   4.785   5.889   5.675  0.3544 -0.2477 -0.2279
 1691TIP3    H126488   4.801   5.837   5.596  1.9261 -0.5349  0.2516
 1691TIP3    H226489   4.859   5.869   5.732  0.3625  1.6189  0.4553
 1692TIP3   OH226490   6.100   6.192  11.498 -0.0401 -0.0925  0.0189
 1692TIP3    H126491   6.175   6.178  11.556  0.5153 -0.3182 -0.7404
 1692TIP3    H226492   6.029   6.219  11.556  0.6295  0.1193  0.7499
 1693TIP3   OH226493   1.554   3.641   2.494  0.5820  0.2034  0.6473
 1693TIP3    H126494   1.525   3.613   2.580 -1.7055 -0.1683 -0.2177
 1693TIP3    H226495   1.525   3.732   2.487 -0.2774 -0.1290 -0.1811
 1694TIP3   OH226496   0.280   5.924   6.210  0.0126 -0.3809 -0.6511
 1694TIP3    H126497   0.247   5.988   6.274  1.7233  0.8606 -0.9805
 1694TIP3    H226498   0.202   5.892   6.165 -1.0954 -0.3209  1.1728
 1695TIP3   OH226499   5.743   6.432   4.391  0.1548 -0.0397 -0.5208
 1695TIP3    H126500   5.825   6.397   4.356  0.7508 -0.1590  0.9439
 1695TIP3    H226501   5.730   6.514   4.344  0.3920 -0.6930 -1.7447
 1696TIP3   OH226502   6.543   4.438  15.882 -0.3804  0.3464 -0.2106
 1696TIP3    H126503   6.482   4.503  15.848  1.4253  1.4027 -1.5274
 1696TIP3    H226504   6.627   4.483  15.883  0.2839 -0.8573  2.1974
 1697TIP3   OH226505   3.923   4.633   5.077 -0.2535 -0.3399 -0.0258
 1697TIP3    H126506   3.881   4.701   5.130 -2.4488 -1.4513 -0.3081
 1697TIP3    H226507   3.999   4.607   5.128  0.6684  2.3445  0.0720
 1698TIP3   OH226508   0.360   4.208  16.066  0.2801 -1.0201 -0.0539
 1698TIP3    H126509   0.281   4.207  16.121 -0.1119 -3.1253 -0.6373
 1698TIP3    H226510   0.431   4.219  16.129 -0.4162  0.3957  0.5232
 1699TIP3   OH226511   3.280   0.438   2.649 -0.3263  0.4438  0.4865
 1699TIP3    H126512   3.220   0.440   2.574 -0.2833  0.5056  0.4540
 1699TIP3    H226513   3.237   0.380   2.712  0.7512 -1.4911 -0.5214
 1700TIP3   OH226514   4.525   5.455   6.000 -0.5904  0.2821 -0.0451
 1700TIP3    H126515   4.552   5.544   5.976  0.8780 -0.2076 -0.2123
 1700TIP3    H226516   4.601   5.418   6.045 -1.1562 -0.9382 -0.0847
 1701TIP3   OH226517   3.311   5.713  16.206  0.0906  0.3567  0.1891
 1701TIP3    H126518   3.391   5.668  16.232  0.2861  1.1061  0.9074
 1701TIP3    H226519   3.277   5.751  16.287 -1.9395 -1.4020  0.2254
 1702TIP3   OH226520   5.999   3.281  15.306  0.5510  0.4768  0.6739
 1702TIP3    H126521   5.952   3.365  15.307  0.7471  0.5824  0.8911
 1702TIP3    H226522   6.085   3.302  15.270  1.2104  0.6880  2.3468
 1703TIP3   OH226523   6.132   4.547   1.200 -0.1129 -0.3229 -0.2182
 1703TIP3    H126524   6.096   4.627   1.162 -1.2264 -1.0904 -0.8302
 1703TIP3    H226525   6.173   4.574   1.282 -0.7038  0.8303 -0.3018
 1704TIP3   OH226526   6.502   4.940  14.408 -0.0665 -0.3746 -0.3247
 1704TIP3    H126527   6.558   4.952  14.485 -3.4209  3.1607  1.7522
 1704TIP3    H226528   6.530   5.010  14.348 -0.5230 -0.2219 -0.3597
 1705TIP3   OH226529   0.623   5.256  11.765  0.0881  0.2567 -0.4043
 1705TIP3    H126530   0.585   5.170  11.747 -2.3756  1.6877 -2.3962
 1705TIP3    H226531   0.698   5.261  11.705  0.2904 -0.5174 -0.2263
 1706TIP3   OH226532   2.508   4.165  16.641  0.2134 -0.4526  0.4361
 1706TIP3    H126533   2.436   4.222  16.666  0.4117 -1.0091  2.4084
 1706TIP3    H226534   2.468   4.079  16.630  0.2898 -0.4011 -0.2774
 1707TIP3   OH226535   6.746   4.904   0.262 -0.8044  0.3307 -0.3925
 1707TIP3    H126536   6.665   4.929   0.306 -0.8184 -0.1205 -0.1617
 1707TIP3    H226537   6.737   4.810   0.246  0.9090 -0.3139  2.2377
 1708TIP3   OH226538   2.592   4.553  11.902 -0.3971 -0.0664  0.1629
 1708TIP3    H126539   2.538   4.631  11.912  0.5066  0.6527 -0.4085
 1708TIP3    H226540   2.531   4.485  11.872 -0.5911  1.3834 -3.0149
 1709TIP3   OH226541   3.967   4.404  15.489 -0.6953 -0.4453  0.0151
 1709TIP3    H126542   4.031   4.340  15.519 -1.1780 -1.1825 -0.5137
 1709TIP3    H226543   4.007   4.444  15.412 -1.6085 -2.1484 -1.3561
 1710TIP3   OH226544   4.927   5.750   2.435  0.3663 -0.1484  0.6260
 1710TIP3    H126545   4.886   5.829   2.470 -0.2347 -0.8548  1.5304
 1710TIP3    H226546   5.018   5.754   2.467  1.1890  1.6737 -1.7991
 1711TIP3   OH226547   6.592   4.444   6.189 -0.4176 -0.0930 -0.3290
 1711TIP3    H126548   6.675   4.490   6.202 -1.4049  1.7426 -0.3859
 1711TIP3    H226549   6.602   4.362   6.238  1.0757  0.5279  0.4314
 1712TIP3   OH226550   2.353   3.231   3.949 -0.5550  0.1647  0.3666
 1712TIP3    H126551   2.299   3.227   3.870  0.4185  1.0474 -0.3588
 1712TIP3    H226552   2.336   3.319   3.984 -0.6798 -0.0793  0.9227
 1713TIP3   OH226553   4.213   4.631  16.843  0.0690  0.0796 -0.0371
 1713TIP3    H126554   4.305   4.624  16.819  0.2260 -0.6904  0.7702
 1713TIP3    H226555   4.194   4.550  16.891 -1.4297 -0.4804 -1.5317
 1714TIP3   OH226556   4.144   2.548   0.042  0.4165 -0.4764  0.2062
 1714TIP3    H126557   4.200   2.531  -0.034 -1.8341 -2.0151 -1.1738
 1714TIP3    H226558   4.168   2.636   0.071  1.9665 -0.2468 -1.7137
 1715TIP3   OH226559   1.535   2.511  12.736  0.0991 -0.6514  0.6573
 1715TIP3    H126560   1.476   2.541  12.667  2.1335 -0.8816 -1.2443
 1715TIP3    H226561   1.585   2.589  12.760  0.6398 -0.9831  0.5982
 1716TIP3   OH226562   0.963   4.239   5.900 -0.1582 -0.5980 -0.0918
 1716TIP3    H126563   0.875   4.210   5.924  0.9624 -1.3397  3.4806
 1716TIP3    H226564   0.966   4.331   5.924 -0.7903  0.1614 -2.8001
 1717TIP3   OH226565   2.118   3.308   2.790 -0.4573  0.0445 -0.1185
 1717TIP3    H126566   2.025   3.283   2.793  0.3433 -3.0880  0.2160
 1717TIP3    H226567   2.158   3.262   2.863  1.2457  2.0976  0.2896
 1718TIP3   OH226568   0.974   5.149  16.494 -0.2060 -0.2773 -0.1749
 1718TIP3    H126569   0.961   5.090  16.420 -0.7780 -0.0215 -0.2856
 1718TIP3    H226570   1.066   5.138  16.519  0.2095  0.2690 -1.4689
 1719TIP3   OH226571   6.628   3.608   5.120 -0.9340  0.3754 -0.4688
 1719TIP3    H126572   6.591   3.651   5.042  0.0265 -1.5251 -2.0275
 1719TIP3    H226573   6.714   3.649   5.131 -1.6615  1.6822  0.5065
 1720TIP3   OH226574   5.592   5.050   1.670 -0.4352  0.3970  0.1956
 1720TIP3    H126575   5.663   5.042   1.734 -1.3562  0.3412  1.2112
 1720TIP3    H226576   5.562   5.140   1.679 -1.4107  0.0170  0.7290
 1721TIP3   OH226577   5.732   5.042  13.344  0.5387  0.5354  0.3007
 1721TIP3    H126578   5.716   4.952  13.373 -0.5221  0.3136 -0.8998
 1721TIP3    H226579   5.687   5.097  13.409  0.5046  0.1718  0.5843
 1722TIP3   OH226580   4.901   5.936  15.473 -0.3246  0.4809  0.0515
 1722TIP3    H126581   4.826   5.979  15.515 -0.8931  1.8845 -2.2591
 1722TIP3    H226582   4.864   5.856  15.436 -0.7594  1.2118 -1.1569
 1723TIP3   OH226583   3.057   0.194  14.630  0.4128 -0.1718  0.0623
 1723TIP3    H126584   3.004   0.154  14.699  0.1078  0.3763  0.1429
 1723TIP3    H226585   3.125   0.129  14.612  0.3991 -0.3834  0.7665
 1724TIP3   OH226586   4.805   6.146   3.745  0.3042  0.6320  0.0308
 1724TIP3    H126587   4.773   6.104   3.824 -1.0505 -0.3842 -1.0254
 1724TIP3    H226588   4.866   6.212   3.776  2.1486 -1.7875  1.7752
 1725TIP3   OH226589   5.804   4.042  16.075  0.2096  0.2763  0.0112
 1725TIP3    H126590   5.760   4.044  15.990  1.6991 -0.2908 -0.7884
 1725TIP3    H226591   5.745   3.992  16.132 -0.8279  0.7166 -0.6565
 1726TIP3   OH226592   4.261   1.894   3.522  0.0941  0.1304  0.2720
 1726TIP3    H126593   4.267   1.810   3.476  1.2706  0.1546  0.3669
 1726TIP3    H226594   4.233   1.871   3.610 -0.6991 -0.0576 -0.0292
 1727TIP3   OH226595   1.530   0.061  12.744  0.1029 -0.0399 -0.8479
 1727TIP3    H126596   1.442   0.031  12.762 -0.6132  1.9018 -0.9565
 1727TIP3    H226597   1.561   0.097  12.827  0.5948 -0.2302 -0.9449
 1728TIP3   OH226598   6.402   0.187  12.650 -0.2267  0.5293  0.1694
 1728TIP3    H126599   6.328   0.127  12.655 -0.9557  1.2561 -1.4849
 1728TIP3    H226600   6.474   0.134  12.616 -1.0005  0.6944 -1.7518
 1729TIP3   OH226601   4.530   6.524   0.935 -0.0301  0.2112  0.3376
 1729TIP3    H126602   4.572   6.584   0.996  0.2607  0.3782 -0.0214
 1729TIP3    H226603   4.543   6.437   0.974 -0.7198  0.4065  1.0088
 1730TIP3   OH226604   6.686   2.631   4.636 -0.1635 -0.0798 -0.8584
 1730TIP3    H126605   6.601   2.671   4.616 -1.0033 -1.6192 -0.4755
 1730TIP3    H226606   6.740   2.649   4.560 -0.6917  1.3046 -0.9193
 1731TIP3   OH226607   2.153   5.496  12.189  0.0329 -0.2063  0.4265
 1731TIP3    H126608   2.227   5.451  12.229  0.1109 -0.3953  0.0738
 1731TIP3    H226609   2.098   5.426  12.154  0.9834  0.0244 -1.5786
 1732TIP3   OH226610   1.967   3.335   4.983 -0.1313  0.0258  0.0498
 1732TIP3    H126611   1.880   3.346   4.944 -0.4375  0.5627  0.8834
 1732TIP3    H226612   2.022   3.308   4.909 -1.1401 -1.0125 -0.3527
 1733TIP3   OH226613   0.342   6.171  11.642 -0.5312 -0.6725 -0.0922
 1733TIP3    H126614   0.436   6.188  11.648 -0.7704  0.1039  1.8447
 1733TIP3    H226615   0.335   6.094  11.585  1.2310 -0.4174 -0.6903
 1734TIP3   OH226616   1.509   4.686  13.688  0.0423  0.7541 -0.4299
 1734TIP3    H126617   1.489   4.745  13.761  1.4739  0.2498  0.3718
 1734TIP3    H226618   1.521   4.600  13.729  0.3636  0.3730 -1.3155
 1735TIP3   OH226619   5.943   4.248   0.246 -0.1509 -0.0327 -0.3088
 1735TIP3    H126620   5.850   4.269   0.237 -0.5623 -1.8752 -0.4985
 1735TIP3    H226621   5.981   4.271   0.162 -0.4128  0.7858 -0.2120
 1736TIP3   OH226622   4.842   3.473  12.618 -0.5451  0.0981  0.2979
 1736TIP3    H126623   4.748   3.474  12.639 -1.0507  0.1698 -1.8826
 1736TIP3    H226624   4.847   3.507  12.529  1.4384 -1.2491 -0.1347
 1737TIP3   OH226625   2.131   4.777   0.541  0.4252  0.0898  0.4431
 1737TIP3    H126626   2.136   4.778   0.636  1.1935  0.0372  0.4062
 1737TIP3    H226627   2.105   4.866   0.517  0.8641  0.2777  0.6672
 1738TIP3   OH226628   4.878   5.024  13.555  0.2146  0.0225 -0.3753
 1738TIP3    H126629   4.809   5.043  13.618 -0.6750  0.7032 -1.5226
 1738TIP3    H226630   4.840   4.959  13.496  0.9166 -0.3506 -0.4241
 1739TIP3   OH226631   4.033   0.745   3.193 -0.6412  0.0232  0.3468
 1739TIP3    H126632   3.974   0.748   3.118 -0.3672  1.7737  0.1720
 1739TIP3    H226633   3.977   0.719   3.266 -0.5911 -3.1846 -0.7206
 1740TIP3   OH226634   2.158   2.777   6.041  0.1813 -0.3504 -0.3028
 1740TIP3    H126635   2.214   2.742   5.972 -0.3409 -0.3154 -0.7396
 1740TIP3    H226636   2.213   2.774   6.120  0.6365 -0.7585 -0.6362
 1741TIP3   OH226637   3.141   6.435   5.224 -0.6890 -0.3637  0.5519
 1741TIP3    H126638   3.175   6.487   5.297 -1.2424  0.5490  0.1664
 1741TIP3    H226639   3.150   6.345   5.253  0.1722 -0.0557  1.2831
 1742TIP3   OH226640   4.666   6.659  11.468 -0.2741 -0.1487 -0.1279
 1742TIP3    H126641   4.666   6.599  11.543  1.3280 -3.0388 -2.3379
 1742TIP3    H226642   4.747   6.709  11.478 -0.7683  0.4625  0.8227
 1743TIP3   OH226643   1.955   3.806  15.938  0.2277 -0.0157  0.2328
 1743TIP3    H126644   1.876   3.756  15.961  1.8292 -2.5836  0.3109
 1743TIP3    H226645   1.970   3.786  15.845  0.8857  0.3620  0.2535
 1744TIP3   OH226646   4.534   3.356  12.401  0.4221  0.3240  0.2353
 1744TIP3    H126647   4.452   3.405  12.394 -0.3442 -1.1415 -1.1221
 1744TIP3    H226648   4.602   3.423  12.395 -0.6088  1.2216 -1.8882
 1745TIP3   OH226649   2.441   0.417  11.030  0.3040 -0.7098  0.1658
 1745TIP3    H126650   2.452   0.427  11.124 -1.1434 -0.1649  0.2776
 1745TIP3    H226651   2.389   0.337  11.019 -1.9108  0.7299 -0.0352
 1746TIP3   OH226652   6.268   2.224  13.389  0.1305  0.0755  0.7138
 1746TIP3    H126653   6.330   2.231  13.316  0.1638 -0.1240  0.7201
 1746TIP3    H226654   6.319   2.247  13.466 -0.8442  3.9597  0.2734
 1747TIP3   OH226655   6.340   3.766  12.649 -0.2151  0.6067  0.3690
 1747TIP3    H126656   6.351   3.671  12.649 -1.1423  0.4958  0.2395
 1747TIP3    H226657   6.247   3.780  12.669 -0.1353  1.4766  0.1722
 1748TIP3   OH226658   1.862   3.179   2.302  0.2803  0.2992 -0.3504
 1748TIP3    H126659   1.939   3.203   2.250 -0.8580  0.4354 -2.0077
 1748TIP3    H226660   1.820   3.262   2.323 -0.5939  0.1117 -1.3105
 1749TIP3   OH226661   3.742   1.596  12.640  0.4926 -0.0077 -0.2404
 1749TIP3    H126662   3.823   1.555  12.610  1.1201  0.4241  0.8361
 1749TIP3    H226663   3.705   1.638  12.562  0.8084 -1.0230 -0.9404
 1750TIP3   OH226664   0.078   4.451   0.094  0.3153 -0.2132 -0.6855
 1750TIP3    H126665   0.082   4.504   0.015 -0.7448 -0.2233 -0.7428
 1750TIP3    H226666  -0.015   4.440   0.112  0.5273 -1.4261 -0.2563
 1751TIP3   OH226667   0.839   4.489   3.777 -0.3213 -0.8287  0.1816
 1751TIP3    H126668   0.858   4.575   3.742 -0.4803 -1.4273 -1.4013
 1751TIP3    H226669   0.886   4.486   3.860 -0.7444  0.9658  0.5117
 1752TIP3   OH226670   3.301   2.152   1.133 -0.4961 -0.1043  0.2544
 1752TIP3    H126671   3.361   2.226   1.127  1.6408 -1.7201  0.8647
 1752TIP3    H226672   3.221   2.188   1.171 -0.0623  2.1716 -0.9485
 1753TIP3   OH226673   6.215   1.239   5.096 -0.0647  0.5775  0.5624
 1753TIP3    H126674   6.128   1.208   5.072 -0.1704  0.3342  1.2560
 1753TIP3    H226675   6.261   1.161   5.128  0.5637  0.6146 -0.2305
 1754TIP3   OH226676   2.796   2.564  15.636  0.2052 -0.0254  0.8669
 1754TIP3    H126677   2.886   2.575  15.665  0.1030  2.4918  0.2928
 1754TIP3    H226678   2.803   2.542  15.543  0.1930  1.3722  0.5302
 1755TIP3   OH226679   4.985   3.355  10.986 -0.6290 -0.1860  0.0954
 1755TIP3    H126680   5.028   3.355  11.071 -3.1444  2.3576  1.4633
 1755TIP3    H226681   4.906   3.302  10.999 -0.5898 -0.4971 -0.8997
 1756TIP3   OH226682   5.828   5.627   3.874 -0.1160 -0.5827  0.2539
 1756TIP3    H126683   5.845   5.719   3.891 -0.3310 -0.1934 -1.5288
 1756TIP3    H226684   5.853   5.614   3.783  1.1893 -2.6106  0.8651
 1757TIP3   OH226685   3.734   0.296   5.572  0.4125 -0.2419  0.3855
 1757TIP3    H126686   3.711   0.215   5.526  1.9330 -1.1665  1.2319
 1757TIP3    H226687   3.735   0.272   5.665  0.8299  0.7549  0.6491
 1758TIP3   OH226688   4.228   5.883  10.903  0.2259  0.4598  0.4868
 1758TIP3    H126689   4.284   5.878  10.981  0.0400 -1.2641  0.5423
 1758TIP3    H226690   4.286   5.861  10.830 -0.0571  0.0142  0.3901
 1759TIP3   OH226691   4.627   1.041  10.905 -0.2770  0.2208 -0.0701
 1759TIP3    H126692   4.617   1.132  10.931 -0.9803 -0.0694  0.7025
 1759TIP3    H226693   4.571   1.032  10.827  0.1229  0.5465 -0.3984
 1760TIP3   OH226694   5.354   4.653  14.809 -0.0664 -0.0135  0.2033
 1760TIP3    H126695   5.307   4.679  14.888 -2.0202 -2.6765 -0.0147
 1760TIP3    H226696   5.331   4.719  14.743 -0.7477  0.5832  1.0453
 1761TIP3   OH226697   0.941   0.425  11.718 -0.0971  0.2945  0.2173
 1761TIP3    H126698   1.006   0.358  11.739 -0.2571  0.2189  0.4709
 1761TIP3    H226699   0.986   0.507  11.733  0.3403  0.2490 -0.8186
 1762TIP3   OH226700   2.305   5.260  16.966  0.1164 -0.7809 -0.1307
 1762TIP3    H126701   2.354   5.279  16.885  0.7278 -0.5867  0.2813
 1762TIP3    H226702   2.253   5.183  16.944  0.9583 -1.2742 -0.4399
 1763TIP3   OH226703   3.017   2.896   6.185  0.5436 -0.2607 -0.6950
 1763TIP3    H126704   3.071   2.939   6.252  0.7408 -1.3535 -0.1390
 1763TIP3    H226705   2.933   2.942   6.190  0.9773  0.5357 -0.6132
 1764TIP3   OH226706   4.873   3.014   0.116  0.1142 -0.6889  0.0578
 1764TIP3    H126707   4.847   2.923   0.099  0.6493 -0.6534 -1.0516
 1764TIP3    H226708   4.814   3.066   0.062 -0.3288 -0.3556  0.8542
 1765TIP3   OH226709   1.181   3.613  12.230  0.1547  0.0231  0.0648
 1765TIP3    H126710   1.105   3.584  12.178  0.5680 -1.6149  0.3355
 1765TIP3    H226711   1.175   3.708  12.230 -0.9015 -0.0192 -1.4282
 1766TIP3   OH226712   6.386   2.988  15.784  0.0140 -0.2702  0.5486
 1766TIP3    H126713   6.473   3.027  15.782 -0.7806  1.5502  0.6368
 1766TIP3    H226714   6.396   2.904  15.739  1.5464  0.4727 -0.5257
 1767TIP3   OH226715   5.580   4.571  12.734 -0.0140 -0.5454 -0.2965
 1767TIP3    H126716   5.522   4.620  12.792 -1.3311 -0.7538 -1.3957
 1767TIP3    H226717   5.581   4.482  12.771 -0.7100 -0.6352 -0.4910
 1768TIP3   OH226718   1.521   6.701  14.636  0.0087 -0.1216  0.5456
 1768TIP3    H126719   1.429   6.703  14.609 -0.3180 -0.6799  1.5813
 1768TIP3    H226720   1.570   6.707  14.554 -0.9387  0.9170  0.0345
 1769TIP3   OH226721   0.226   6.255  11.859 -0.1256 -0.0122  0.1164
 1769TIP3    H126722   0.249   6.348  11.848 -0.8649  0.1376 -0.1778
 1769TIP3    H226723   0.276   6.210  11.791 -2.2761  0.5561 -1.9231
 1770TIP3   OH226724   3.771   1.092  15.397  0.0333 -0.3097 -0.2949
 1770TIP3    H126725   3.824   1.012  15.401  0.1652 -0.4074 -3.0221
 1770TIP3    H226726   3.813   1.151  15.459  0.6709 -1.9285  0.8571
 1771TIP3   OH226727   6.724   5.627  15.231 -0.4832 -0.0844 -0.2303
 1771TIP3    H126728   6.652   5.689  15.245 -1.4276 -0.7290 -2.0269
 1771TIP3    H226729   6.682   5.541  15.239  0.3002 -0.4723 -0.2850
 1772TIP3   OH226730   6.600   5.678  11.880  0.1983 -0.4746  0.4313
 1772TIP3    H126731   6.535   5.621  11.839  0.7552 -0.8427  0.0513
 1772TIP3    H226732   6.676   5.622  11.893  0.6025  0.0782  0.4516
 1773TIP3   OH226733   1.224   1.411   3.395 -0.3744  0.1975  0.0812
 1773TIP3    H126734   1.292   1.478   3.392  0.1788 -0.3911 -1.6868
 1773TIP3    H226735   1.222   1.382   3.486  2.3151 -0.3017  0.0396
 1774TIP3   OH226736   3.108   1.097   0.328 -0.2145 -0.1156  0.5464
 1774TIP3    H126737   3.073   1.177   0.288  2.3451  1.6966  1.8516
 1774TIP3    H226738   3.159   1.056   0.258  0.7288  0.8320  0.6652
 1775TIP3   OH226739   5.704   5.658  16.568  0.3502 -0.7797 -0.4617
 1775TIP3    H126740   5.793   5.624  16.571  1.4571  2.0042 -1.1635
 1775TIP3    H226741   5.692   5.688  16.478 -1.3609 -1.2596 -0.4170
 1776TIP3   OH226742   0.432   4.432  14.916  0.1461 -0.0970 -0.4801
 1776TIP3    H126743   0.413   4.366  14.983  0.7110  0.4359  0.2235
 1776TIP3    H226744   0.432   4.384  14.833  0.8281 -1.0399  0.0509
 1777TIP3   OH226745   1.262   2.917   1.875 -0.4222  0.4312 -0.0520
 1777TIP3    H126746   1.269   3.012   1.882  0.4984  0.3900 -0.3455
 1777TIP3    H226747   1.349   2.884   1.898 -0.1062 -0.2171 -2.0567
 1778TIP3   OH226748   4.455   1.058   5.952 -0.1869  0.0783 -0.2599
 1778TIP3    H126749   4.526   1.075   5.890 -1.5395  0.3900 -1.7633
 1778TIP3    H226750   4.447   1.139   6.003  1.0435 -0.2394  0.4409
 1779TIP3   OH226751   4.187   5.679   3.659 -0.2280 -0.5991 -0.0767
 1779TIP3    H126752   4.136   5.629   3.596  0.1863 -1.2590  0.1110
 1779TIP3    H226753   4.278   5.663   3.635 -0.0554 -1.1906  0.9449
 1780TIP3   OH226754   4.666   0.509  15.018  0.3320  0.4506 -0.1740
 1780TIP3    H126755   4.657   0.528  15.112 -0.3297 -0.5511 -0.0266
 1780TIP3    H226756   4.715   0.427  15.015  1.8113  1.3412 -0.7589
 1781TIP3   OH226757   0.757   6.658   1.805 -0.6046  0.2923  0.5378
 1781TIP3    H126758   0.846   6.660   1.843  0.0135 -0.9724 -0.8012
 1781TIP3    H226759   0.766   6.703   1.721 -1.1142 -0.2674  0.1816
 1782TIP3   OH226760   2.302   4.920   5.529 -0.6363  0.0204 -0.3149
 1782TIP3    H126761   2.282   5.013   5.540 -0.1447 -0.1810  2.6207
 1782TIP3    H226762   2.390   4.909   5.566  0.1827 -1.2814 -2.4752
 1783TIP3   OH226763   5.244   3.896  11.804  0.5275  0.7134 -0.1323
 1783TIP3    H126764   5.223   3.989  11.798 -0.2491  0.5156 -0.5811
 1783TIP3    H226765   5.321   3.885  11.748  0.8627  1.1530  0.2376
 1784TIP3   OH226766   5.064   5.908   2.833  0.1409 -0.0979 -0.1410
 1784TIP3    H126767   5.122   5.902   2.909  0.4310 -2.8538 -0.5300
 1784TIP3    H226768   5.106   5.854   2.766 -0.6720  1.3950 -1.9019
 1785TIP3   OH226769   4.011   2.963   3.746 -0.1069 -0.0084 -0.1447
 1785TIP3    H126770   4.080   3.027   3.763 -0.4318  0.4309 -0.4807
 1785TIP3    H226771   3.944   3.011   3.698 -0.2775 -0.6414 -0.5511
 1786TIP3   OH226772   4.008   4.420   6.403 -0.7366 -0.1290  0.0312
 1786TIP3    H126773   3.972   4.387   6.321  0.3168  1.6959 -1.1960
 1786TIP3    H226774   3.952   4.382   6.471 -1.9957 -1.1641 -1.5526
 1787TIP3   OH226775   5.507   2.481   1.215  0.3560 -0.1566 -0.3711
 1787TIP3    H126776   5.566   2.482   1.139  0.3224 -0.5783 -0.4012
 1787TIP3    H226777   5.535   2.556   1.268  0.6361 -0.0969 -0.6050
 1788TIP3   OH226778   5.524   3.335   5.322 -0.2690  0.8250 -0.4371
 1788TIP3    H126779   5.437   3.327   5.282 -0.5058  1.8986 -0.1464
 1788TIP3    H226780   5.514   3.294   5.408 -0.5846  1.2872 -0.2545
 1789TIP3   OH226781   2.407   2.348   3.378 -0.1926  0.7307 -0.1066
 1789TIP3    H126782   2.391   2.278   3.441 -1.3346  0.3784 -0.7755
 1789TIP3    H226783   2.432   2.423   3.431  0.0302  0.1046  0.6837
 1790TIP3   OH226784   2.145   4.389   6.130 -0.8274 -0.3264 -0.2607
 1790TIP3    H126785   2.122   4.299   6.107  3.1489 -0.9431 -2.3406
 1790TIP3    H226786   2.094   4.443   6.070 -0.8167 -1.3425 -1.1998
 1791TIP3   OH226787   3.048   6.242   5.649  0.1606  0.5877 -0.4881
 1791TIP3    H126788   3.045   6.148   5.664  0.8337  0.7072  0.4586
 1791TIP3    H226789   2.974   6.260   5.592 -0.8868 -0.2939  0.5764
 1792TIP3   OH226790   0.491   6.602   1.851 -0.1982 -0.0946 -0.2173
 1792TIP3    H126791   0.580   6.611   1.819 -0.9934  3.5625 -1.6193
 1792TIP3    H226792   0.451   6.536   1.794 -0.0698  2.5336 -3.4233
 1793TIP3   OH226793   4.794   3.200  10.625  0.2886 -0.0747  0.3250
 1793TIP3    H126794   4.778   3.117  10.579  2.3017  0.6738 -1.8204
 1793TIP3    H226795   4.745   3.265  10.576  1.8353  0.6100 -0.3343
 1794TIP3   OH226796   1.855   1.043  13.618 -0.2153 -0.1967  0.4086
 1794TIP3    H126797   1.854   1.139  13.624 -1.2846 -0.2702  1.8191
 1794TIP3    H226798   1.791   1.015  13.684  0.1679 -1.8828  0.0760
 1795TIP3   OH226799   0.531   1.361  14.948  0.3422  0.6975 -0.1832
 1795TIP3    H126800   0.466   1.329  15.011  0.3010  0.5208 -0.3131
 1795TIP3    H226801   0.484   1.363  14.865  0.9887 -1.1508 -0.6307
 1796TIP3   OH226802   3.076   3.877   2.262  0.1866  0.5596  0.1903
 1796TIP3    H126803   3.002   3.899   2.318 -1.5520 -1.2760 -1.3169
 1796TIP3    H226804   3.130   3.818   2.314 -1.2300 -0.8470  0.1065
 1797TIP3   OH226805   4.044   1.363   3.252  0.5249 -0.5165 -0.3319
 1797TIP3    H126806   3.981   1.335   3.318 -0.7482  4.5376  0.8281
 1797TIP3    H226807   4.123   1.383   3.302 -0.2898  2.8590 -0.2573
 1798TIP3   OH226808   3.566   5.724   2.714 -0.3528  0.7317 -0.4454
 1798TIP3    H126809   3.527   5.637   2.708  1.2697 -0.1312  0.9186
 1798TIP3    H226810   3.601   5.741   2.626 -1.0867  0.2192 -0.8426
 1799TIP3   OH226811   4.784   0.119  13.589  0.3702  0.3454  0.1139
 1799TIP3    H126812   4.807   0.170  13.511  2.2155 -0.4300  0.1060
 1799TIP3    H226813   4.733   0.046  13.555  1.4423 -0.1670 -0.4433
 1800TIP3   OH226814   2.365   4.103  11.513 -0.8997 -0.1475  0.4192
 1800TIP3    H126815   2.390   4.195  11.506 -1.5479 -0.0353 -0.6933
 1800TIP3    H226816   2.287   4.096  11.457 -1.7326 -1.0499  1.6612
 1801TIP3   OH226817   0.798   3.185  16.627 -0.3124  0.2738  1.0036
 1801TIP3    H126818   0.747   3.223  16.699 -0.8153 -0.8346  1.2312
 1801TIP3    H226819   0.885   3.173  16.664 -0.2875  0.7154  1.0924
 1802TIP3   OH226820   3.436   5.647   3.440  0.3419  0.0846 -0.1392
 1802TIP3    H126821   3.500   5.652   3.370  1.4621 -0.9566  0.7973
 1802TIP3    H226822   3.377   5.576   3.414  0.7211 -0.2581 -0.0657
 1803TIP3   OH226823   2.700   2.639  11.176  0.2013 -0.1027  0.0612
 1803TIP3    H126824   2.757   2.607  11.106  0.0579  0.2735 -0.2253
 1803TIP3    H226825   2.760   2.657  11.249  0.3638 -0.3857 -0.0040
 1804TIP3   OH226826   2.345   1.154   2.248  0.5448  0.2021  0.1522
 1804TIP3    H126827   2.407   1.190   2.312  0.2436  0.4159  0.3237
 1804TIP3    H226828   2.306   1.079   2.292  1.0502 -0.2355 -0.1433
 1805TIP3   OH226829   4.290   3.568  12.375 -0.1462 -0.0437 -0.0524
 1805TIP3    H126830   4.313   3.613  12.456  1.2602 -1.2354  0.2375
 1805TIP3    H226831   4.197   3.588  12.362  0.4352  3.0167 -0.0118
 1806TIP3   OH226832   3.236   3.220  12.979  0.6335 -0.0717 -0.4370
 1806TIP3    H126833   3.229   3.209  13.074  0.2286  1.9049 -0.2072
 1806TIP3    H226834   3.146   3.214  12.947  0.7154 -0.2663 -0.6258
 1807TIP3   OH226835   3.628   6.639  14.580  0.3210  0.2310  0.2964
 1807TIP3    H126836   3.698   6.575  14.568  1.1556  1.5825 -2.2888
 1807TIP3    H226837   3.590   6.650  14.493 -2.2562  0.5266  1.4029
 1808TIP3   OH226838   1.557   4.617  13.441  0.7677 -0.1311 -0.1895
 1808TIP3    H126839   1.651   4.626  13.459  0.8924  1.8421 -1.6909
 1808TIP3    H226840   1.515   4.680  13.499  0.1424 -2.3870  1.9266
 1809TIP3   OH226841   4.625   1.177  11.404  0.8709 -0.1778  0.7020
 1809TIP3    H126842   4.637   1.121  11.327 -2.7457 -0.8086  0.5123
 1809TIP3    H226843   4.597   1.261  11.367  0.5020 -0.0593  1.2515
 1810TIP3   OH226844   4.428   2.300   3.775  0.3776 -0.3589 -0.3182
 1810TIP3    H126845   4.430   2.374   3.836  0.3329  0.3374 -1.1478
 1810TIP3    H226846   4.339   2.265   3.784 -0.0847  0.6014 -0.9737
 1811TIP3   OH226847   4.228   5.310  15.771  0.7846  0.4091 -0.2666
 1811TIP3    H126848   4.225   5.405  15.774 -0.4736  0.4580 -2.2280
 1811TIP3    H226849   4.277   5.285  15.850  0.6166  2.6260  0.5766
 1812TIP3   OH226850   0.011   2.766  16.685  0.6230 -0.1816 -0.2903
 1812TIP3    H126851   0.103   2.774  16.663  0.9514  0.2889  1.1961
 1812TIP3    H226852  -0.017   2.856  16.704  0.6063 -0.6576  2.0790
 1813TIP3   OH226853   6.725   3.613  12.279  0.8069  0.1555  0.3265
 1813TIP3    H126854   6.735   3.643  12.189  1.1774  1.2127  0.7125
 1813TIP3    H226855   6.806   3.640  12.323  0.3806  0.1760  1.1205
 1814TIP3   OH226856   1.320   2.392  12.197  0.3520  0.5596  0.2091
 1814TIP3    H126857   1.356   2.306  12.218 -1.2232 -0.4961 -1.3306
 1814TIP3    H226858   1.273   2.419  12.276 -0.0572 -0.4688  0.3117
 1815TIP3   OH226859   6.506   2.543   2.952  0.0468  0.0708  0.4657
 1815TIP3    H126860   6.551   2.628   2.949  1.2079 -0.5640 -0.4608
 1815TIP3    H226861   6.577   2.478   2.944 -0.7821 -1.0004  1.6478
 1816TIP3   OH226862   4.577   1.328  16.445 -0.3566  0.2500  0.7989
 1816TIP3    H126863   4.602   1.411  16.487  1.4962 -0.3600  0.9100
 1816TIP3    H226864   4.506   1.294  16.501 -1.6122  2.0778  0.3646
 1817TIP3   OH226865   3.505   4.664   3.311 -0.5717 -0.1897 -0.0435
 1817TIP3    H126866   3.509   4.669   3.216 -2.4155  1.8726 -0.0546
 1817TIP3    H226867   3.431   4.606   3.329 -0.3650 -0.3961  0.1497
 1818TIP3   OH226868   2.123   2.531   6.439  0.0392  0.1225  0.1045
 1818TIP3    H126869   2.209   2.491   6.453  0.6980  0.6268 -2.3055
 1818TIP3    H226870   2.112   2.533   6.344 -1.6506  2.1603  0.2953
 1819TIP3   OH226871   6.182   4.132   4.687  0.0335  0.1413  0.1183
 1819TIP3    H126872   6.208   4.076   4.760 -0.6471  1.2645  1.2388
 1819TIP3    H226873   6.093   4.103   4.665  0.7793 -1.1656 -1.2269
 1820TIP3   OH226874   6.568   1.352   3.938 -0.2813 -0.0586 -0.4365
 1820TIP3    H126875   6.662   1.370   3.936 -0.4285  0.7635 -0.0356
 1820TIP3    H226876   6.559   1.268   3.894  0.6376 -0.1063 -0.5393
 1821TIP3   OH226877   4.873   4.723  14.647 -0.0635  0.5669 -0.4084
 1821TIP3    H126878   4.861   4.630  14.626  1.4655 -0.2500  1.9697
 1821TIP3    H226879   4.906   4.722  14.737  1.9815  3.3059 -1.0515
 1822TIP3   OH226880   6.235   3.166   2.617  0.2648 -0.2050  0.4591
 1822TIP3    H126881   6.148   3.203   2.602  0.1057 -0.2664  1.2114
 1822TIP3    H226882   6.221   3.097   2.683  0.8043 -0.5364  0.2268
 1823TIP3   OH226883   6.161   6.262   3.974 -0.1030 -0.2264  0.5556
 1823TIP3    H126884   6.120   6.249   3.889 -2.0445 -1.6391  1.6842
 1823TIP3    H226885   6.233   6.199   3.976  1.3060  1.2805 -0.8524
 1824TIP3   OH226886   1.541   6.161  11.118  0.2532  0.0550 -0.6020
 1824TIP3    H126887   1.553   6.129  11.207 -0.5069  0.4992 -0.3427
 1824TIP3    H226888   1.584   6.095  11.063  2.8867  1.0239  0.2227
 1825TIP3   OH226889   3.689   5.256  11.641 -0.0269 -0.3757 -0.3891
 1825TIP3    H126890   3.697   5.327  11.705 -0.9477  0.2540 -0.9585
 1825TIP3    H226891   3.778   5.244  11.608  0.0380  0.8999 -0.7001
 1826TIP3   OH226892   3.366   0.280   1.797 -0.6415  0.1899 -0.2028
 1826TIP3    H126893   3.331   0.300   1.883  0.5791 -0.5038  0.4661
 1826TIP3    H226894   3.302   0.221   1.757  0.7694 -2.8132  1.8363
 1827TIP3   OH226895   2.855   0.586  14.870  0.0466 -0.1592  0.5122
 1827TIP3    H126896   2.882   0.594  14.962  1.4772 -1.1565  0.1986
 1827TIP3    H226897   2.914   0.645  14.823  1.4743 -2.0363 -0.1328
 1828TIP3   OH226898   1.544   1.485  14.744  0.0743 -0.1013 -0.0818
 1828TIP3    H126899   1.573   1.546  14.676 -0.2169  0.4224  0.2594
 1828TIP3    H226900   1.561   1.398  14.708 -0.7291  0.1624 -1.1064
 1829TIP3   OH226901   0.978   0.604   2.061 -0.6933 -0.2724  0.3461
 1829TIP3    H126902   0.977   0.594   2.156 -2.4715  1.7480  0.5701
 1829TIP3    H226903   0.906   0.664   2.042  0.5319  0.4709 -2.1609
 1830TIP3   OH226904   1.717   4.231   3.133  0.2817 -0.1126  0.2512
 1830TIP3    H126905   1.663   4.294   3.181 -0.7373 -0.8945  0.1447
 1830TIP3    H226906   1.707   4.150   3.182 -0.2161 -0.7462 -0.8861
 1831TIP3   OH226907   0.720   0.517  16.210 -0.4024 -0.3178 -0.0381
 1831TIP3    H126908   0.663   0.440  16.199  1.4485 -1.4985 -1.6965
 1831TIP3    H226909   0.749   0.538  16.121  0.4045  1.3158  0.5950
 1832TIP3   OH226910   1.713   2.850   1.489 -0.7360  0.0289 -0.1083
 1832TIP3    H126911   1.704   2.772   1.544 -0.8836  0.0221 -0.1424
 1832TIP3    H226912   1.741   2.918   1.549  0.2711 -0.2681 -0.2398
 1833TIP3   OH226913   0.210   5.030   1.581  0.3773  0.3005  0.1012
 1833TIP3    H126914   0.217   4.978   1.501 -0.2444  0.8945 -0.3380
 1833TIP3    H226915   0.301   5.051   1.604  0.7832 -2.5821  1.3296
 1834TIP3   OH226916   3.653   2.669  14.706 -0.0407  0.6044 -0.7239
 1834TIP3    H126917   3.654   2.692  14.799 -3.6305 -0.6943 -0.2905
 1834TIP3    H226918   3.656   2.753  14.661  1.1424  1.2796  0.5613
 1835TIP3   OH226919   1.712   5.087  11.625  0.2613 -0.0655 -0.0598
 1835TIP3    H126920   1.786   5.122  11.675 -1.6568  4.6930 -0.2622
 1835TIP3    H226921   1.640   5.082  11.688 -0.7679  0.9174 -1.1363
 1836TIP3   OH226922   4.809   0.406   0.991  0.5659  0.0326 -0.3198
 1836TIP3    H126923   4.829   0.472   0.925 -0.0538  0.0408 -0.5067
 1836TIP3    H226924   4.720   0.428   1.021  0.1482 -1.0225 -0.7663
 1837TIP3   OH226925   0.896   4.130  13.627  0.2778  0.2912 -0.3215
 1837TIP3    H126926   0.888   4.157  13.536  0.5248  1.1072 -0.1025
 1837TIP3    H226927   0.808   4.138  13.663 -0.0003 -0.8785 -0.7136
 1838TIP3   OH226928   4.359   0.546  16.725 -0.3183 -0.1082 -0.0934
 1838TIP3    H126929   4.306   0.467  16.732 -0.0130 -0.4130 -1.1619
 1838TIP3    H226930   4.302   0.610  16.683  0.4033 -0.6816 -1.9856
 1839TIP3   OH226931   1.186   6.307  14.784  0.7321  0.1729  0.0494
 1839TIP3    H126932   1.216   6.318  14.694 -3.6658  0.8279 -1.4767
 1839TIP3    H226933   1.192   6.395  14.822  0.3278  0.3860 -0.3791
 1840TIP3   OH226934   3.466   0.027   1.482  0.0649  0.0227  0.2291
 1840TIP3    H126935   3.441   0.119   1.468 -1.2120 -0.4626 -0.8177
 1840TIP3    H226936   3.433   0.006   1.569 -0.2183  0.3677  0.2042
 1841TIP3   OH226937   1.973   1.574  14.843  0.0413  0.3411  0.0411
 1841TIP3    H126938   1.987   1.496  14.790 -1.9771  0.8204 -1.2888
 1841TIP3    H226939   2.053   1.583  14.895  0.7196 -2.0065 -0.5254
 1842TIP3   OH226940   2.534   0.797  12.432  0.0068 -0.4699  0.0683
 1842TIP3    H126941   2.569   0.845  12.508 -0.9627  0.5131 -0.0907
 1842TIP3    H226942   2.440   0.815  12.434 -0.0946 -0.8402 -1.0876
 1843TIP3   OH226943   0.574   0.094  15.488 -0.4971  0.3731  0.7147
 1843TIP3    H126944   0.614   0.175  15.519 -0.2460  0.1497  0.9714
 1843TIP3    H226945   0.630   0.066  15.416 -1.1288  0.9380 -0.0025
 1844TIP3   OH226946   6.372   5.911   2.825  0.2846  0.1784  0.5688
 1844TIP3    H126947   6.408   5.859   2.753 -0.4378 -0.5678  0.7429
 1844TIP3    H226948   6.370   5.851   2.900  1.1801  0.9896  1.2691
 1845TIP3   OH226949   4.212   3.931  11.323 -0.0947  0.2090  0.2839
 1845TIP3    H126950   4.269   3.964  11.393  0.7675 -0.6639  0.0166
 1845TIP3    H226951   4.257   3.956  11.242 -0.1166 -0.4498  0.0680
 1846TIP3   OH226952   6.068   2.356   3.923  0.2777 -0.5172 -0.1298
 1846TIP3    H126953   6.132   2.367   3.852  0.2535 -0.9191 -0.2174
 1846TIP3    H226954   6.022   2.439   3.928  0.9051 -0.1760  0.0230
 1847TIP3   OH226955   6.360   6.470  11.275  0.0516  0.2910  0.6783
 1847TIP3    H126956   6.413   6.547  11.254 -0.7179  0.4740 -0.6452
 1847TIP3    H226957   6.292   6.504  11.333 -1.1524  0.9184 -1.0663
 1848TIP3   OH226958   6.030   1.664  16.749 -0.1511 -0.0516  0.9252
 1848TIP3    H126959   6.018   1.569  16.744 -0.9842 -0.0057  1.8654
 1848TIP3    H226960   6.020   1.694  16.659  0.9422 -0.9438  0.4985
 1849TIP3   OH226961   6.334   0.364   1.266  0.3221 -0.6254  0.4186
 1849TIP3    H126962   6.422   0.367   1.229  0.1008  0.1743 -0.0468
 1849TIP3    H226963   6.325   0.274   1.298  0.7896 -1.1176 -0.7860
 1850TIP3   OH226964   0.667   0.872   1.764  0.3550 -0.2281  0.1117
 1850TIP3    H126965   0.754   0.901   1.791  0.9114 -0.1856 -1.6397
 1850TIP3    H226966   0.684   0.805   1.697 -0.9477 -1.8017  1.3334
 1851TIP3   OH226967   2.971   2.162   5.730  0.5498  0.0477  0.4085
 1851TIP3    H126968   2.904   2.229   5.743 -1.7640 -2.0229 -0.6847
 1851TIP3    H226969   2.931   2.081   5.760  3.2802 -0.9419  1.6106
 1852TIP3   OH226970   0.273   6.271  11.103 -0.6280 -0.5417  0.0385
 1852TIP3    H126971   0.326   6.282  11.182 -1.8308 -0.6585  0.8652
 1852TIP3    H226972   0.182   6.277  11.133 -1.1203 -1.5730 -1.1748
 1853TIP3   OH226973   3.920   1.783  14.653  0.2072 -0.0638 -1.0670
 1853TIP3    H126974   4.012   1.768  14.673  0.0495 -2.0545 -1.7919
 1853TIP3    H226975   3.903   1.872  14.684  2.3694  0.3218 -0.9415
 1854TIP3   OH226976   4.797   2.224   3.577 -0.1353  0.2001  0.7212
 1854TIP3    H126977   4.823   2.173   3.500  0.2573 -0.3264  1.1932
 1854TIP3    H226978   4.843   2.182   3.650  2.8539  3.2206  0.7254
 1855TIP3   OH226979   6.008   6.331  15.797  0.3806  0.2201  0.2992
 1855TIP3    H126980   5.913   6.330  15.807  0.1891  3.1532 -0.7474
 1855TIP3    H226981   6.040   6.378  15.874  0.9265 -0.1044  0.2754
 1856TIP3   OH226982   0.483   1.780  15.454 -0.3604  0.0751 -0.4885
 1856TIP3    H126983   0.518   1.752  15.369 -0.4353 -3.1323  0.4395
 1856TIP3    H226984   0.539   1.736  15.519 -0.5896  2.0927  1.1209
 1857TIP3   OH226985   4.538   0.113   0.802 -0.0383  0.1068  0.6372
 1857TIP3    H126986   4.606   0.155   0.750 -1.6214 -1.0907 -2.5941
 1857TIP3    H226987   4.575   0.028   0.826 -0.7547 -1.0956 -2.2352
 1858TIP3   OH226988   1.307   1.219  11.791  0.0184 -0.4836  0.3333
 1858TIP3    H126989   1.299   1.306  11.753 -2.5976 -0.7897  0.0720
 1858TIP3    H226990   1.223   1.204  11.835  1.6800 -1.5240  3.3030
 1859TIP3   OH226991   2.899   1.282  16.618 -0.5837 -0.2046 -0.3832
 1859TIP3    H126992   2.905   1.238  16.703  1.0238 -2.4116 -1.5857
 1859TIP3    H226993   2.844   1.224  16.566  1.0975 -0.5552 -1.8177
 1860TIP3   OH226994   4.348   6.713  12.486 -0.0325 -0.5230  0.4460
 1860TIP3    H126995   4.420   6.689  12.427 -1.7644  0.1070 -1.9894
 1860TIP3    H226996   4.326   6.632  12.532  1.7791 -0.8724  0.7280
 1861TIP3   OH226997   4.609   1.185   5.739  0.1688  0.2813 -0.2911
 1861TIP3    H126998   4.576   1.269   5.706  1.2648  0.7828 -0.1165
 1861TIP3    H226999   4.593   1.123   5.668 -2.4452  0.2013  0.3069
 1862TIP3   OH227000   4.049   6.536   3.301 -0.1615  0.1569 -0.4679
 1862TIP3    H127001   4.060   6.448   3.264  2.6800  0.2998 -0.0903
 1862TIP3    H227002   4.048   6.523   3.395 -0.4715  0.4704 -0.4265
 1863TIP3   OH227003   3.190   4.576   0.980  0.5465 -0.1288 -0.1506
 1863TIP3    H127004   3.204   4.557   0.888 -0.5000 -0.2268 -0.2854
 1863TIP3    H227005   3.279   4.584   1.016  0.9564 -0.2285 -1.1263
 1864TIP3   OH227006   3.799   2.626   6.140  0.2657  0.2885  0.2110
 1864TIP3    H127007   3.833   2.597   6.224  3.0132  0.2868 -0.8356
 1864TIP3    H227008   3.760   2.712   6.157 -2.1608 -1.1047  2.0703
 1865TIP3   OH227009   0.089   6.148  15.905  0.1006 -0.3079 -0.2922
 1865TIP3    H127010   0.057   6.238  15.901  1.5672  0.1881 -1.1202
 1865TIP3    H227011   0.178   6.155  15.940  1.1919 -1.1694 -2.8180
 1866TIP3   OH227012   2.608   6.138   4.894 -0.1460  0.2742 -0.4003
 1866TIP3    H127013   2.682   6.156   4.836  0.5973 -0.2858  0.3472
 1866TIP3    H227014   2.630   6.183   4.976 -0.3232 -0.4171  0.0367
 1867TIP3   OH227015   0.133   3.691   4.939 -0.2230  0.2783 -0.3639
 1867TIP3    H127016   0.110   3.706   5.030 -1.1657 -1.4297 -0.2951
 1867TIP3    H227017   0.050   3.696   4.892  0.3806  2.1197 -1.2897
 1868TIP3   OH227018   4.822   0.191   1.453 -0.3102  0.2318 -0.4492
 1868TIP3    H127019   4.917   0.179   1.454 -0.2085  0.4276 -3.1304
 1868TIP3    H227020   4.808   0.267   1.397 -2.0721 -0.1018 -0.4965
 1869TIP3   OH227021   3.758   5.996  13.320 -0.1490  0.0514 -0.2228
 1869TIP3    H127022   3.694   5.935  13.357 -0.3067 -0.9200 -2.0161
 1869TIP3    H227023   3.835   5.942  13.300  1.0633  1.1263  1.4721
 1870TIP3   OH227024   0.919   0.196   1.840 -0.4576  0.6569 -0.3482
 1870TIP3    H127025   0.833   0.230   1.815 -0.3894  0.8280 -0.3526
 1870TIP3    H227026   0.938   0.240   1.923 -1.5743 -1.3894  1.0561
 1871TIP3   OH227027   4.845   1.945   1.366  0.4625 -0.0871  0.2158
 1871TIP3    H127028   4.800   1.935   1.282  1.1277 -0.7706 -0.0583
 1871TIP3    H227029   4.923   1.996   1.346  1.0329 -0.9262  0.2744
 1872TIP3   OH227030   1.705   1.295  10.827 -0.4887 -0.1772 -0.4514
 1872TIP3    H127031   1.643   1.259  10.763 -1.1529  0.3932 -0.1376
 1872TIP3    H227032   1.774   1.230  10.833 -1.4333 -1.1643 -0.2531
 1873TIP3   OH227033   4.534   5.645   2.332 -0.3709  0.1299  0.2380
 1873TIP3    H127034   4.593   5.617   2.262 -1.3741 -0.2925 -0.4412
 1873TIP3    H227035   4.528   5.569   2.390  1.1898  0.7835  1.3047
 1874TIP3   OH227036   3.811   5.485   3.939  0.5086  0.2205  0.3108
 1874TIP3    H127037   3.786   5.418   3.876  1.7434  0.0421 -0.0082
 1874TIP3    H227038   3.873   5.540   3.891  1.4654  0.0802  1.3636
 1875TIP3   OH227039   4.952   3.246   0.662  0.1926  0.7041 -0.6353
 1875TIP3    H127040   4.959   3.235   0.756 -0.7996  1.2925 -0.4802
 1875TIP3    H227041   5.026   3.199   0.626  0.3348  0.1207  0.4198
 1876TIP3   OH227042   2.440   3.214   4.358  0.4256  0.0201 -0.1128
 1876TIP3    H127043   2.492   3.189   4.435  0.1280  0.1367  0.1268
 1876TIP3    H227044   2.442   3.309   4.358  0.1301  0.0265 -0.0468
 1877TIP3   OH227045   3.988   4.670  16.613 -0.2842  0.3449 -0.2250
 1877TIP3    H127046   4.054   4.616  16.655 -0.6940  0.1357  0.1499
 1877TIP3    H227047   3.923   4.608  16.580 -0.9343  0.6133  0.5182
 1878TIP3   OH227048   3.086   4.502   5.406 -0.0266 -0.2676  0.1432
 1878TIP3    H127049   3.009   4.448   5.387  0.6781 -1.8215  1.5917
 1878TIP3    H227050   3.050   4.589   5.425 -1.0976  0.0580 -3.1154
 1879TIP3   OH227051   2.953   1.200  11.654  0.1643 -0.0206 -0.3891
 1879TIP3    H127052   2.918   1.216  11.566 -0.0551 -0.1175 -0.3177
 1879TIP3    H227053   2.925   1.277  11.705  0.1447 -0.0463 -0.3605
 1880TIP3   OH227054   3.002   1.616   1.744 -0.8579 -0.1288  0.5522
 1880TIP3    H127055   2.961   1.664   1.816 -0.6014 -0.4184  0.8968
 1880TIP3    H227056   3.090   1.651   1.738 -1.3838  1.0257 -0.6894
 1881TIP3   OH227057   1.734   1.970  16.708  0.1731 -0.7200  0.0464
 1881TIP3    H127058   1.712   1.893  16.761 -0.4063  0.3549  1.4092
 1881TIP3    H227059   1.734   2.042  16.771  1.6433  0.2458 -1.0502
 1882TIP3   OH227060   0.603   3.975  12.104 -0.2926  0.3368  0.4325
 1882TIP3    H127061   0.610   4.066  12.132  0.0252  0.4829 -0.1164
 1882TIP3    H227062   0.532   3.975  12.040  2.5766  1.0334 -2.8982
 1883TIP3   OH227063   0.836   0.324   4.399  0.8723 -0.1919  0.3517
 1883TIP3    H127064   0.886   0.397   4.436  0.5923 -1.0698  2.5344
 1883TIP3    H227065   0.892   0.247   4.413  0.9146 -0.5245 -1.4239
 1884TIP3   OH227066   0.949   2.896  11.611 -0.0488  0.0686 -0.2067
 1884TIP3    H127067   1.028   2.857  11.575 -0.8105 -1.8318  0.1497
 1884TIP3    H227068   0.954   2.988  11.586  2.4305  0.0387  0.0805
 1885TIP3   OH227069   6.764   3.589   6.126  0.4636 -0.2562 -0.2169
 1885TIP3    H127070   6.845   3.622   6.166 -1.2550  1.0088  2.3368
 1885TIP3    H227071   6.756   3.500   6.160  0.9987 -0.5380 -0.8200
 1886TIP3   OH227072   2.995   6.169   2.577 -0.0819  0.1167 -0.1444
 1886TIP3    H127073   3.002   6.161   2.482 -0.1444 -0.5916 -0.0914
 1886TIP3    H227074   2.924   6.110   2.601  0.3417 -0.1756  0.4091
 1887TIP3   OH227075   1.201   6.196   1.637 -0.3707  0.4181  0.0806
 1887TIP3    H127076   1.179   6.170   1.727  0.1644  1.8405  0.6370
 1887TIP3    H227077   1.293   6.222   1.642 -0.6968  1.7250 -0.5965
 1888TIP3   OH227078   3.745   0.100  14.645  0.0312 -0.3553  0.4002
 1888TIP3    H127079   3.661   0.138  14.617 -0.5328 -0.8173  1.4560
 1888TIP3    H227080   3.728   0.006  14.651  0.7327 -0.4950  0.2657
 1889TIP3   OH227081   2.316   4.118   3.761  0.3062  0.3315 -0.8610
 1889TIP3    H127082   2.302   4.177   3.835  3.3237 -0.1850  0.1726
 1889TIP3    H227083   2.313   4.175   3.684 -0.5352  1.2172 -0.1912
 1890TIP3   OH227084   4.569   1.676   0.550  0.1291  0.1887 -0.0952
 1890TIP3    H127085   4.482   1.671   0.589  0.3480 -1.2814  0.2099
 1890TIP3    H227086   4.604   1.760   0.582 -0.6067  0.1150  0.9431
 1891TIP3   OH227087   0.547   2.505   1.359 -0.1309  0.5283 -0.0906
 1891TIP3    H127088   0.629   2.467   1.392  0.0757  0.4474 -0.6768
 1891TIP3    H227089   0.571   2.542   1.274 -0.6868  0.5875 -0.2238
 1892TIP3   OH227090   2.324   4.582  11.715 -0.5062 -0.0269  0.0129
 1892TIP3    H127091   2.397   4.577  11.653 -0.6863 -0.3764 -0.1725
 1892TIP3    H227092   2.263   4.516  11.684 -1.4756  1.1209 -0.5833
 1893TIP3   OH227093   5.136   3.102   6.162  0.0323 -0.0962  0.3152
 1893TIP3    H127094   5.229   3.107   6.184 -0.1360 -1.9562  1.5706
 1893TIP3    H227095   5.113   3.010   6.176 -1.4764 -0.1413 -2.1453
 1894TIP3   OH227096   6.774   1.955  15.108  0.0231 -0.5471  0.1520
 1894TIP3    H127097   6.759   1.872  15.155  0.3994 -2.2654 -2.6224
 1894TIP3    H227098   6.699   1.962  15.049  1.6178 -0.5951 -1.9301
 1895TIP3   OH227099   1.833   6.318   3.720 -0.3080  0.5293 -0.3670
 1895TIP3    H127100   1.897   6.248   3.712 -2.4724 -1.7329  1.2973
 1895TIP3    H227101   1.790   6.323   3.635 -0.4718 -0.4869 -0.3393
 1896TIP3   OH227102   5.501   4.819  11.518 -0.2464  0.2130 -0.4258
 1896TIP3    H127103   5.543   4.893  11.560  1.6965 -0.3757 -1.2737
 1896TIP3    H227104   5.485   4.847  11.428 -0.4002 -0.0627 -0.4878
 1897TIP3   OH227105   0.922   4.464   0.546 -0.1478  0.5169  0.2880
 1897TIP3    H127106   0.872   4.420   0.477 -2.0415  1.6862  0.8947
 1897TIP3    H227107   0.932   4.554   0.516  1.8510  0.2499  0.0578
 1898TIP3   OH227108   6.568   5.725   6.036  0.1627  0.2169  0.2918
 1898TIP3    H127109   6.649   5.720   5.985 -0.8309  1.1160 -1.4092
 1898TIP3    H227110   6.550   5.634   6.061  1.5252 -0.0272  0.4514
 1899TIP3   OH227111   2.776   5.733   0.710  0.2454 -0.0331 -0.3467
 1899TIP3    H127112   2.728   5.699   0.786  0.7666  0.3079  0.1379
 1899TIP3    H227113   2.788   5.826   0.728 -1.0130  0.3777 -1.5950
 1900TIP3   OH227114   4.337   3.843   5.686 -0.0213  0.4360  0.0534
 1900TIP3    H127115   4.253   3.883   5.708 -0.4927 -0.3745 -0.2466
 1900TIP3    H227116   4.399   3.881   5.748 -0.8216  0.2051  0.9964
 1901TIP3   OH227117   6.256   3.165   4.082  0.4263  0.4728  0.2750
 1901TIP3    H127118   6.234   3.092   4.141 -0.4445 -0.9798 -1.7680
 1901TIP3    H227119   6.351   3.164   4.078  0.4445 -0.1981  0.6911
 1902TIP3   OH227120   5.419   0.228   1.510  0.3940 -0.2991 -0.0243
 1902TIP3    H127121   5.448   0.303   1.458 -0.3230 -1.0804 -1.5630
 1902TIP3    H227122   5.330   0.252   1.538  1.0373  0.4338  1.5004
 1903TIP3   OH227123   4.117   0.620   4.948  0.3271 -0.4677  0.1116
 1903TIP3    H127124   4.199   0.664   4.971 -1.1526  1.9414  1.0323
 1903TIP3    H227125   4.107   0.551   5.013  0.8229  0.3103  1.0262
 1904TIP3   OH227126   4.944   2.580  15.466  0.2014 -0.5008  0.0723
 1904TIP3    H127127   5.032   2.544  15.453  0.5940  0.7539 -0.8851
 1904TIP3    H227128   4.906   2.583  15.378 -0.2521  0.2934  0.2884
 1905TIP3   OH227129   2.812   0.893  16.822 -0.0691 -0.3570 -0.1179
 1905TIP3    H127130   2.786   0.982  16.796 -0.3677 -0.4186 -0.0250
 1905TIP3    H227131   2.769   0.879  16.906 -1.4279 -1.2267 -0.9413
 1906TIP3   OH227132   1.811   0.093   4.388 -0.2991  0.2750  0.1763
 1906TIP3    H127133   1.769   0.065   4.469  0.5961 -0.6018  0.3520
 1906TIP3    H227134   1.765   0.047   4.319  0.5688 -0.9334  0.3932
 1907TIP3   OH227135   6.027   3.874  16.181  0.1687  0.0106  0.3905
 1907TIP3    H127136   6.060   3.863  16.271 -4.9301  1.1337  2.5731
 1907TIP3    H227137   6.042   3.966  16.161 -0.2329  0.1579  0.7641
 1908TIP3   OH227138   3.671   1.050   3.310 -0.4086 -0.1815  0.2205
 1908TIP3    H127139   3.598   1.088   3.261 -2.6141 -2.3710  1.6964
 1908TIP3    H227140   3.737   1.031   3.243 -2.4546 -1.0761 -1.6003
 1909TIP3   OH227141   4.558   1.654  14.628  0.4005  0.5362  0.5599
 1909TIP3    H127142   4.520   1.636  14.542 -0.1211 -0.6756  1.0465
 1909TIP3    H227143   4.516   1.736  14.656  0.8996  1.1794 -0.5192
 1910TIP3   OH227144   0.080   5.853  13.104 -0.0156 -0.8426  0.6342
 1910TIP3    H127145   0.173   5.875  13.099 -0.2414 -0.0421 -0.4559
 1910TIP3    H227146   0.045   5.911  13.172  0.1556 -0.6315  0.5438
 1911TIP3   OH227147   5.955   6.235  15.098  0.4694 -0.1050 -0.2471
 1911TIP3    H127148   5.873   6.247  15.147  1.0452  1.7702  0.2978
 1911TIP3    H227149   5.934   6.170  15.031 -1.1232 -0.5674  0.6810
 1912TIP3   OH227150   6.516   6.621   2.997  0.9760  0.2088 -0.2855
 1912TIP3    H127151   6.574   6.694   3.017  0.2740  0.7900 -0.3439
 1912TIP3    H227152   6.540   6.553   3.060  1.2358  0.7105  0.1573
 1913TIP3   OH227153   3.835   0.203   4.265 -0.3861 -0.1431  0.5336
 1913TIP3    H127154   3.745   0.208   4.233  0.0581  0.2146 -0.6736
 1913TIP3    H227155   3.877   0.282   4.230  0.5976 -0.6970  0.4611
 1914TIP3   OH227156   4.600   1.672   1.083 -0.5679 -0.3710 -0.0836
 1914TIP3    H127157   4.549   1.592   1.093  0.5369 -0.9848  0.7109
 1914TIP3    H227158   4.690   1.645   1.097  0.0294  0.6430 -1.8214
 1915TIP3   OH227159   3.192   4.461  13.882 -0.5653  0.2047  0.0771
 1915TIP3    H127160   3.133   4.393  13.914 -0.7937  0.3658  0.0074
 1915TIP3    H227161   3.272   4.449  13.932 -0.5267 -0.2536 -0.0930
 1916TIP3   OH227162   0.889   3.799  16.732 -0.2750 -0.5071  0.0403
 1916TIP3    H127163   0.905   3.886  16.769 -0.8423 -0.8100  1.0246
 1916TIP3    H227164   0.852   3.817  16.646 -0.8641  0.2431  0.4348
 1917TIP3   OH227165   0.507   3.060   0.963  0.4386 -0.3008  0.3369
 1917TIP3    H127166   0.591   3.106   0.970  0.2464 -0.0790  1.2828
 1917TIP3    H227167   0.489   3.057   0.869  1.2807  0.0598  0.1575
 1918TIP3   OH227168   5.597   1.930  14.252 -0.2095 -0.2169 -0.1622
 1918TIP3    H127169   5.628   1.839  14.260  1.2855  0.1222 -1.7118
 1918TIP3    H227170   5.630   1.959  14.167 -0.1929  1.9808  0.5611
 1919TIP3   OH227171   2.254   4.784   0.098 -0.4699 -0.2148 -0.0049
 1919TIP3    H127172   2.213   4.809   0.016 -0.0082 -0.1327 -0.2113
 1919TIP3    H227173   2.256   4.689   0.097 -0.5814 -0.2174 -0.0263
 1920TIP3   OH227174   0.825   1.193  14.086  0.0730  0.2860 -0.0406
 1920TIP3    H127175   0.864   1.173  14.001  2.5578  0.9535  0.8972
 1920TIP3    H227176   0.857   1.124  14.144  2.0328  2.2519  1.3260
 1921TIP3   OH227177   3.993   5.693   2.265  0.7864 -0.8275  0.5951
 1921TIP3    H127178   4.041   5.640   2.328  0.2246 -2.0127  0.0420
 1921TIP3    H227179   3.913   5.644   2.248  1.9430 -1.6944 -2.7525
 1922TIP3   OH227180   4.628   2.358  15.848  0.7238 -0.1627  0.3615
 1922TIP3    H127181   4.576   2.302  15.790  0.1773  1.0960 -0.3752
 1922TIP3    H227182   4.565   2.392  15.912  1.0697 -0.4372  0.8571
 1923TIP3   OH227183   3.554   6.731   3.699 -0.1371  0.1281 -0.0708
 1923TIP3    H127184   3.535   6.824   3.714  0.7568  0.9516 -3.6480
 1923TIP3    H227185   3.468   6.689   3.702 -0.8807  1.5120 -1.0533
 1924TIP3   OH227186   3.269   5.569  12.474 -0.1332 -0.5293 -0.2760
 1924TIP3    H127187   3.309   5.606  12.552 -1.5055  1.8640 -0.6329
 1924TIP3    H227188   3.223   5.491  12.504  0.8031 -0.6079  0.9655
 1925TIP3   OH227189   3.874   4.587  12.175 -0.4808  0.4389  0.0140
 1925TIP3    H127190   3.901   4.503  12.212 -2.0527  0.3783  1.0629
 1925TIP3    H227191   3.815   4.563  12.103 -0.1771  0.6332 -0.3013
 1926TIP3   OH227192   5.767   6.021  15.437 -0.1353  0.1058 -0.3789
 1926TIP3    H127193   5.771   6.072  15.517  0.3052  0.2858 -0.5125
 1926TIP3    H227194   5.858   6.015  15.408 -0.2049 -0.5894 -0.4678
 1927TIP3   OH227195   2.885   4.501  16.480  0.8572  0.2442 -0.2236
 1927TIP3    H127196   2.943   4.558  16.530 -0.3999  1.8366 -0.5529
 1927TIP3    H227197   2.815   4.478  16.541 -0.1372  1.3688 -0.9133
 1928TIP3   OH227198   2.566   0.321   4.192 -0.1481 -0.3015 -0.2829
 1928TIP3    H127199   2.574   0.319   4.287 -1.2498 -1.0337 -0.1904
 1928TIP3    H227200   2.648   0.284   4.160 -0.4467 -1.6217  0.4341
 1929TIP3   OH227201   4.890   0.698   2.862 -0.1376 -0.3153 -0.2777
 1929TIP3    H127202   4.926   0.627   2.809  0.0228 -0.3584 -0.1133
 1929TIP3    H227203   4.945   0.773   2.842  2.3422 -1.2470  2.6514
 1930TIP3   OH227204   6.361   4.519  11.656  0.1408 -0.4538 -0.6090
 1930TIP3    H127205   6.424   4.591  11.666  1.8161 -1.9705  0.0849
 1930TIP3    H227206   6.300   4.529  11.729  0.0522  0.5614 -0.8180
 1931TIP3   OH227207   1.141   2.762   3.476 -0.0497  0.2340  0.2095
 1931TIP3    H127208   1.141   2.779   3.570 -1.0325 -2.3062  0.7175
 1931TIP3    H227209   1.063   2.806   3.443 -0.5742 -0.1771  0.8762
 1932TIP3   OH227210   3.466   4.192   2.149  0.0470  0.3448  0.1868
 1932TIP3    H127211   3.439   4.108   2.186  2.0078 -0.0116  0.8841
 1932TIP3    H227212   3.391   4.249   2.163 -0.9744 -1.0376  0.5332
 1933TIP3   OH227213   5.932   1.851  14.829 -0.4634  0.3569 -0.0602
 1933TIP3    H127214   5.911   1.758  14.832 -0.7143  0.3529 -1.4181
 1933TIP3    H227215   6.016   1.860  14.874 -0.4908 -0.5095  0.1529
 1934TIP3   OH227216   2.533   5.944  14.323  0.5425 -1.1686  0.4592
 1934TIP3    H127217   2.535   5.890  14.401  1.8033  0.8891  1.9022
 1934TIP3    H227218   2.625   5.963  14.304  0.1085  1.0400  0.4074
 1935TIP3   OH227219   1.631   2.191   3.236  0.5442  0.1609 -0.3125
 1935TIP3    H127220   1.584   2.217   3.157 -0.4017 -1.4934 -0.3165
 1935TIP3    H227221   1.697   2.129   3.206 -0.5586 -1.3527  0.3033
 1936TIP3   OH227222   6.201   6.767  12.620 -0.5448 -0.0697  0.6682
 1936TIP3    H127223   6.194   6.795  12.529  1.7570 -1.0318  0.1494
 1936TIP3    H227224   6.199   6.671  12.616 -0.1542 -0.1275  1.5913
 1937TIP3   OH227225   0.515   3.114   3.490  0.5520 -0.3171  0.2157
 1937TIP3    H127226   0.424   3.124   3.464  0.1735 -0.4838  1.4173
 1937TIP3    H227227   0.536   3.023   3.472  0.5941 -0.1799 -0.4178
 1938TIP3   OH227228   5.130   1.979   0.352 -0.6051 -0.1622 -0.0398
 1938TIP3    H127229   5.215   1.969   0.310 -1.1754 -0.6427 -1.1192
 1938TIP3    H227230   5.143   1.949   0.442 -0.0773 -1.9412 -0.6932
 1939TIP3   OH227231   2.573   6.021  13.371 -0.4705  0.1210 -0.3259
 1939TIP3    H127232   2.607   6.005  13.459  1.0254  2.6588 -0.3839
 1939TIP3    H227233   2.478   6.021  13.381 -0.3667 -2.0817  0.8017
 1940TIP3   OH227234   4.784   0.593   6.273  0.1886  0.0980  0.2237
 1940TIP3    H127235   4.866   0.543   6.273 -1.4165 -2.7169  2.0388
 1940TIP3    H227236   4.743   0.572   6.189 -0.9592 -2.6211  1.3943
 1941TIP3   OH227237   0.760   6.426  13.837 -0.4130 -0.3660 -0.4336
 1941TIP3    H127238   0.668   6.425  13.809 -0.0547  1.7792 -1.8082
 1941TIP3    H227239   0.758   6.394  13.927 -2.5784  0.0118 -0.3196
 1942TIP3   OH227240   5.562   6.247  13.228 -0.2664  0.0088  0.4314
 1942TIP3    H127241   5.502   6.173  13.229  0.3907 -0.6520 -3.0523
 1942TIP3    H227242   5.509   6.321  13.258 -1.5260 -1.4409  1.8425
 1943TIP3   OH227243   5.123   2.271  13.586  0.4256  0.1066  0.6018
 1943TIP3    H127244   5.192   2.329  13.553  0.9882 -0.3770  0.9504
 1943TIP3    H227245   5.158   2.234  13.666 -0.4826  0.3406  1.1147
 1944TIP3   OH227246   1.017   0.412  15.206  0.3337 -0.5066  0.4782
 1944TIP3    H127247   0.932   0.370  15.217  0.3137  0.0501  2.8157
 1944TIP3    H227248   1.078   0.354  15.251  0.6157  0.8723  1.9483
 1945TIP3   OH227249   3.082   0.979  14.002 -0.6141 -0.3534  0.1618
 1945TIP3    H127250   3.066   1.054  13.945 -0.8551  0.9304  1.8755
 1945TIP3    H227251   3.163   0.940  13.969 -1.1510 -0.0983 -1.5093
 1946TIP3   OH227252   2.764   6.103  16.784 -0.4430  0.1469  0.4715
 1946TIP3    H127253   2.674   6.072  16.790 -0.5433  0.5333  1.0069
 1946TIP3    H227254   2.801   6.086  16.871 -0.6339  1.9270  0.9203
 1947TIP3   OH227255   0.989   6.655   3.563  0.2895  0.2430 -0.2390
 1947TIP3    H127256   1.050   6.728   3.551 -0.1880  0.3578 -2.0942
 1947TIP3    H227257   0.918   6.690   3.616  1.0636  0.5413  0.6138
 1948TIP3   OH227258   5.034   5.398   4.396  0.6954 -0.8887  0.0470
 1948TIP3    H127259   5.016   5.430   4.485 -0.1128 -0.6952 -0.1785
 1948TIP3    H227260   5.069   5.474   4.350 -0.2261 -0.6073 -0.1936
 1949TIP3   OH227261   5.958   2.212   5.929  0.0278 -0.0925 -0.4896
 1949TIP3    H127262   5.951   2.160   6.008  0.4058  0.0626 -0.3512
 1949TIP3    H227263   5.905   2.290   5.946 -0.9363 -0.6525 -0.8836
 1950TIP3   OH227264   1.227   4.080   2.481 -0.7731  0.0288  0.2549
 1950TIP3    H127265   1.172   4.051   2.408 -0.2723  1.8033 -0.8529
 1950TIP3    H227266   1.291   4.139   2.441  1.0178 -0.8422  1.7661
 1951TIP3   OH227267   2.476   0.646   4.993  0.5408 -0.3196  0.3843
 1951TIP3    H127268   2.504   0.660   4.903 -1.6712 -0.2934 -0.3274
 1951TIP3    H227269   2.409   0.712   5.008  1.2665  0.0384  2.2530
 1952TIP3   OH227270   4.631   5.188   5.560 -0.1442  0.3315 -0.4028
 1952TIP3    H127271   4.583   5.221   5.636 -0.1369 -0.6773  0.0401
 1952TIP3    H227272   4.648   5.266   5.507  0.9848  1.2303  1.2584
 1953TIP3   OH227273   0.310   4.848   3.285 -0.1034 -0.0257 -0.7495
 1953TIP3    H127274   0.384   4.796   3.314 -0.5474 -0.8066 -1.0079
 1953TIP3    H227275   0.348   4.919   3.233  0.5518  0.3077  0.1768
 1954TIP3   OH227276   0.531   6.092   5.462 -0.0224  0.4305  0.0091
 1954TIP3    H127277   0.475   6.064   5.390  1.7888 -1.9464 -0.5544
 1954TIP3    H227278   0.579   6.168   5.428  0.3298 -0.2633 -1.0829
 1955TIP3   OH227279   0.182   0.819  12.295  0.3622 -0.3437 -0.3431
 1955TIP3    H127280   0.175   0.744  12.353  0.0618 -0.3867 -0.4361
 1955TIP3    H227281   0.092   0.847  12.280  0.4254 -0.4716 -0.9724
 1956TIP3   OH227282   5.473   4.589   2.423 -0.2682 -0.5546 -0.0079
 1956TIP3    H127283   5.496   4.666   2.474  2.5875 -0.3930 -1.4260
 1956TIP3    H227284   5.443   4.525   2.488 -2.0800  1.4839  1.2447
 1957TIP3   OH227285   2.782   0.547  12.159 -0.0958  0.2318  0.0701
 1957TIP3    H127286   2.831   0.622  12.125  0.8259 -0.5551 -0.3346
 1957TIP3    H227287   2.766   0.570  12.251  1.0688  0.4712  0.2198
 1958TIP3   OH227288   4.795   1.189  13.351  0.2820  0.4313  0.0236
 1958TIP3    H127289   4.847   1.203  13.430 -0.4586  2.7665  0.1257
 1958TIP3    H227290   4.847   1.128  13.299  2.0039  0.8712  1.1801
 1959TIP3   OH227291   2.445   1.794   4.009 -0.0182  0.5391  0.4054
 1959TIP3    H127292   2.367   1.792   3.954  1.3205 -1.3272 -1.5117
 1959TIP3    H227293   2.424   1.739   4.084 -0.4814 -0.1353 -0.2159
 1960TIP3   OH227294   4.733   6.279   4.190  1.1737  0.0158  0.3691
 1960TIP3    H127295   4.814   6.292   4.240  1.5624  1.9639 -0.7132
 1960TIP3    H227296   4.673   6.344   4.227  0.8250  0.0831 -0.3191
 1961TIP3   OH227297   5.865   4.709   4.105 -0.1739  0.1714  0.8226
 1961TIP3    H127298   5.787   4.701   4.051  1.2921 -1.0418 -1.1908
 1961TIP3    H227299   5.833   4.704   4.195 -2.5150  0.8690  0.0585
 1962TIP3   OH227300   1.645   3.935  13.926  0.1266 -0.1203  0.1402
 1962TIP3    H127301   1.681   3.985  13.853 -0.0166 -0.7662 -0.3716
 1962TIP3    H227302   1.715   3.937  13.992  0.8609 -0.8471 -0.6105
 1963TIP3   OH227303   1.096   6.674   5.693  0.9377 -0.2429 -0.5844
 1963TIP3    H127304   1.169   6.701   5.748 -1.0014  1.3727  1.2656
 1963TIP3    H227305   1.032   6.637   5.754  0.3624 -2.0481 -2.2192
 1964TIP3   OH227306   0.109   0.667   1.837 -0.3054 -0.0666  0.8912
 1964TIP3    H127307   0.089   0.653   1.930  0.9401  1.4670  1.4062
 1964TIP3    H227308   0.027   0.698   1.799 -0.3661  0.9351  1.8325
 1965TIP3   OH227309   3.913   3.104   1.462 -0.1672 -0.5278  0.6602
 1965TIP3    H127310   3.873   3.185   1.492 -1.6138  0.2206 -2.9938
 1965TIP3    H227311   3.977   3.132   1.396  0.9050 -2.2262  0.9409
 1966TIP3   OH227312   5.281   1.338   2.008  0.2645 -0.0496 -0.2167
 1966TIP3    H127313   5.315   1.252   2.035  0.2922 -0.4990 -1.6276
 1966TIP3    H227314   5.224   1.319   1.934  0.9085  1.2280 -1.0700
 1967TIP3   OH227315   4.216   5.799   2.853  0.6213 -0.1084 -0.1761
 1967TIP3    H127316   4.136   5.760   2.818  1.1413 -1.4595  0.1064
 1967TIP3    H227317   4.284   5.779   2.788  1.0175 -0.2069  0.2613
 1968TIP3   OH227318   5.927   0.930  15.600  0.3785  0.7687 -0.0678
 1968TIP3    H127319   5.962   0.843  15.622 -1.0728  0.5495  1.4583
 1968TIP3    H227320   5.848   0.912  15.550  1.1014  1.2420 -1.3945
 1969TIP3   OH227321   0.427   2.646  12.507  0.3082 -0.0296  0.0860
 1969TIP3    H127322   0.416   2.653  12.412  0.3650 -0.7492  0.0202
 1969TIP3    H227323   0.417   2.735  12.539 -1.6762 -0.0620 -0.3977
 1970TIP3   OH227324   0.624   0.625   5.091 -0.0468 -0.2072  0.0391
 1970TIP3    H127325   0.537   0.662   5.076  0.0146  1.1244  2.6269
 1970TIP3    H227326   0.683   0.701   5.088  0.5357 -0.5518  1.9338
 1971TIP3   OH227327   0.819   1.788  13.744  0.0153 -0.1069  0.2057
 1971TIP3    H127328   0.853   1.777  13.833 -2.0652 -0.0471  1.0551
 1971TIP3    H227329   0.732   1.826  13.757  0.3455  1.4212 -1.9453
 1972TIP3   OH227330   5.549   6.189   2.408 -0.2238  0.0913  0.7473
 1972TIP3    H127331   5.483   6.184   2.339 -0.5687  0.1427  1.0697
 1972TIP3    H227332   5.610   6.257   2.379  0.3582 -0.7967 -0.1261
 1973TIP3   OH227333   3.683   3.108   6.026  0.1515 -0.1416  0.3310
 1973TIP3    H127334   3.644   3.086   5.942 -0.1267 -0.8630  0.6423
 1973TIP3    H227335   3.671   3.029   6.079  0.3481  0.2963  1.0339
 1974TIP3   OH227336   6.724   0.738  14.399 -0.1509 -0.3824 -0.5790
 1974TIP3    H127337   6.724   0.825  14.360 -0.3606  0.1857  0.6682
 1974TIP3    H227338   6.757   0.680  14.330  1.4760  0.9132 -0.8887
 1975TIP3   OH227339   4.755   2.411   1.619  0.2944 -0.1291  0.1991
 1975TIP3    H127340   4.734   2.453   1.703  0.9920 -0.2326  0.4246
 1975TIP3    H227341   4.670   2.395   1.579  0.0075  1.3207  0.2048
 1976TIP3   OH227342   5.051   0.361  10.570 -0.2532 -0.0702  0.1923
 1976TIP3    H127343   5.143   0.343  10.553 -0.5367 -0.5287 -0.9122
 1976TIP3    H227344   5.040   0.342  10.664  0.6924 -0.3617  0.2502
 1977TIP3   OH227345   1.155   2.534  14.155 -0.3079 -0.3544  0.8847
 1977TIP3    H127346   1.187   2.561  14.241 -0.6689  1.6664  0.4012
 1977TIP3    H227347   1.234   2.527  14.102 -0.3079  1.0673  0.6708
 1978TIP3   OH227348   2.805   5.845   5.469  0.2530  0.6482 -0.2186
 1978TIP3    H127349   2.758   5.783   5.412 -0.8286  1.3604 -0.1108
 1978TIP3    H227350   2.785   5.815   5.558 -0.6314  1.4037 -0.1570
 1979TIP3   OH227351   4.931   1.071  11.939 -0.2732  0.2145 -0.9821
 1979TIP3    H127352   4.843   1.034  11.944 -0.2954  0.2570 -1.0547
 1979TIP3    H227353   4.935   1.115  11.854  0.6713 -1.8860 -2.0612
 1980TIP3   OH227354   0.069   0.148  12.882 -0.3610 -0.1074  0.3079
 1980TIP3    H127355   0.087   0.127  12.791  0.9996 -1.8457  0.9409
 1980TIP3    H227356   0.153   0.177  12.917 -1.1618  1.8671  0.7024
 1981TIP3   OH227357   2.083   1.580  15.122 -0.1057 -0.0377  0.0104
 1981TIP3    H127358   2.057   1.490  15.140 -0.2624  0.1955  0.9984
 1981TIP3    H227359   2.000   1.629  15.122 -0.2082 -0.1696 -2.2862
 1982TIP3   OH227360   3.277   3.370   3.018 -0.2846  0.4796  0.5573
 1982TIP3    H127361   3.366   3.403   3.009 -0.8797  1.4780 -2.0249
 1982TIP3    H227362   3.233   3.434   3.074  0.3615  0.4877  1.0553
 1983TIP3   OH227363   4.233   0.926   0.513  0.1998  0.5224 -0.0339
 1983TIP3    H127364   4.267   1.015   0.518  1.1720  0.1419  0.1600
 1983TIP3    H227365   4.158   0.932   0.454  0.1204  1.5107  0.1641
 1984TIP3   OH227366   2.783   2.435   2.776 -0.0074  0.3661  0.5326
 1984TIP3    H127367   2.754   2.452   2.686 -0.4097 -1.4062  0.2960
 1984TIP3    H227368   2.752   2.510   2.826  0.8527  1.7324 -0.9398
 1985TIP3   OH227369   1.011   5.587  14.577  0.3439 -0.1783 -0.1971
 1985TIP3    H127370   1.009   5.683  14.571  0.4694 -0.2734 -2.3890
 1985TIP3    H227371   1.002   5.568  14.670  1.0430  1.9883  0.3362
 1986TIP3   OH227372   2.187   0.003  14.987 -0.5425  0.6351 -0.5616
 1986TIP3    H127373   2.096  -0.005  14.959 -1.1263  2.1301  0.8299
 1986TIP3    H227374   2.218  -0.087  14.997 -1.6437  0.1241 -1.7217
 1987TIP3   OH227375   1.465   1.470  11.419  0.0350 -0.3659 -0.1127
 1987TIP3    H127376   1.537   1.525  11.390  1.2783 -1.4379  0.8706
 1987TIP3    H227377   1.426   1.518  11.492 -0.6567  0.5091 -1.0460
 1988TIP3   OH227378   2.945   2.194  11.700 -0.2851  0.3682  0.0058
 1988TIP3    H127379   2.917   2.107  11.672 -0.5978  0.7240 -0.7851
 1988TIP3    H227380   3.041   2.186  11.708 -0.4133 -0.3345  0.9688
 1989TIP3   OH227381   6.485   3.971   4.292  0.0194  0.5387 -0.4765
 1989TIP3    H127382   6.467   3.897   4.235  0.3838  0.5907 -0.6568
 1989TIP3    H227383   6.452   3.943   4.378  1.2725 -0.3116 -0.2631
 1990TIP3   OH227384   4.434   0.581  14.845  0.1719 -0.6080  0.6447
 1990TIP3    H127385   4.499   0.549  14.908  0.3183  0.2162  0.9246
 1990TIP3    H227386   4.406   0.503  14.797  1.8792 -0.8918  0.0529
 1991TIP3   OH227387   3.210   5.835   1.439  0.2554 -0.1418  0.0775
 1991TIP3    H127388   3.271   5.827   1.513 -1.2049 -1.0778  1.2060
 1991TIP3    H227389   3.266   5.829   1.362  1.6457 -0.6334  1.0929
 1992TIP3   OH227390   3.661   0.474   3.063 -0.4226  0.2459  0.1027
 1992TIP3    H127391   3.721   0.400   3.056 -2.1956 -1.0669 -1.5128
 1992TIP3    H227392   3.589   0.441   3.117 -0.4771  1.3060  0.6927
 1993TIP3   OH227393   0.135   3.108   3.852  0.0050  0.1622  0.6742
 1993TIP3    H127394   0.187   3.029   3.835  1.7256  1.3821  0.0694
 1993TIP3    H227395   0.163   3.137   3.939 -1.1561 -0.2831  1.2066
 1994TIP3   OH227396   6.446   5.490   3.407 -0.5475 -0.4881  0.6125
 1994TIP3    H127397   6.471   5.524   3.322  1.9811 -1.8794  0.7726
 1994TIP3    H227398   6.370   5.435   3.389 -0.9423  0.4007 -0.5070
 1995TIP3   OH227399   2.376   2.248   3.010  0.1712 -0.0491 -0.3321
 1995TIP3    H127400   2.436   2.200   2.952  0.6841  1.3021 -0.9318
 1995TIP3    H227401   2.432   2.283   3.079 -0.1131  0.1728 -0.2131
 1996TIP3   OH227402   4.361   4.925   0.509 -0.0141  0.3336 -0.2133
 1996TIP3    H127403   4.454   4.939   0.491  0.3762 -1.4339  0.3518
 1996TIP3    H227404   4.328   4.880   0.431  0.1790 -1.3303  0.6622
 1997TIP3   OH227405   0.209   2.253  11.594  0.1634 -0.4099  0.0992
 1997TIP3    H127406   0.200   2.178  11.534 -0.6655  1.3875 -2.0691
 1997TIP3    H227407   0.127   2.254  11.642 -1.1902  1.0336 -2.1767
 1998TIP3   OH227408   1.323   0.302  16.580  0.6395 -0.0665 -0.5171
 1998TIP3    H127409   1.324   0.394  16.606 -1.2810 -0.4888  1.1265
 1998TIP3    H227410   1.263   0.298  16.505 -0.6502 -0.2520  0.5156
 1999TIP3   OH227411   5.759   6.513   6.448  0.5248 -0.0728 -0.2994
 1999TIP3    H127412   5.693   6.525   6.517  0.8285  0.2276 -0.0599
 1999TIP3    H227413   5.714   6.462   6.381  0.4665 -1.0854  0.4910
 2000TIP3   OH227414   2.331   4.001   5.675  0.3630 -0.0859  0.0451
 2000TIP3    H127415   2.368   3.952   5.749  1.0003  1.8941  1.0746
 2000TIP3    H227416   2.267   3.941   5.637  1.9529 -2.1711  0.5316
 2001TIP3   OH227417   1.303   1.718  12.514  0.0939 -0.3408  0.0756
 2001TIP3    H127418   1.228   1.777  12.516  0.4419  0.0978  0.0883
 2001TIP3    H227419   1.378   1.774  12.497  0.1952 -1.0234 -1.7874
 2002TIP3   OH227420   2.533   5.432  13.123 -0.1513 -0.2150  0.2258
 2002TIP3    H127421   2.624   5.419  13.151 -0.3368 -1.6768  0.1926
 2002TIP3    H227422   2.517   5.360  13.063 -0.4051  1.7198 -2.0885
 2003TIP3   OH227423   1.080   5.149   3.387  0.7325 -0.3872  0.3723
 2003TIP3    H127424   1.153   5.115   3.439 -0.2281 -1.9660  0.7026
 2003TIP3    H227425   1.005   5.095   3.411 -0.5152  1.0907 -0.1209
 2004TIP3   OH227426   0.343   3.119   2.082  0.4417  0.0185  0.2008
 2004TIP3    H127427   0.339   3.214   2.090 -0.1342  0.0879 -0.7883
 2004TIP3    H227428   0.431   3.096   2.112  0.9508  0.9686 -0.5211
 2005TIP3   OH227429   5.656   5.726  10.532 -0.4054 -0.0656  0.0906
 2005TIP3    H127430   5.649   5.715  10.437  0.7588  1.5419 -0.2063
 2005TIP3    H227431   5.617   5.647  10.568 -3.3294  0.4617 -1.6757
 2006TIP3   OH227432   5.712   6.067  16.233  0.1583 -0.1279  0.1997
 2006TIP3    H127433   5.732   6.160  16.240 -0.6669  0.0375  0.3774
 2006TIP3    H227434   5.747   6.042  16.147 -1.3386  0.7861 -0.7018
 2007TIP3   OH227435   6.431   5.985  16.670  0.2671  0.0962 -0.4205
 2007TIP3    H127436   6.485   5.906  16.669  0.8035  0.4624 -0.3702
 2007TIP3    H227437   6.401   5.993  16.760  1.1795  0.6007 -0.1564
 2008TIP3   OH227438   1.733   4.616  11.444  0.2136  0.2472  0.4920
 2008TIP3    H127439   1.669   4.545  11.437  2.7362 -2.0222 -0.2867
 2008TIP3    H227440   1.702   4.683  11.383 -1.2727 -0.9220 -0.0483
 2009TIP3   OH227441   0.760   0.867   0.548 -0.3412 -0.1441 -0.5772
 2009TIP3    H127442   0.702   0.791   0.549  1.3976 -1.5533 -1.9166
 2009TIP3    H227443   0.776   0.887   0.640 -3.6337  0.8642 -0.1577
 2010TIP3   OH227444   5.052   3.913   1.753 -0.2299 -0.1417 -0.1499
 2010TIP3    H127445   4.980   3.972   1.735 -0.4056  0.8127  3.4180
 2010TIP3    H227446   5.112   3.963   1.807  0.0298 -2.9193  2.2544
 2011TIP3   OH227447   6.785   6.378   5.267 -0.2891  0.2179  0.4467
 2011TIP3    H127448   6.828   6.461   5.287 -2.6167  1.2201  1.4100
 2011TIP3    H227449   6.760   6.386   5.175  0.4385  0.1155  0.2298
 2012TIP3   OH227450   5.662   5.439   4.030  0.0031  0.2395 -0.5212
 2012TIP3    H127451   5.729   5.475   3.972 -0.7691  0.8683 -1.0325
 2012TIP3    H227452   5.664   5.496   4.107  1.4716 -0.9766  0.3734
 2013TIP3   OH227453   6.748   4.154   1.109 -0.1730  0.1876 -0.0836
 2013TIP3    H127454   6.803   4.170   1.032 -0.1805 -0.1065 -0.1506
 2013TIP3    H227455   6.743   4.059   1.115 -0.0858  0.2080  0.3421
 2014TIP3   OH227456   1.557   4.421   3.250 -0.2012 -0.3113 -0.1029
 2014TIP3    H127457   1.478   4.420   3.304 -1.0993  1.6002 -1.3137
 2014TIP3    H227458   1.577   4.514   3.239  2.2101 -0.7800  0.1621
 2015TIP3   OH227459   5.535   6.724  15.515  0.3222 -0.2216 -0.1114
 2015TIP3    H127460   5.628   6.731  15.533 -0.0869  1.2525  1.5384
 2015TIP3    H227461   5.492   6.739  15.599 -1.4560  0.8809 -1.1672
 2016TIP3   OH227462   1.556   3.961   1.543  0.7017  0.1545 -0.0539
 2016TIP3    H127463   1.607   4.042   1.553 -1.0560  1.5434 -1.8512
 2016TIP3    H227464   1.621   3.893   1.527  2.1938  1.2589  1.1394
 2017TIP3   OH227465   6.223   3.773  14.872 -0.1411 -0.4130  0.2181
 2017TIP3    H127466   6.213   3.725  14.790 -0.8005  0.5975 -0.2947
 2017TIP3    H227467   6.318   3.782  14.883 -0.0003 -2.1759  0.5311
 2018TIP3   OH227468   5.958   0.364   0.368  0.2764 -0.4769 -0.1574
 2018TIP3    H127469   5.993   0.426   0.432  0.3024  0.0191 -0.6508
 2018TIP3    H227470   5.916   0.418   0.302 -2.1645 -1.0920  0.8439
 2019TIP3   OH227471   4.609   6.619  14.842  0.3138 -0.0670 -0.5498
 2019TIP3    H127472   4.570   6.702  14.871  0.6278  0.1232 -0.6745
 2019TIP3    H227473   4.669   6.594  14.912 -0.2370 -0.5036 -0.2287
 2020TIP3   OH227474   5.574   4.805  13.412 -0.0450 -0.1719 -1.1614
 2020TIP3    H127475   5.569   4.744  13.339 -2.6459  1.4868 -2.4391
 2020TIP3    H227476   5.498   4.863  13.400 -0.1527  0.5437  2.4703
 2021TIP3   OH227477   5.544   4.458   0.458 -0.4190 -0.1803 -0.7245
 2021TIP3    H127478   5.580   4.535   0.503 -1.2420 -1.0764  1.5711
 2021TIP3    H227479   5.449   4.467   0.469 -0.4715 -2.2302  0.8768
 2022TIP3   OH227480   3.726   0.219   6.086  0.8283  0.5028  0.4219
 2022TIP3    H127481   3.802   0.204   6.142 -0.0369 -1.2886  1.1685
 2022TIP3    H227482   3.673   0.140   6.095  0.0021  0.7280 -1.9012
 2023TIP3   OH227483   2.927   0.708  13.241 -0.1412 -0.4021 -0.6486
 2023TIP3    H127484   2.970   0.792  13.256  1.9609 -1.3831 -0.9153
 2023TIP3    H227485   2.908   0.675  13.329 -2.5845  1.1086 -0.5696
 2024TIP3   OH227486   3.155   3.559   1.790 -0.0602 -0.3184  0.5927
 2024TIP3    H127487   3.095   3.618   1.836 -0.1361  0.7621 -0.8303
 2024TIP3    H227488   3.130   3.567   1.698 -0.4385 -3.0303  0.4182
 2025TIP3   OH227489   2.394   5.327  12.632 -0.5753 -0.1947 -0.1662
 2025TIP3    H127490   2.456   5.401  12.633  0.5720 -1.1104 -1.2248
 2025TIP3    H227491   2.347   5.334  12.715  0.0588  1.2748  0.0930
 2026TIP3   OH227492   0.942   2.813  13.375 -0.2290 -0.2718  0.3450
 2026TIP3    H127493   0.984   2.751  13.434  1.2355  0.7974  0.4593
 2026TIP3    H227494   0.848   2.800  13.389  0.0816  0.1676  3.1741
 2027TIP3   OH227495   0.664   4.198   5.126 -0.1996 -0.2442 -0.0626
 2027TIP3    H127496   0.571   4.213   5.144 -0.7372 -0.5948 -2.3469
 2027TIP3    H227497   0.669   4.106   5.101  1.0746 -0.7126  1.8198
 2028TIP3   OH227498   0.973   0.418   6.155  0.2969  0.4657  0.3878
 2028TIP3    H127499   0.980   0.489   6.219  0.4666  0.7287  0.0800
 2028TIP3    H227500   1.029   0.349   6.189 -0.3059  0.2672  0.9739
 2029TIP3   OH227501   5.243   2.713   2.013 -0.0721 -0.0664 -0.5928
 2029TIP3    H127502   5.224   2.652   1.941 -2.7227 -1.1646  0.9619
 2029TIP3    H227503   5.309   2.668   2.066  1.1994  0.3442 -1.8044
 2030TIP3   OH227504   6.670   0.059   3.026 -0.6509 -0.2203  0.2122
 2030TIP3    H127505   6.695   0.150   3.013  2.0098 -1.0238 -0.7207
 2030TIP3    H227506   6.743   0.021   3.075 -0.5833 -2.3990 -1.5153
 2031TIP3   OH227507   5.991   0.724  13.698 -0.2576 -0.1554 -0.1823
 2031TIP3    H127508   5.957   0.773  13.623  1.1746 -2.1370 -2.1974
 2031TIP3    H227509   5.945   0.640  13.694 -2.7157  0.8928  3.2547
 2032TIP3   OH227510   3.417   1.314   2.965 -0.2241 -0.4885 -0.3531
 2032TIP3    H127511   3.471   1.340   2.891  0.3948  1.7506  0.8468
 2032TIP3    H227512   3.344   1.376   2.965 -0.1445 -0.3837  0.9814
 2033TIP3   OH227513   5.708   0.786   3.917 -0.3542  1.0111 -0.5850
 2033TIP3    H127514   5.663   0.703   3.934  2.0257 -0.3375 -0.6458
 2033TIP3    H227515   5.654   0.852   3.960 -1.6095 -0.7211  0.5529
 2034TIP3   OH227516   5.721   1.831  15.110  0.2143 -0.0109  0.1453
 2034TIP3    H127517   5.666   1.864  15.181  0.6411 -0.0372  0.4929
 2034TIP3    H227518   5.811   1.843  15.142  0.3816 -1.9312  0.4717
 2035TIP3   OH227519   4.547   4.101   3.905 -0.1415  0.1845 -0.2029
 2035TIP3    H127520   4.587   4.028   3.856 -0.3965 -1.0746  1.4310
 2035TIP3    H227521   4.618   4.137   3.957  0.0485  1.3033 -1.2203
 2036TIP3   OH227522   3.420   6.150   5.365 -0.1719  0.3756 -0.3099
 2036TIP3    H127523   3.453   6.063   5.344  0.1507 -0.0876  1.9880
 2036TIP3    H227524   3.471   6.209   5.309  0.2685 -0.8229 -1.1894
 2037TIP3   OH227525   1.292   5.494  14.869  0.0950 -0.0757 -0.4039
 2037TIP3    H127526   1.197   5.490  14.867  0.0829  0.9251 -2.5754
 2037TIP3    H227527   1.312   5.585  14.892  0.5305 -0.2006 -0.2770
 2038TIP3   OH227528   1.158   0.970   1.464 -0.4828  0.3991 -0.2686
 2038TIP3    H127529   1.189   0.941   1.550 -1.7858 -0.2521 -0.0065
 2038TIP3    H227530   1.199   1.055   1.451 -0.2358  0.4800  0.9790
 2039TIP3   OH227531   1.126   4.785  14.441 -0.4330 -0.3535  0.3804
 2039TIP3    H127532   1.050   4.807  14.387  0.4636 -0.3148 -0.8809
 2039TIP3    H227533   1.139   4.691  14.426 -0.3220 -0.3973  0.7319
 2040TIP3   OH227534   1.619   6.223   0.701 -0.3224 -0.2402 -0.7142
 2040TIP3    H127535   1.707   6.228   0.665 -0.1492  2.7621 -0.0035
 2040TIP3    H227536   1.627   6.162   0.775  1.6274  1.4568  0.5375
 2041TIP3   OH227537   2.761   4.915  14.151  0.0503  0.6267  0.0389
 2041TIP3    H127538   2.735   5.000  14.114 -0.5567  0.2581 -0.3899
 2041TIP3    H227539   2.810   4.872  14.081  0.1148  0.5096  0.1562
 2042TIP3   OH227540   4.758   1.827   4.807  0.0094  0.2295  1.0145
 2042TIP3    H127541   4.829   1.880   4.843  1.6048  0.7201 -2.6228
 2042TIP3    H227542   4.793   1.738   4.805 -0.8560 -0.1601  2.5732
 2043TIP3   OH227543   0.774   0.119  12.069  0.2141  0.7445  0.0171
 2043TIP3    H127544   0.794   0.136  12.161  3.0462  2.5412 -0.8894
 2043TIP3    H227545   0.787   0.025  12.059 -0.1933  0.5183  1.4462
 2044TIP3   OH227546   3.640   1.653  17.078  0.3169  0.1311 -0.1571
 2044TIP3    H127547   3.612   1.571  17.036 -0.7874  0.3744  0.0828
 2044TIP3    H227548   3.644   1.716  17.007 -0.0354  0.1607 -0.1551
 2045TIP3   OH227549   4.263   2.417  15.461  0.5417 -0.1265 -0.4985
 2045TIP3    H127550   4.176   2.451  15.440  0.2372  0.5337  1.7177
 2045TIP3    H227551   4.274   2.342  15.402 -1.1564  0.3121 -1.4108
 2046TIP3   OH227552   2.430   4.026  13.594  0.1753  0.0243  0.3813
 2046TIP3    H127553   2.464   4.060  13.677  0.0388 -1.3237  1.0152
 2046TIP3    H227554   2.393   4.102  13.550 -0.7372  0.5690  2.0619
 2047TIP3   OH227555   2.601   0.231  10.649  0.4267  0.0573 -0.3538
 2047TIP3    H127556   2.542   0.215  10.723  0.7922  0.6753  0.0701
 2047TIP3    H227557   2.663   0.296  10.681 -1.8504  3.4256 -2.4620
 2048TIP3   OH227558   5.684   3.925   1.598 -0.0788  0.3613  0.1056
 2048TIP3    H127559   5.619   3.981   1.641  0.7394  0.5899  1.0586
 2048TIP3    H227560   5.769   3.959   1.628  0.4525 -0.7174 -0.1517
 2049TIP3   OH227561   1.319   0.282  11.652  0.4689  0.2124  0.5452
 2049TIP3    H127562   1.402   0.304  11.695  0.3337  0.2714  0.7775
 2049TIP3    H227563   1.316   0.340  11.575  0.2132  0.8678  1.0418
 2050TIP3   OH227564   6.715   3.858  14.217 -0.5773  0.3772 -0.1236
 2050TIP3    H127565   6.707   3.931  14.278 -0.7069  0.4694 -0.2533
 2050TIP3    H227566   6.799   3.872  14.174  0.4270 -0.7123  1.3885
 2051TIP3   OH227567   3.410   3.603   2.781 -0.5964  0.3488 -0.0629
 2051TIP3    H127568   3.479   3.547   2.818 -0.5017  1.2575  1.1802
 2051TIP3    H227569   3.450   3.645   2.706  0.0256  0.4471  0.3244
 2052TIP3   OH227570   5.715   1.613  16.900  0.2507  0.4216 -0.3121
 2052TIP3    H127571   5.787   1.647  16.953 -0.0953  1.3781 -0.4474
 2052TIP3    H227572   5.696   1.682  16.837 -0.1695 -0.2069 -0.8900
 2053TIP3   OH227573   3.783   0.498   5.400 -0.2872 -0.3096 -0.9082
 2053TIP3    H127574   3.766   0.572   5.459  0.0009  0.5768 -1.9169
 2053TIP3    H227575   3.755   0.421   5.449 -0.2927  0.4439  0.2814
 2054TIP3   OH227576   5.087   6.129   2.253 -0.2976 -0.2877  0.0285
 2054TIP3    H127577   5.029   6.068   2.208  0.8080 -3.6649  2.9536
 2054TIP3    H227578   5.028   6.185   2.304 -1.2806  0.5282 -1.9865
 2055TIP3   OH227579   5.114   2.323   3.034  0.1253  0.1613 -0.1830
 2055TIP3    H127580   5.040   2.313   2.975  0.8722 -0.7794 -0.9703
 2055TIP3    H227581   5.096   2.404   3.082 -0.5138  0.8945 -1.6487
 2056TIP3   OH227582   2.596   4.755   5.969 -0.1821  0.0678 -0.0557
 2056TIP3    H127583   2.685   4.752   6.005 -0.7839  1.9428  1.7014
 2056TIP3    H227584   2.543   4.705   6.030 -0.5677  0.0341 -0.4120
 2057TIP3   OH227585   5.562   0.352   3.056  0.0381 -0.0829  0.4906
 2057TIP3    H127586   5.498   0.283   3.041  1.1822 -0.9427 -0.5671
 2057TIP3    H227587   5.591   0.378   2.969  2.1567 -0.7069  0.9788
 2058TIP3   OH227588   2.286   5.713   3.423 -0.2121  0.6573 -0.2288
 2058TIP3    H127589   2.301   5.655   3.348 -1.4104  1.2891 -0.9849
 2058TIP3    H227590   2.345   5.787   3.408 -0.0505  0.5171 -0.2723
 2059TIP3   OH227591   6.744   2.965   3.591 -0.2066 -0.4089  0.5261
 2059TIP3    H127592   6.683   2.893   3.573 -0.5611  0.3227 -1.2791
 2059TIP3    H227593   6.696   3.043   3.565  0.1941  0.5031  2.4453
 2060TIP3   OH227594   2.960   1.634   5.134 -0.4521 -0.3722 -0.4894
 2060TIP3    H127595   3.015   1.634   5.056  1.0926  1.0952  0.5651
 2060TIP3    H227596   2.931   1.543   5.143  0.5839 -0.8582 -1.9069
 2061TIP3   OH227597   3.648   0.409  15.156  0.5079 -0.2112  0.2981
 2061TIP3    H127598   3.690   0.456  15.228 -1.1739  2.2161 -0.2367
 2061TIP3    H227599   3.663   0.464  15.079 -2.3188 -0.0379 -0.1799
 2062TIP3   OH227600   5.042   4.911   0.709 -0.3058 -0.3263 -0.1875
 2062TIP3    H127601   5.084   4.994   0.731 -0.9819 -0.2875  0.9838
 2062TIP3    H227602   5.066   4.896   0.617  0.2826  0.8763 -0.2433
 2063TIP3   OH227603   1.093   0.441  15.545  0.5053 -0.0176 -0.0144
 2063TIP3    H127604   1.034   0.405  15.611  0.6962  0.8844  0.6577
 2063TIP3    H227605   1.119   0.366  15.492  0.8863 -0.8502  1.3587
 2064TIP3   OH227606   5.224   1.323   4.513 -0.1012 -0.5706  0.2012
 2064TIP3    H127607   5.241   1.278   4.595 -0.7600 -2.3922 -0.6312
 2064TIP3    H227608   5.132   1.348   4.517 -0.2885 -1.1615 -0.1859
 2065TIP3   OH227609   0.858   2.280  10.405 -0.1509  0.0487 -0.1124
 2065TIP3    H127610   0.877   2.343  10.336 -2.6251  1.2436  0.2416
 2065TIP3    H227611   0.771   2.247  10.384  0.4306 -2.0248  0.6276
 2066TIP3   OH227612   4.787   0.437  12.393 -0.3879 -0.0746  0.2081
 2066TIP3    H127613   4.744   0.450  12.309 -0.6169  0.4866  0.4119
 2066TIP3    H227614   4.816   0.346  12.391 -4.1488 -1.4090  1.2288
 2067TIP3   OH227615   3.645   1.622   3.443  0.1570 -0.3195  0.0370
 2067TIP3    H127616   3.629   1.527   3.437 -0.2925 -0.2246 -0.3230
 2067TIP3    H227617   3.587   1.660   3.377 -0.7179  0.3158  1.1331
 2068TIP3   OH227618   0.476   2.767   5.084 -0.5631  0.0659  0.1506
 2068TIP3    H127619   0.447   2.788   4.995 -2.4285 -1.2121  0.4252
 2068TIP3    H227620   0.571   2.764   5.078 -0.5820  1.5468 -1.4416
 2069TIP3   OH227621   4.997   1.559   1.643 -0.0380  0.3264 -0.6560
 2069TIP3    H127622   4.938   1.583   1.572 -0.2702  0.7356 -0.3294
 2069TIP3    H227623   4.988   1.630   1.707 -0.3953 -0.4029  0.1231
 2070TIP3   OH227624   6.489   0.599  15.122 -0.1777 -0.3035 -0.4999
 2070TIP3    H127625   6.507   0.509  15.148  1.8722  0.1916 -0.1527
 2070TIP3    H227626   6.436   0.635  15.193  0.4461 -0.7227  0.1799
 2071TIP3   OH227627   3.746   1.907  15.727  0.6957 -0.5010  0.1696
 2071TIP3    H127628   3.777   1.969  15.661  1.5337  0.1880  1.1830
 2071TIP3    H227629   3.768   1.821  15.692  2.7472 -0.0729  0.3324
 2072TIP3   OH227630   1.151   3.274   2.619 -0.0348 -0.3211 -0.1168
 2072TIP3    H127631   1.084   3.259   2.552 -1.6117 -0.6499  1.4845
 2072TIP3    H227632   1.112   3.339   2.677  1.6327  0.5369  0.0754
 2073TIP3   OH227633   3.906   6.429  12.465  0.4033  0.3522 -0.2369
 2073TIP3    H127634   3.895   6.415  12.559  3.1801  1.7486  0.3475
 2073TIP3    H227635   3.885   6.522  12.451 -2.7960 -0.4767 -1.5350
 2074TIP3   OH227636   0.239   2.823  11.698 -0.3187  0.2263  0.9310
 2074TIP3    H127637   0.284   2.858  11.622 -1.0446  0.0985  0.4388
 2074TIP3    H227638   0.300   2.838  11.771 -0.1471  1.4997  0.5467
 2075TIP3   OH227639   2.877   0.778  13.942 -0.3946  0.4522  0.1418
 2075TIP3    H127640   2.942   0.710  13.957  0.4244  1.1606 -0.1352
 2075TIP3    H227641   2.917   0.858  13.977 -1.5290  0.7151  0.8759
 2076TIP3   OH227642   3.301   2.262   3.577 -0.3521  0.4133 -0.3607
 2076TIP3    H127643   3.209   2.238   3.568 -0.4041  0.7321 -0.6762
 2076TIP3    H227644   3.302   2.356   3.563 -0.0905  0.5388  0.4507
 2077TIP3   OH227645   2.501   4.581  16.521 -0.4038 -0.4336 -0.0681
 2077TIP3    H127646   2.414   4.562  16.487  0.0927  0.2127 -1.8003
 2077TIP3    H227647   2.492   4.664  16.567 -0.7819 -0.5574  0.0790
 2078TIP3   OH227648   2.160   2.196  12.713 -0.1879  0.5474 -0.3243
 2078TIP3    H127649   2.108   2.181  12.792 -0.5602 -0.3101 -0.7248
 2078TIP3    H227650   2.127   2.132  12.650  0.0629  1.2637 -1.1976
 2079TIP3   OH227651   6.475   5.015   2.070  0.0809  0.7120  0.2168
 2079TIP3    H127652   6.501   5.010   2.162  0.0645  2.8964  0.3694
 2079TIP3    H227653   6.547   5.062   2.027 -0.6636  1.1807 -0.5520
 2080TIP3   OH227654   2.702   0.964   0.890 -0.3889 -0.2278 -0.2511
 2080TIP3    H127655   2.757   0.893   0.922 -0.9146 -0.7995 -0.5891
 2080TIP3    H227656   2.652   0.925   0.818 -0.5285  0.5423 -0.5856
 2081TIP3   OH227657   4.460   0.149   2.872  0.1538  0.1801  0.1639
 2081TIP3    H127658   4.482   0.214   2.804  1.4663  1.5099  1.8034
 2081TIP3    H227659   4.469   0.065   2.828 -1.0415  1.0898 -1.8707
 2082TIP3   OH227660   5.189   6.709   5.488 -0.4027 -0.3254  0.1129
 2082TIP3    H127661   5.197   6.644   5.559  1.4451 -0.3650 -0.1099
 2082TIP3    H227662   5.254   6.776   5.510  0.1353 -0.3033 -1.4910
 2083TIP3   OH227663   1.389   3.381   5.269  0.9410 -0.2753  0.2552
 2083TIP3    H127664   1.377   3.437   5.346 -2.7486  0.4988 -0.7561
 2083TIP3    H227665   1.433   3.438   5.206  0.6290  0.2961  0.5421
 2084TIP3   OH227666   3.585   5.042  13.306 -0.1909  0.2385 -0.2288
 2084TIP3    H127667   3.582   5.067  13.399 -1.2755  1.6451 -0.6285
 2084TIP3    H227668   3.588   4.946  13.308  0.9879  0.2794  1.2718
 2085TIP3   OH227669   4.954   1.282  13.530 -0.1600 -0.0921 -0.1859
 2085TIP3    H127670   4.914   1.365  13.557 -3.4034 -1.5234 -0.2813
 2085TIP3    H227671   4.983   1.242  13.612  1.8989  1.3477 -0.1917
 2086TIP3   OH227672   2.810   1.502   6.217 -0.2501  0.0311 -0.1225
 2086TIP3    H127673   2.864   1.483   6.294  0.3592 -0.7679 -0.7232
 2086TIP3    H227674   2.869   1.485   6.143 -1.0048  0.2080 -0.7635
 2087TIP3   OH227675   3.571   2.961  10.870 -0.2129  0.3806 -1.3034
 2087TIP3    H127676   3.475   2.960  10.875 -0.2337  0.1063 -1.7407
 2087TIP3    H227677   3.596   3.044  10.911 -0.5648 -0.1257 -0.0415
 2088TIP3   OH227678   3.541   4.516   0.273  0.0876 -0.1628 -0.2865
 2088TIP3    H127679   3.575   4.507   0.184  0.1991 -0.9592 -0.1713
 2088TIP3    H227680   3.612   4.558   0.321  0.1009  0.0925 -0.5267
 2089TIP3   OH227681   2.505   1.113  13.786  0.6514 -0.6251 -0.0743
 2089TIP3    H127682   2.582   1.056  13.776  1.7630  0.6553  0.8917
 2089TIP3    H227683   2.504   1.135  13.879  0.4267  1.1368 -0.4683
 2090TIP3   OH227684   1.076   4.942   1.515  0.4499  0.2483 -0.1070
 2090TIP3    H127685   1.076   5.035   1.493 -2.3919 -0.0592 -1.6644
 2090TIP3    H227686   1.117   4.899   1.441 -0.0678  0.0903 -0.3036
 2091TIP3   OH227687   4.447   0.131  12.948 -0.2066  0.2117 -0.2008
 2091TIP3    H127688   4.407   0.197  13.004  1.6355  1.1020  0.0934
 2091TIP3    H227689   4.406   0.144  12.863 -1.2902  0.4266  0.3430
 2092TIP3   OH227690   5.387   1.952  13.255 -0.2527  0.3616  0.1177
 2092TIP3    H127691   5.430   1.906  13.183 -0.6756 -0.4916  0.4031
 2092TIP3    H227692   5.453   1.955  13.325 -0.8444 -1.5414  0.8011
 2093TIP3   OH227693   3.515   6.131   3.715 -0.0820 -0.0397  0.3748
 2093TIP3    H127694   3.453   6.060   3.700  1.6956 -1.5770  0.0688
 2093TIP3    H227695   3.555   6.146   3.629 -0.7795  1.6739  0.3324
 2094TIP3   OH227696   2.309   5.816  11.497  0.8200 -0.2107 -0.3162
 2094TIP3    H127697   2.361   5.818  11.417 -0.6671  0.5226 -1.3093
 2094TIP3    H227698   2.278   5.726  11.505 -0.9419  0.2204 -1.8839
 2095TIP3   OH227699   2.367   3.755  16.063  0.1074  0.1900 -0.4045
 2095TIP3    H127700   2.363   3.685  16.128  1.7449  0.4802  0.0316
 2095TIP3    H227701   2.457   3.787  16.067  0.1003  0.5525 -2.4630
 2096TIP3   OH227702   0.837   4.079  15.523  0.2741  0.1211 -0.2180
 2096TIP3    H127703   0.871   4.078  15.433 -1.0761  1.3325 -0.7561
 2096TIP3    H227704   0.915   4.066  15.577  1.4412  1.5485 -1.4860
 2097TIP3   OH227705   3.555   5.731   1.890  0.0708  0.0689  0.2757
 2097TIP3    H127706   3.515   5.651   1.857  0.4598  1.1925 -3.0501
 2097TIP3    H227707   3.539   5.796   1.822  3.9647  1.6133  0.7108
 2098TIP3   OH227708   6.168   0.526   2.450  0.3659 -0.8222  0.5849
 2098TIP3    H127709   6.162   0.556   2.359  0.5951  1.1901  1.2005
 2098TIP3    H227710   6.262   0.521   2.467  0.3337 -2.0145  0.4719
 2099TIP3   OH227711   2.052   3.093  14.081  0.4866 -0.2399 -0.2513
 2099TIP3    H127712   2.010   3.150  14.146 -0.1861 -1.5124  0.4376
 2099TIP3    H227713   1.979   3.060  14.027  0.6446 -2.0208  0.6018
 2100TIP3   OH227714   2.972   6.585  15.025  0.6769 -0.1570 -0.0737
 2100TIP3    H127715   3.066   6.596  15.008  0.3680 -1.3793 -2.7961
 2100TIP3    H227716   2.952   6.496  14.995 -1.4556  0.3065 -0.1208
 2101TIP3   OH227717   2.344   2.729  15.878  0.3748  0.8111  0.7720
 2101TIP3    H127718   2.424   2.739  15.826 -0.1195 -1.2064 -0.4466
 2101TIP3    H227719   2.367   2.661  15.942 -1.3502 -2.3234 -1.7825
 2102TIP3   OH227720   4.725   4.575  12.613  0.0267  0.4583  0.4371
 2102TIP3    H127721   4.776   4.653  12.634  0.1465  0.3985  0.3676
 2102TIP3    H227722   4.777   4.502  12.647 -1.1307  0.5614  2.4832
 2103TIP3   OH227723   4.226   0.330   5.973  0.2443 -0.0297  0.2455
 2103TIP3    H127724   4.285   0.384   5.921  0.1392  1.1561  1.3473
 2103TIP3    H227725   4.171   0.286   5.908 -1.1853  2.9259 -0.6072
 2104TIP3   OH227726   1.845   2.335   3.301  0.0834 -0.2879  0.2352
 2104TIP3    H127727   1.907   2.284   3.249  0.7665  0.9166 -0.1407
 2104TIP3    H227728   1.759   2.304   3.274  0.5279 -2.8163  1.6014
 2105TIP3   OH227729   6.582   5.800  16.784 -0.3166  0.5413  0.1692
 2105TIP3    H127730   6.624   5.810  16.869 -1.7892  1.7736  0.7893
 2105TIP3    H227731   6.570   5.706  16.774 -0.4405  0.4009  1.4943
 2106TIP3   OH227732   2.905   1.554   1.462  0.1752  0.0831  0.0722
 2106TIP3    H127733   2.835   1.612   1.493 -0.9328 -1.2406  0.0904
 2106TIP3    H227734   2.943   1.517   1.541  1.0210  0.9282  0.0691
 2107TIP3   OH227735   5.814   5.493   2.298  0.1151  0.6308  0.2196
 2107TIP3    H127736   5.765   5.419   2.262 -2.3288  2.3609 -0.1370
 2107TIP3    H227737   5.772   5.512   2.382  0.0588  2.2313 -0.1500
 2108TIP3   OH227738   5.459   1.579   2.548 -0.0499 -0.2552  0.8906
 2108TIP3    H127739   5.463   1.500   2.494  0.5746  1.2928 -1.4401
 2108TIP3    H227740   5.473   1.650   2.485 -2.0453  1.7785  2.6994
 2109TIP3   OH227741   6.641   0.810   5.042 -0.8081  0.0952  0.3930
 2109TIP3    H127742   6.703   0.883   5.041 -0.4420 -0.1728  1.6088
 2109TIP3    H227743   6.555   0.851   5.036 -0.5338  0.5162 -0.6463
 2110TIP3   OH227744   0.915   1.248  11.422  0.5521  0.8402  0.0700
 2110TIP3    H127745   0.837   1.293  11.388  1.0720  2.6764  1.2543
 2110TIP3    H227746   0.880   1.186  11.486 -0.0645  0.4749 -0.6038
 2111TIP3   OH227747   5.979   0.638   0.061 -0.0206 -0.1726 -0.0684
 2111TIP3    H127748   6.035   0.586   0.004  0.7948  0.2803  0.3182
 2111TIP3    H227749   6.039   0.686   0.118 -0.8106 -0.2038  0.8083
 2112TIP3   OH227750   0.281   5.443   3.123 -0.2581  0.2831  0.1109
 2112TIP3    H127751   0.334   5.456   3.044 -1.3082  0.7823 -0.5149
 2112TIP3    H227752   0.328   5.492   3.191 -0.7620  2.0692 -0.8026
 2113TIP3   OH227753   2.785   0.768  15.407  0.2763 -0.3235  0.1462
 2113TIP3    H127754   2.810   0.699  15.469  0.7106  0.1001  0.4402
 2113TIP3    H227755   2.865   0.787  15.358  0.4349  0.7399  0.8067
 2114TIP3   OH227756   0.447   6.555   3.320 -0.6525  0.0672  0.1187
 2114TIP3    H127757   0.409   6.501   3.389  0.9633 -0.3630  0.7001
 2114TIP3    H227758   0.439   6.645   3.353 -1.0390 -0.0290  0.2886
 2115TIP3   OH227759   4.230   5.433   0.268 -0.4172 -0.6764  0.1789
 2115TIP3    H127760   4.278   5.373   0.325 -0.2353  0.0321  0.7836
 2115TIP3    H227761   4.177   5.486   0.328 -0.6792 -0.3251 -0.3569
 2116TIP3   OH227762   3.753   3.713   0.356  0.1656  0.3361 -0.6744
 2116TIP3    H127763   3.837   3.755   0.338  0.8965 -0.6359  0.4012
 2116TIP3    H227764   3.775   3.622   0.376 -0.9588  0.4602  1.3185
 2117TIP3   OH227765   1.824   6.147  14.805 -0.3164 -0.2763  0.5978
 2117TIP3    H127766   1.762   6.221  14.807 -1.6124 -1.2603 -1.0990
 2117TIP3    H227767   1.768   6.070  14.814  0.4315 -1.2798 -2.7657
 2118TIP3   OH227768   2.628   3.967   6.324  0.1547  0.3409  0.2800
 2118TIP3    H127769   2.659   4.052   6.292 -1.7904  0.4511 -1.4325
 2118TIP3    H227770   2.551   3.988   6.377 -0.5117 -0.3750 -0.4025
 2119TIP3   OH227771   3.882   4.977   1.950  0.2000  0.3680  0.1692
 2119TIP3    H127772   3.855   5.036   1.881 -0.7332  0.6259  0.7501
 2119TIP3    H227773   3.840   4.894   1.929 -1.4229  0.8847  1.3051
 2120TIP3   OH227774   2.840   3.738   5.337 -0.4139 -0.0347  0.6406
 2120TIP3    H127775   2.871   3.828   5.338  0.8375 -0.3327 -2.9951
 2120TIP3    H227776   2.920   3.685   5.334 -1.1628 -1.1685  0.2305
 2121TIP3   OH227777   1.251   6.629   5.922 -0.0249 -0.7233  0.4192
 2121TIP3    H127778   1.207   6.651   6.004  0.9036 -0.5960  0.8871
 2121TIP3    H227779   1.322   6.570   5.948  0.1239 -0.8718 -0.3224
 2122TIP3   OH227780   1.952   5.049   1.367  0.2105 -0.2655 -0.1219
 2122TIP3    H127781   1.998   5.080   1.289 -0.3385  0.6070 -0.1065
 2122TIP3    H227782   2.008   5.075   1.440 -0.1566  0.5570 -0.1206
 2123TIP3   OH227783   2.286   5.343  15.269 -0.5517  0.2716  0.6617
 2123TIP3    H127784   2.350   5.338  15.340  0.6334 -1.0386 -0.4551
 2123TIP3    H227785   2.244   5.257  15.269 -0.3008  0.1425 -0.4291
 2124TIP3   OH227786   2.676   3.627  14.504  0.1716 -0.0113  0.8192
 2124TIP3    H127787   2.677   3.541  14.463 -1.9203  0.6403 -0.6957
 2124TIP3    H227788   2.662   3.610  14.597  1.6516 -1.3586  0.8136
 2125TIP3   OH227789   3.750   2.439   1.773  0.2776  0.1814  0.0836
 2125TIP3    H127790   3.768   2.413   1.863 -1.9862  0.0291  0.5118
 2125TIP3    H227791   3.672   2.494   1.779  0.8854  1.2814 -1.6388
 2126TIP3   OH227792   0.973   6.579   4.437 -0.1164  0.6266  0.9583
 2126TIP3    H127793   0.887   6.540   4.420 -0.3459  1.2864  0.6017
 2126TIP3    H227794   1.027   6.506   4.465 -1.0061  0.3309  1.9460
 2127TIP3   OH227795   4.830   6.470   0.409  0.2110  0.2066 -0.1745
 2127TIP3    H127796   4.913   6.487   0.364  1.3391  0.3797  1.9253
 2127TIP3    H227797   4.842   6.507   0.496  0.0096 -4.6848  2.0836
 2128TIP3   OH227798   1.128   0.996   1.066 -0.1563  0.1703  0.2644
 2128TIP3    H127799   1.147   0.904   1.082 -0.8890 -0.0643 -0.1759
 2128TIP3    H227800   1.077   1.023   1.143  0.5704  0.3695  0.6778
 2129TIP3   OH227801   5.844   0.519  13.509  0.3264 -0.7816  0.2450
 2129TIP3    H127802   5.840   0.447  13.571 -0.7129 -1.9268 -1.1062
 2129TIP3    H227803   5.924   0.502  13.458  1.9291  0.9015  2.1029
 2130TIP3   OH227804   5.952   4.888  13.474 -0.4618  0.2643  0.7915
 2130TIP3    H127805   6.046   4.902  13.468 -0.3503 -0.9775 -1.0315
 2130TIP3    H227806   5.914   4.948  13.410 -0.7854 -0.3272  0.4249
 2131TIP3   OH227807   5.889   5.969  14.189  0.1183  1.0569 -0.5419
 2131TIP3    H127808   5.841   5.990  14.110 -2.4754  1.9703  1.2148
 2131TIP3    H227809   5.851   5.887  14.220 -0.8675  2.1603  1.2572
 2132TIP3   OH227810   4.347   1.012  11.428 -0.2168 -0.4231  0.1400
 2132TIP3    H127811   4.282   0.948  11.398 -0.7523  0.4963 -0.6955
 2132TIP3    H227812   4.387   1.045  11.347  0.0876  0.2531  0.5669
 2133TIP3   OH227813   0.771   3.523   0.469 -0.4282  0.3062  0.0485
 2133TIP3    H127814   0.811   3.490   0.388 -0.8221  1.4307 -0.6220
 2133TIP3    H227815   0.825   3.598   0.493  0.1030 -0.4457  1.2267
 2134TIP3   OH227816   5.907   2.309   0.829  0.5249  0.4804 -0.1661
 2134TIP3    H127817   5.912   2.310   0.924 -1.2369 -1.2568 -0.0201
 2134TIP3    H227818   5.962   2.235   0.803 -1.3362 -0.9197 -0.2724
 2135TIP3   OH227819   3.956   0.581  13.577  0.3882  0.0353  0.5741
 2135TIP3    H127820   4.031   0.522  13.567 -0.1875 -1.0182  2.1183
 2135TIP3    H227821   3.880   0.522  13.578 -0.3367  0.9573  0.5132
 2136TIP3   OH227822   5.072   5.498  15.498 -0.0555 -0.2512  0.1174
 2136TIP3    H127823   5.085   5.508  15.592 -0.0339 -1.2978  0.2322
 2136TIP3    H227824   5.161   5.498  15.461 -0.0456 -0.2536  0.1401
 2137TIP3   OH227825   4.530   0.222  10.938  0.2802 -0.3004  0.1649
 2137TIP3    H127826   4.520   0.214  10.843  2.1620 -1.2080  0.0139
 2137TIP3    H227827   4.623   0.205  10.953  0.0866  0.3007  2.1272
 2138TIP3   OH227828   2.490   5.520  11.190  0.0295  0.2925  0.6375
 2138TIP3    H127829   2.399   5.531  11.162  0.3573  0.8576 -0.1917
 2138TIP3    H227830   2.509   5.427  11.176 -0.2167  0.3061  0.2346
 2139TIP3   OH227831   3.146   4.305  14.708 -0.3844 -0.0703  0.2489
 2139TIP3    H127832   3.122   4.228  14.760 -0.1893 -0.6391 -0.4815
 2139TIP3    H227833   3.182   4.367  14.771 -0.1919 -0.7267  0.7902
 2140TIP3   OH227834   5.798   3.117  12.969  0.4591 -0.4109  0.0718
 2140TIP3    H127835   5.764   3.092  13.055  0.6909 -1.6541 -0.1893
 2140TIP3    H227836   5.873   3.060  12.955  0.7498  0.1531 -0.7266
 2141TIP3   OH227837   0.524   5.005   0.301  0.8299  0.0639  0.0391
 2141TIP3    H127838   0.599   5.006   0.241  1.1230  0.7199  0.4168
 2141TIP3    H227839   0.449   5.025   0.246  0.6766 -2.2468 -0.6712
 2142TIP3   OH227840   3.639   3.443  11.685 -0.3290  0.8130  0.3454
 2142TIP3    H127841   3.556   3.489  11.674 -0.8182 -0.2091 -0.3297
 2142TIP3    H227842   3.622   3.354  11.653  0.9726  0.5399  0.3624
 2143TIP3   OH227843   5.405   5.401   6.030  0.3749  0.3070  0.3366
 2143TIP3    H127844   5.453   5.420   5.949 -0.9676 -0.3072 -0.6191
 2143TIP3    H227845   5.418   5.308   6.044 -1.2735 -0.0556 -0.4327
 2144TIP3   OH227846   1.018   1.573   1.426 -0.4258 -0.1858 -0.3652
 2144TIP3    H127847   1.014   1.560   1.520  0.0786  1.4665 -0.0955
 2144TIP3    H227848   0.957   1.645   1.409  1.3817  1.2560 -0.9371
 2145TIP3   OH227849   1.009   4.630  16.439  0.0788 -0.1674 -0.1158
 2145TIP3    H127850   0.962   4.643  16.356 -1.2338 -2.5310  0.2227
 2145TIP3    H227851   1.072   4.561  16.420  0.7500  0.2718  0.4966
 2146TIP3   OH227852   4.137   5.846  16.232 -0.2032  0.7461 -0.1546
 2146TIP3    H127853   4.153   5.835  16.326 -2.4531  0.3527  0.2065
 2146TIP3    H227854   4.121   5.940  16.221 -0.2888  0.7384 -0.0919
 2147TIP3   OH227855   6.282   6.448   4.314  0.3398 -0.2773  0.3140
 2147TIP3    H127856   6.375   6.431   4.299  0.7523  2.3999 -0.3186
 2147TIP3    H227857   6.258   6.512   4.247 -1.9558 -0.8642  0.5236
 2148TIP3   OH227858   2.469   2.984   2.342 -0.0794 -0.0382 -0.1340
 2148TIP3    H127859   2.564   2.983   2.357 -0.0430  0.4408 -0.3075
 2148TIP3    H227860   2.450   3.075   2.318 -0.8109  0.2314  1.4008
 2149TIP3   OH227861   6.161   0.023  17.221  0.7146 -0.6494 -0.2948
 2149TIP3    H127862   6.151  -0.035  17.146 -0.4905 -1.2497  0.3068
 2149TIP3    H227863   6.071   0.041  17.250  1.0369  1.9428 -0.7729
 2150TIP3   OH227864   0.963   1.559   3.042 -0.4558 -0.0123  0.3258
 2150TIP3    H127865   0.985   1.470   3.069 -1.5455 -0.1330  0.8604
 2150TIP3    H227866   1.011   1.572   2.960 -1.3226 -1.5687 -0.4553
 2151TIP3   OH227867   5.973   0.257   5.652  0.7040 -0.3200  0.4440
 2151TIP3    H127868   5.926   0.324   5.602 -1.1701 -2.8663 -1.3333
 2151TIP3    H227869   5.999   0.193   5.586 -0.2608 -2.8912  2.5027
 2152TIP3   OH227870   0.278   4.105   3.189  0.2268 -0.2828  0.0576
 2152TIP3    H127871   0.194   4.136   3.154  0.4538 -0.0138 -0.2538
 2152TIP3    H227872   0.294   4.022   3.144 -0.5345 -1.0146  1.1234
 2153TIP3   OH227873   6.682   3.644  15.639  0.5100 -0.1684 -0.3351
 2153TIP3    H127874   6.735   3.565  15.652 -0.6569 -0.9704 -0.4324
 2153TIP3    H227875   6.616   3.640  15.708  1.7782  1.8641  1.0506
 2154TIP3   OH227876   1.568   6.292  15.667  0.5955 -0.0527  0.1806
 2154TIP3    H127877   1.491   6.296  15.609 -0.1033 -1.5873  0.9783
 2154TIP3    H227878   1.625   6.226  15.627  0.8777  0.0864  0.3535
 2155TIP3   OH227879   5.877   4.404  16.639  0.0835  0.2104 -0.5415
 2155TIP3    H127880   5.972   4.393  16.646  0.2120  0.1826 -1.9958
 2155TIP3    H227881   5.847   4.423  16.728  1.2909 -0.9938  0.1310
 2156TIP3   OH227882   3.737   0.744   1.532  0.3286  0.0637  0.4224
 2156TIP3    H127883   3.651   0.773   1.562 -2.0909 -1.3377 -4.7066
 2156TIP3    H227884   3.782   0.824   1.506 -0.1206  0.6044  1.2742
 2157TIP3   OH227885   4.069   5.470  15.131 -0.4776 -0.2393 -0.4013
 2157TIP3    H127886   4.065   5.465  15.035 -0.5980  0.6202 -0.4427
 2157TIP3    H227887   4.029   5.388  15.161 -1.3997 -0.0475 -1.0769
 2158TIP3   OH227888   4.484   3.283  11.991  0.1697 -0.2543 -0.6273
 2158TIP3    H127889   4.505   3.330  12.072 -0.1005  0.9208 -1.2311
 2158TIP3    H227890   4.483   3.351  11.923  0.5992 -1.2592 -1.6554
 2159TIP3   OH227891   1.281   3.143   5.363 -0.3021 -0.0888  0.0059
 2159TIP3    H127892   1.191   3.150   5.392 -0.7821 -0.0824 -1.4502
 2159TIP3    H227893   1.300   3.226   5.320  0.7095  0.2758  1.1257
 2160TIP3   OH227894   4.279   0.219  15.759  0.1496  0.1784 -0.4129
 2160TIP3    H127895   4.353   0.268  15.794 -0.9402  2.7020 -1.5167
 2160TIP3    H227896   4.242   0.174  15.835  0.1726  2.4294  0.9779
 2161TIP3   OH227897   1.924   5.181   4.353 -0.8191  0.2846  0.1228
 2161TIP3    H127898   1.957   5.262   4.392 -1.7306 -0.3150  2.2408
 2161TIP3    H227899   1.970   5.174   4.269  3.0476  0.4415  2.0824
 2162TIP3   OH227900   4.918   2.375  14.424  0.2773 -0.0401  0.0157
 2162TIP3    H127901   5.008   2.393  14.398  0.5547  1.9744  2.1786
 2162TIP3    H227902   4.926   2.311  14.495  0.1674  1.6043  1.5444
 2163TIP3   OH227903   0.680   1.115   4.777  0.2562  0.0034 -0.5204
 2163TIP3    H127904   0.631   1.187   4.738 -0.1191 -0.6136 -1.1874
 2163TIP3    H227905   0.640   1.036   4.741 -0.8372 -0.6182  1.9684
 2164TIP3   OH227906   0.367   3.583  16.961 -0.0656  0.4300  0.1904
 2164TIP3    H127907   0.293   3.626  16.918 -0.4111  0.0358  0.3782
 2164TIP3    H227908   0.440   3.645  16.952  0.2682 -0.2582 -2.2411
 2165TIP3   OH227909   1.076   5.647  16.445 -0.9744  0.0865  0.1359
 2165TIP3    H127910   1.012   5.690  16.390  0.2940  1.3885 -0.3516
 2165TIP3    H227911   1.094   5.564  16.402 -1.0799  0.4590 -0.6206
 2166TIP3   OH227912   2.078   2.809  14.287  0.1618 -0.3782  0.0921
 2166TIP3    H127913   2.069   2.806  14.192 -1.4869  1.6676  0.1407
 2166TIP3    H227914   2.146   2.874  14.303  1.9496 -2.2735  0.2675
 2167TIP3   OH227915   0.301   2.997  15.832  0.3818 -0.1224 -0.5905
 2167TIP3    H127916   0.268   2.948  15.907  0.7622  2.5717  1.4169
 2167TIP3    H227917   0.396   3.002  15.847  0.2232  2.1139 -0.1493
 2168TIP3   OH227918   2.967   5.410   2.778  0.1397 -0.4596  0.1267
 2168TIP3    H127919   3.055   5.377   2.794  1.4536  3.1062  0.8162
 2168TIP3    H227920   2.940   5.367   2.697  2.8978 -0.9634 -0.5920
 2169TIP3   OH227921   5.028   3.880  11.346  0.0779 -0.2390 -0.0594
 2169TIP3    H127922   5.002   3.788  11.345  0.4624 -0.3393 -0.4684
 2169TIP3    H227923   4.952   3.927  11.311 -0.6428 -0.2694  1.4183
 2170TIP3   OH227924   5.766   4.250  11.243  0.1394 -0.0318  0.0418
 2170TIP3    H127925   5.743   4.228  11.152 -1.5107 -1.4825  0.7820
 2170TIP3    H227926   5.737   4.341  11.254 -1.5476 -0.5228 -0.2734
 2171TIP3   OH227927   6.533   5.190  13.205  0.3376 -0.4653  0.1175
 2171TIP3    H127928   6.457   5.220  13.156  0.7203 -0.0202 -0.2045
 2171TIP3    H227929   6.520   5.095  13.213 -0.4412 -0.3396  0.4032
 2172TIP3   OH227930   4.359   5.446  11.814 -0.0705 -0.4229  0.2665
 2172TIP3    H127931   4.345   5.483  11.901 -1.2298 -2.8859  1.1611
 2172TIP3    H227932   4.272   5.441  11.776  0.2048 -1.2704 -0.2462
 2173TIP3   OH227933   5.956   6.652  11.158 -0.1650  0.1000  0.0117
 2173TIP3    H127934   6.037   6.627  11.113  0.7128  3.4573 -0.4240
 2173TIP3    H227935   5.887   6.637  11.094  0.4751  0.0961 -0.6881
 2174TIP3   OH227936   3.508   2.368   3.050  0.1565  0.2317 -0.0594
 2174TIP3    H127937   3.552   2.431   3.107  1.3732  1.2592 -2.0815
 2174TIP3    H227938   3.551   2.285   3.068  0.3636  0.5000  0.7076
 2175TIP3   OH227939   1.321   6.157   0.805 -0.2895  0.3177 -0.1018
 2175TIP3    H127940   1.342   6.064   0.799 -0.5560  0.1229  1.7252
 2175TIP3    H227941   1.295   6.182   0.716  1.7701 -0.8618 -1.0660
 2176TIP3   OH227942   4.094   6.311   1.426 -0.2463  0.4292  0.2311
 2176TIP3    H127943   4.035   6.324   1.500  1.8735  0.9577  1.8894
 2176TIP3    H227944   4.037   6.311   1.349 -2.1951  2.9690  1.5851
 2177TIP3   OH227945   0.588   1.327  13.809  0.1692 -0.2545  0.2942
 2177TIP3    H127946   0.523   1.377  13.858  0.8583 -0.6352  1.6331
 2177TIP3    H227947   0.642   1.392  13.765  0.1698  0.1264  0.8615
 2178TIP3   OH227948   4.223   2.279   5.637  0.3703  0.3532 -0.0876
 2178TIP3    H127949   4.295   2.216   5.631 -0.6644 -0.8125 -0.4399
 2178TIP3    H227950   4.256   2.347   5.696  1.3115 -0.7803  0.7252
 2179TIP3   OH227951   2.149   0.583   6.361  0.1705  0.2483 -0.1377
 2179TIP3    H127952   2.233   0.576   6.407  0.3144 -1.6283 -0.6537
 2179TIP3    H227953   2.168   0.554   6.272 -1.3029 -1.5139  0.1027
 2180TIP3   OH227954   6.014   2.777   0.575 -0.9255  0.1887 -0.1154
 2180TIP3    H127955   5.973   2.694   0.601  0.3036 -0.6940 -0.9467
 2180TIP3    H227956   5.981   2.792   0.487  0.7378 -0.6937 -0.9197
 2181TIP3   OH227957   0.012   5.313  13.101 -0.7009 -0.0353  0.1461
 2181TIP3    H127958   0.024   5.385  13.040  0.1238  0.3562  0.7625
 2181TIP3    H227959  -0.083   5.302  13.106 -0.7709 -0.0911 -1.2072
 2182TIP3   OH227960   3.581   3.875  16.293  0.4654 -0.5085 -0.1809
 2182TIP3    H127961   3.524   3.802  16.267  1.7656 -1.8107  0.5742
 2182TIP3    H227962   3.634   3.893  16.216 -0.8847  0.6755 -0.8713
 2183TIP3   OH227963   3.170   2.953  14.040 -0.0210 -0.2440 -0.7491
 2183TIP3    H127964   3.215   2.875  14.073 -0.1124  0.7546  1.8898
 2183TIP3    H227965   3.238   3.020  14.034 -0.6358  0.5894  0.9563
 2184TIP3   OH227966   2.026   4.479   0.551 -0.2691  0.5371  0.2650
 2184TIP3    H127967   2.101   4.421   0.555 -0.9001 -0.1781  1.9740
 2184TIP3    H227968   2.063   4.565   0.529  1.0741  0.2547  1.3748
 2185TIP3   OH227969   1.879   2.574   6.017  0.2884 -0.0714  0.2246
 2185TIP3    H127970   1.888   2.485   5.984  0.9019  0.2521 -0.4930
 2185TIP3    H227971   1.788   2.598   5.996 -0.4701 -1.2109  2.1614
 2186TIP3   OH227972   4.709   5.100   4.152  0.3125  0.0852  0.0118
 2186TIP3    H127973   4.615   5.106   4.136  0.2404  1.4899  0.8836
 2186TIP3    H227974   4.727   5.006   4.150 -1.2331 -0.2445  0.4880
 2187TIP3   OH227975   0.286   6.119   0.673 -0.1762 -0.1730  0.2646
 2187TIP3    H127976   0.348   6.131   0.601 -1.3711 -1.8111 -1.0857
 2187TIP3    H227977   0.315   6.181   0.741  3.4100 -1.4647  0.0233
 2188TIP3   OH227978   5.413   0.442   1.108 -0.3815 -0.1050  0.3064
 2188TIP3    H127979   5.426   0.514   1.045 -0.6818 -0.7418 -0.4864
 2188TIP3    H227980   5.489   0.385   1.095  0.6953  0.8822  2.0641
 2189TIP3   OH227981   2.344   2.646  14.974 -0.2184  0.1372  0.3225
 2189TIP3    H127982   2.301   2.724  14.941  0.9708 -0.0028 -1.6721
 2189TIP3    H227983   2.436   2.658  14.951  0.1240 -1.4375  0.7975
 2190TIP3   OH227984   6.777   0.786  13.877 -0.0789  0.4989  0.5723
 2190TIP3    H127985   6.796   0.787  13.783 -1.5490  2.2519  0.2711
 2190TIP3    H227986   6.748   0.696  13.894  0.4703  0.0886 -0.5952
 2191TIP3   OH227987   0.214   3.925  16.072  0.1219 -0.1272 -0.3634
 2191TIP3    H127988   0.136   3.957  16.026 -0.2175  1.4551  1.2833
 2191TIP3    H227989   0.286   3.943  16.011 -0.5974 -0.2507 -1.2711
 2192TIP3   OH227990   5.027   6.096   4.090  0.1850 -0.0409 -0.3512
 2192TIP3    H127991   5.049   6.052   4.172  0.7315  0.4462 -0.2324
 2192TIP3    H227992   4.932   6.088   4.082  0.1649 -0.3172  0.1970
 2193TIP3   OH227993   1.762   4.761  14.652  0.2538  0.1397  0.4397
 2193TIP3    H127994   1.688   4.706  14.680  0.6943 -1.6547 -1.8408
 2193TIP3    H227995   1.839   4.705  14.663  0.9821  1.0975  0.2767
 2194TIP3   OH227996   1.632   2.628   1.615  0.1302  0.5389  0.7154
 2194TIP3    H127997   1.588   2.568   1.555  1.1570 -0.7769  1.2582
 2194TIP3    H227998   1.574   2.636   1.690 -0.2978  0.7256  0.3646
 2195TIP3   OH227999   2.028   5.536  12.998  0.3534  0.5458 -0.5919
 2195TIP3    H128000   1.936   5.508  12.997  0.4482  0.2303 -0.3148
 2195TIP3    H228001   2.028   5.618  12.948 -0.5683  2.0726  1.8234
 2196TIP3   OH228002   1.001   5.076   3.740 -0.0805  0.3647  0.4034
 2196TIP3    H128003   0.993   5.079   3.835  0.2140 -0.4432  0.4563
 2196TIP3    H228004   0.911   5.080   3.707 -0.3390 -1.8279  0.7877
 2197TIP3   OH228005   5.805   2.951   1.857  0.0003 -0.0460  0.4112
 2197TIP3    H128006   5.843   2.877   1.809 -0.2941  1.6887 -2.6757
 2197TIP3    H228007   5.779   2.915   1.941  0.3679 -3.3199 -0.8169
 2198TIP3   OH228008   3.915   0.975   1.471 -0.0052 -0.0695 -0.0602
 2198TIP3    H128009   3.928   1.020   1.555 -1.3141 -0.4292  0.3577
 2198TIP3    H228010   3.916   1.045   1.406  1.0937  0.2076  0.2349
 2199TIP3   OH228011   0.748   3.479   4.764 -0.0145  0.1316  0.2944
 2199TIP3    H128012   0.762   3.458   4.671 -0.6373  2.3059 -0.3111
 2199TIP3    H228013   0.692   3.557   4.763  0.8517  0.8165  2.4897
 2200TIP3   OH228014   2.226   2.436   1.625  0.4502  0.7914 -0.3396
 2200TIP3    H128015   2.253   2.527   1.640  1.8556  0.9547 -3.4879
 2200TIP3    H228016   2.134   2.434   1.649  0.3638  3.0987 -0.3981
 2201TIP3   OH228017   3.981   0.620   0.674  0.0809 -0.0870  0.4520
 2201TIP3    H128018   4.001   0.612   0.581  0.9330 -1.1495  0.7207
 2201TIP3    H228019   3.957   0.531   0.701 -1.3682  0.4529  0.9757
 2202TIP3   OH228020   2.729   0.372  11.724  0.2277 -0.0066 -0.0266
 2202TIP3    H128021   2.768   0.284  11.731 -0.8696 -0.5837 -1.0041
 2202TIP3    H228022   2.760   0.405  11.640 -2.7399 -1.1835 -1.6701
 2203TIP3   OH228023   4.512   4.551   1.793  0.0874 -0.5515  0.1907
 2203TIP3    H128024   4.546   4.504   1.869 -1.4898 -1.5395  0.3156
 2203TIP3    H228025   4.526   4.643   1.814 -0.5623 -0.8025  1.8130
 2204TIP3   OH228026   3.072   1.269  17.216 -0.0142  0.1588 -0.6795
 2204TIP3    H128027   3.057   1.286  17.309 -1.8826 -1.2748 -0.6852
 2204TIP3    H228028   3.080   1.356  17.177 -3.7942  0.9781  0.1429
 2205TIP3   OH228029   5.945   5.497  15.378 -0.0470 -0.1730 -0.9447
 2205TIP3    H128030   5.885   5.566  15.352 -2.1409 -1.9008 -0.8403
 2205TIP3    H228031   5.994   5.534  15.452 -1.1319  1.1816 -0.8838
 2206TIP3   OH228032   4.127   3.629   3.000  0.1087 -0.3955 -0.3217
 2206TIP3    H128033   4.116   3.551   2.946  3.0808 -1.7742  0.9774
 2206TIP3    H228034   4.186   3.602   3.071  0.9452  2.9258  0.3580
 2207TIP3   OH228035   6.024   2.742  14.374 -0.2356  0.0788 -0.0596
 2207TIP3    H128036   6.095   2.785  14.422  2.4741 -1.1571 -2.7880
 2207TIP3    H228037   6.008   2.661  14.421 -0.1192  0.5585  0.8075
 2208TIP3   OH228038   1.823   3.109  10.423  0.0665 -0.4028 -0.6012
 2208TIP3    H128039   1.812   3.174  10.354  0.9423  1.1383  0.6910
 2208TIP3    H228040   1.760   3.134  10.490  0.2200 -1.0355 -0.2150
 2209TIP3   OH228041   4.561   1.341  16.907 -0.1485  0.4862 -0.1489
 2209TIP3    H128042   4.624   1.298  16.965  0.6061  1.4887 -0.2100
 2209TIP3    H228043   4.547   1.427  16.946  1.0717  1.5308 -1.9441
 2210TIP3   OH228044   2.796   4.682   3.694 -0.6085 -0.5754 -0.1347
 2210TIP3    H128045   2.836   4.764   3.722 -0.7413  0.4037 -2.7247
 2210TIP3    H228046   2.868   4.619   3.696 -0.3401 -0.2443  1.1361
 2211TIP3   OH228047   3.005   3.868   3.124 -0.2841  0.1210  0.1469
 2211TIP3    H128048   2.956   3.923   3.186 -0.2256 -0.0338  0.3307
 2211TIP3    H228049   3.079   3.923   3.098  1.0624 -0.7110  2.1022
 2212TIP3   OH228050   3.598   3.569  16.890 -0.1323 -0.2944 -0.3676
 2212TIP3    H128051   3.578   3.654  16.928 -1.0089 -0.1686 -1.0902
 2212TIP3    H228052   3.563   3.505  16.953 -2.2355 -0.0854 -1.2716
 2213TIP3   OH228053   1.097   1.937  13.429  1.0308  0.0577  0.9989
 2213TIP3    H128054   1.018   1.991  13.421 -0.5507 -2.0943  1.5506
 2213TIP3    H228055   1.126   1.923  13.339 -0.0353 -0.2568  0.6901
 2214TIP3   OH228056   0.387   0.446  14.827 -0.3853 -0.3096 -0.6024
 2214TIP3    H128057   0.459   0.441  14.763  0.9847 -0.3254  0.8873
 2214TIP3    H228058   0.310   0.466  14.775  0.6985 -0.3249 -2.2658
 2215TIP3   OH228059   4.424   2.492  11.940 -0.4379  0.4080  0.1941
 2215TIP3    H128060   4.407   2.412  11.990  0.4755 -0.0454 -0.2105
 2215TIP3    H228061   4.364   2.557  11.977 -0.7155 -0.2888  0.9688
 2216TIP3   OH228062   0.574   0.834  16.099  0.0010  0.6290  0.7717
 2216TIP3    H128063   0.610   0.886  16.027 -2.4791  0.6632 -0.4752
 2216TIP3    H228064   0.576   0.744  16.066  0.0336  0.4791  1.1753
 2217TIP3   OH228065   5.688   3.162   2.700  0.1689 -0.1647 -0.5486
 2217TIP3    H128066   5.748   3.110   2.647  0.4605 -0.5207  0.1214
 2217TIP3    H228067   5.654   3.101   2.765  1.4650  0.7378  1.0399
 2218TIP3   OH228068   1.032   2.928   2.538  0.3985 -0.3263  0.0814
 2218TIP3    H128069   1.056   3.009   2.493 -0.1993 -0.7180 -0.9793
 2218TIP3    H228070   1.004   2.869   2.467 -2.1801 -0.4036  1.1052
 2219TIP3   OH228071   4.762   4.574   6.338  0.2257  0.0198  0.1967
 2219TIP3    H128072   4.798   4.495   6.296  1.6846  0.7392  0.0667
 2219TIP3    H228073   4.677   4.546   6.372  0.9512 -1.7689  0.6293
 2220TIP3   OH228074   5.171   0.122  11.385 -0.4384  0.1118  0.1547
 2220TIP3    H128075   5.238   0.094  11.324 -1.4431 -0.5374 -0.6674
 2220TIP3    H228076   5.091   0.128  11.333 -1.0643  0.6875  1.1503
 2221TIP3   OH228077   2.176   3.234   1.965 -0.2801  0.3216  0.6300
 2221TIP3    H128078   2.084   3.252   1.945 -0.4132  0.3556  1.2594
 2221TIP3    H228079   2.198   3.297   2.033  0.0928  0.0382  0.7704
 2222TIP3   OH228080   1.186   4.863   0.557 -0.4278  0.0763 -0.1539
 2222TIP3    H128081   1.220   4.806   0.626  0.1203  0.3902 -0.1581
 2222TIP3    H228082   1.097   4.833   0.542 -0.7031  0.2888  0.9977
 2223TIP3   OH228083   4.188   0.858  11.207  0.2191  0.3854 -0.4746
 2223TIP3    H128084   4.257   0.857  11.140  0.5119 -0.1548 -0.1739
 2223TIP3    H228085   4.106   0.858  11.157  0.4380 -0.0521 -0.8414
 2224TIP3   OH228086   3.401   0.556   4.758  0.4648 -0.1392  0.6912
 2224TIP3    H128087   3.456   0.521   4.688 -1.6467  0.1338 -1.1782
 2224TIP3    H228088   3.396   0.650   4.739 -0.6214 -0.1670  0.8254
 2225TIP3   OH228089   2.593   2.130  12.347 -0.1054  0.6452 -0.0446
 2225TIP3    H128090   2.647   2.099  12.420  1.8330  1.8953 -0.9051
 2225TIP3    H228091   2.504   2.125  12.380  0.6229 -0.1802  1.9055
 2226TIP3   OH228092   6.726   1.264   1.161  0.2183  0.4628 -0.1179
 2226TIP3    H128093   6.711   1.170   1.162  0.4978  0.4096 -0.7315
 2226TIP3    H228094   6.659   1.299   1.103 -0.6163  0.7759  1.0256
 2227TIP3   OH228095   5.187   2.047   3.923  0.1239 -0.3267  0.1676
 2227TIP3    H128096   5.136   1.967   3.914  1.1465 -0.9980  0.3017
 2227TIP3    H228097   5.193   2.082   3.834  1.4699 -1.5247 -0.2309
 2228TIP3   OH228098   3.017   2.999  10.858  0.5421 -0.2121 -0.4495
 2228TIP3    H128099   2.955   3.063  10.891  1.3666 -0.9088  2.5980
 2228TIP3    H228100   2.977   2.914  10.877  1.2514 -0.6449 -0.8429
 2229TIP3   OH228101   0.317   2.641   1.460  0.7857  0.3141  0.1875
 2229TIP3    H128102   0.388   2.675   1.404  0.8126  2.8493  1.6935
 2229TIP3    H228103   0.360   2.575   1.514  1.7631  0.9765  0.2494
 2230TIP3   OH228104   4.867   6.252   3.186 -0.1960  0.1523 -0.2347
 2230TIP3    H128105   4.783   6.240   3.142  0.3806  1.0042 -1.6069
 2230TIP3    H228106   4.868   6.184   3.254 -0.6929 -1.8592 -2.1746
 2231TIP3   OH228107   2.730   6.689   5.053  0.0799 -0.1886 -0.0283
 2231TIP3    H128108   2.784   6.754   5.097 -1.4078  0.9263  0.1776
 2231TIP3    H228109   2.664   6.740   5.006 -1.9768 -1.5744  1.2984
 2232TIP3   OH228110   3.106   2.656  12.971  1.0110  0.2618 -0.4765
 2232TIP3    H128111   3.153   2.602  13.035 -0.3933 -0.5578 -0.0943
 2232TIP3    H228112   3.055   2.593  12.920  1.8770  0.9424 -2.2282
 2233TIP3   OH228113   3.090   4.719   3.838  0.0876  0.0963  0.3738
 2233TIP3    H128114   3.131   4.632   3.834  0.2331  0.2214 -1.6078
 2233TIP3    H228115   3.038   4.718   3.918 -1.9721 -2.7648 -0.9158
 2234TIP3   OH228116   1.840   0.486   3.881 -0.1401 -0.1603  0.5098
 2234TIP3    H128117   1.789   0.453   3.956 -0.3310 -2.1863 -0.4610
 2234TIP3    H228118   1.776   0.492   3.810  0.8482 -2.2991 -0.5989
 2235TIP3   OH228119   1.545   3.519   5.050 -0.0384 -0.2739 -0.3448
 2235TIP3    H128120   1.609   3.451   5.029  0.3331 -0.2139  0.5833
 2235TIP3    H228121   1.573   3.594   4.998  1.5189  0.2193  1.1583
 2236TIP3   OH228122   4.634   0.859   5.221 -0.0610  0.2134  0.2002
 2236TIP3    H128123   4.620   0.929   5.157  1.0990 -0.6730 -1.0521
 2236TIP3    H228124   4.561   0.868   5.282  0.4171  2.9032  0.4241
 2237TIP3   OH228125   2.278   4.268  14.039  0.1067  0.6378  0.4480
 2237TIP3    H128126   2.268   4.272  14.134 -0.8630 -1.2569  0.4451
 2237TIP3    H228127   2.373   4.265  14.026  0.2163 -2.0201  1.5257
 2238TIP3   OH228128   0.451   0.230  15.017 -0.1418  0.7760  0.1186
 2238TIP3    H128129   0.472   0.152  14.965  0.8236 -0.5180  2.3528
 2238TIP3    H228130   0.398   0.284  14.960  1.8809 -0.0348 -2.6266
 2239TIP3   OH228131   2.064   0.806  13.297 -0.1153  0.6611 -0.2036
 2239TIP3    H128132   1.991   0.827  13.355  0.3125  0.4829  0.4088
 2239TIP3    H228133   2.119   0.746  13.348 -0.2665 -0.3231 -1.1868
 2240TIP3   OH228134   1.777   3.271  15.778 -0.3508 -0.0941 -0.2168
 2240TIP3    H128135   1.828   3.190  15.770 -1.9997 -1.1483 -0.2508
 2240TIP3    H228136   1.838   3.340  15.751  1.6035 -1.1231  1.4379
 2241TIP3   OH228137   2.623   4.020   2.823  0.6231  0.9226  0.5904
 2241TIP3    H128138   2.557   4.035   2.891  1.3421  0.9979  1.2860
 2241TIP3    H228139   2.697   3.983   2.871  0.2213 -1.4019 -0.5339
 2242TIP3   OH228140   6.655   4.629   0.322 -1.0690 -0.3661  0.0699
 2242TIP3    H128141   6.737   4.636   0.370 -0.9520 -0.1216 -0.1627
 2242TIP3    H228142   6.590   4.609   0.388 -0.9611  0.2862  0.3723
 2243TIP3   OH228143   2.709   6.332   5.688  0.3374 -0.3526 -0.5285
 2243TIP3    H128144   2.739   6.336   5.597  0.6215  0.6604 -0.3960
 2243TIP3    H228145   2.640   6.398   5.693  1.7247  1.0626  0.5018
 2244TIP3   OH228146   5.011   4.178  15.013 -0.6322  0.4666  0.7559
 2244TIP3    H128147   5.082   4.206  14.955 -0.3574  1.7763  1.6909
 2244TIP3    H228148   4.932   4.219  14.978 -0.9285 -0.9554 -0.2574
 2245TIP3   OH228149   3.708   3.070  12.996  0.2000  0.0051  0.1555
 2245TIP3    H128150   3.618   3.056  12.968  0.2199  0.9972 -0.4587
 2245TIP3    H228151   3.701   3.127  13.072  0.2978  0.0111  0.1595
 2246TIP3   OH228152   3.440   3.454   5.976  0.6280 -0.6401  0.4624
 2246TIP3    H128153   3.420   3.536   5.930  2.1160  0.5899  1.9308
 2246TIP3    H228154   3.413   3.385   5.915  1.7411  0.9336 -1.9221
 2247TIP3   OH228155   2.518   2.944   0.816 -0.2748  0.6103 -0.1754
 2247TIP3    H128156   2.534   2.956   0.722 -1.1070 -0.0823 -0.4128
 2247TIP3    H228157   2.541   3.028   0.855  1.0501  0.5896 -0.8665
 2248TIP3   OH228158   4.455   2.834   4.507  0.1127  0.0347  0.9350
 2248TIP3    H128159   4.395   2.829   4.582 -0.2771  3.0441  0.8806
 2248TIP3    H228160   4.528   2.887   4.539  0.5487  0.2586 -0.4204
 2249TIP3   OH228161   3.277   0.331  13.983  0.0552  0.2372  0.4167
 2249TIP3    H128162   3.256   0.278  14.059  0.6873  1.7953  1.7062
 2249TIP3    H228163   3.208   0.312  13.920 -1.9492  0.8943  2.3782
 2250TIP3   OH228164   3.005   1.622  11.522  0.2837 -0.3389  0.2296
 2250TIP3    H128165   3.019   1.617  11.428 -1.3262  1.2008 -0.1071
 2250TIP3    H228166   2.911   1.634  11.532  0.1994 -2.1650  2.1186
 2251TIP3   OH228167   3.428   5.459  14.361 -0.0359 -0.1711 -0.6261
 2251TIP3    H128168   3.426   5.386  14.299  0.4364 -1.6183  1.0496
 2251TIP3    H228169   3.385   5.426  14.439 -1.8973  2.1046 -0.6150
 2252TIP3   OH228170   3.077   0.336  17.195  0.0305  0.6256  0.3371
 2252TIP3    H128171   3.007   0.387  17.236  0.5665 -0.3835  2.6252
 2252TIP3    H228172   3.158   0.376  17.228  0.4715 -0.3162  0.4118
 2253TIP3   OH228173   5.082   6.754   4.559 -0.0091 -0.5535  0.1621
 2253TIP3    H128174   5.068   6.828   4.501  0.4368 -0.2305  0.4590
 2253TIP3    H228175   5.042   6.780   4.642  1.6936  0.0925  0.8028
 2254TIP3   OH228176   0.344   4.263  15.768  0.6251  0.2204  0.9995
 2254TIP3    H128177   0.380   4.176  15.750 -0.3219 -0.2661  1.4128
 2254TIP3    H228178   0.332   4.301  15.681  2.1865  0.4172  0.8622
 2255TIP3   OH228179   1.241   5.725   5.202 -0.2076 -0.3176  0.2656
 2255TIP3    H128180   1.182   5.779   5.254  0.2494  1.8013 -1.3401
 2255TIP3    H228181   1.288   5.671   5.266 -2.9269 -1.1155  1.6406
 2256TIP3   OH228182   4.258   1.068   3.686 -0.1771  0.1146  0.0082
 2256TIP3    H128183   4.205   1.148   3.686 -0.2692  0.0664 -1.8800
 2256TIP3    H228184   4.341   1.094   3.646  0.2006 -0.4924  0.3761
 2257TIP3   OH228185   0.219   3.307  12.461  0.2292 -0.6243 -0.3771
 2257TIP3    H128186   0.265   3.225  12.444  2.4271  0.5810 -0.3309
 2257TIP3    H228187   0.246   3.365  12.391 -1.1100  0.1789 -0.2477
 2258TIP3   OH228188   2.274   4.165  10.385  0.0324 -0.2166  0.2845
 2258TIP3    H128189   2.285   4.260  10.384  2.0384 -0.4340  0.7286
 2258TIP3    H228190   2.179   4.152  10.376 -0.0832  1.7652 -2.0389
 2259TIP3   OH228191   0.741   0.713  13.435  0.1184 -0.1113  0.2236
 2259TIP3    H128192   0.814   0.658  13.464  1.1068  0.4223 -1.2208
 2259TIP3    H228193   0.756   0.797  13.477  1.1173  0.4222 -1.1735
 2260TIP3   OH228194   3.796   3.054  17.122  0.2528  0.2116  0.4269
 2260TIP3    H128195   3.856   2.995  17.076 -0.2557  0.3120 -0.3771
 2260TIP3    H228196   3.849   3.091  17.192  0.2545 -2.1217  1.7198
 2261TIP3   OH228197   1.004   4.907  11.702  0.3684  0.3344 -0.3040
 2261TIP3    H128198   1.034   4.846  11.635 -1.9364  0.3158 -1.3639
 2261TIP3    H228199   1.045   4.990  11.680  0.5117  0.0521 -1.0801
 2262TIP3   OH228200   0.661   2.011   2.575  0.5961  0.4107 -0.5786
 2262TIP3    H128201   0.674   1.935   2.519 -0.7537  0.3718 -0.8582
 2262TIP3    H228202   0.650   2.084   2.514  0.5250  0.6020 -0.3359
 2263TIP3   OH228203   6.075   4.640  12.709 -0.6633  0.3746 -0.1047
 2263TIP3    H128204   6.021   4.646  12.630  0.9612  2.8156 -1.0574
 2263TIP3    H228205   6.150   4.587  12.683 -2.1016 -2.3018  0.9901
 2264TIP3   OH228206   3.784   2.319  16.034 -0.4753 -0.2604  0.0637
 2264TIP3    H128207   3.718   2.252  16.053  0.3671 -0.4343  2.5407
 2264TIP3    H228208   3.860   2.293  16.085  1.4414  0.1529 -2.4523
 2265TIP3   OH228209   4.942   2.928   6.340 -1.0429  0.1813  0.0056
 2265TIP3    H128210   4.926   2.834   6.337  1.4077 -0.2530 -0.7681
 2265TIP3    H228211   4.923   2.953   6.430 -1.1351 -1.1611  0.3736
 2266TIP3   OH228212   1.110   2.330   3.933  0.1350 -0.2917 -0.1729
 2266TIP3    H128213   1.021   2.352   3.960  0.1571 -0.4275  0.0084
 2266TIP3    H228214   1.100   2.270   3.859  0.0764 -0.2182 -0.2244
 2267TIP3   OH228215   2.914   5.418   4.687  0.1564 -0.9830 -0.2621
 2267TIP3    H128216   2.841   5.376   4.643 -0.7855 -2.2885  2.4420
 2267TIP3    H228217   2.899   5.402   4.780  2.9488  0.2533  0.4715
 2268TIP3   OH228218   6.707   2.961   1.139  0.3098  0.8825 -0.0442
 2268TIP3    H128219   6.736   2.941   1.228 -1.4547  0.3781  0.4369
 2268TIP3    H228220   6.646   3.034   1.149 -0.6126  0.2210 -0.7283
 2269TIP3   OH228221   1.884   1.748   0.853 -0.3937 -0.1651 -0.1288
 2269TIP3    H128222   1.910   1.775   0.941  2.1740 -0.7961 -0.6643
 2269TIP3    H228223   1.796   1.785   0.841 -1.1043 -0.7470  2.9740
 2270TIP3   OH228224   5.841   1.046   5.782  0.4155  0.1262 -0.0817
 2270TIP3    H128225   5.750   1.047   5.812  0.0987 -0.0170 -1.0178
 2270TIP3    H228226   5.857   0.954   5.760  0.9132  0.0817  0.4537
 2271TIP3   OH228227   2.170   3.325  16.279  0.9371 -0.1897  0.0764
 2271TIP3    H128228   2.211   3.262  16.337  0.2484 -1.1753 -0.5001
 2271TIP3    H228229   2.095   3.358  16.328 -0.0916 -1.5905 -0.5486
 2272TIP3   OH228230   4.530   4.427   1.551 -0.3336 -0.2494 -0.1639
 2272TIP3    H128231   4.444   4.456   1.521 -0.7498  0.0606  1.2717
 2272TIP3    H228232   4.540   4.469   1.637  2.5687  2.2632 -1.6466
 2273TIP3   OH228233   2.778   1.315  16.035 -0.2656  0.1715 -0.3478
 2273TIP3    H128234   2.870   1.324  16.010 -0.4799  0.4026 -1.0807
 2273TIP3    H228235   2.733   1.301  15.951 -1.0550  1.3569 -0.1180
 2274TIP3   OH228236   0.637   5.411  15.589  0.5682  0.1178 -0.3652
 2274TIP3    H128237   0.635   5.380  15.498 -1.2255  1.0123 -0.6490
 2274TIP3    H228238   0.715   5.369  15.626 -0.8507 -3.5156 -1.1811
 2275TIP3   OH228239   1.815   1.672  16.241  0.0930 -0.1180  1.0112
 2275TIP3    H128240   1.892   1.727  16.257 -1.2727  1.8451  1.0170
 2275TIP3    H228241   1.803   1.623  16.322 -0.2228  1.5666  2.0245
 2276TIP3   OH228242   4.463   6.622  13.899  0.4841 -0.3208  0.3265
 2276TIP3    H128243   4.414   6.550  13.858 -1.3037  0.6187  0.7647
 2276TIP3    H228244   4.470   6.596  13.991  1.4786 -0.8015  0.1199
 2277TIP3   OH228245   5.352   6.470  11.396  0.6853  0.7381 -0.1341
 2277TIP3    H128246   5.378   6.380  11.376  1.5895  1.1641 -0.8833
 2277TIP3    H228247   5.434   6.519  11.398  0.2917  1.3689  1.2106
 2278TIP3   OH228248   6.360   1.782   1.369 -0.0138 -0.4076  0.4323
 2278TIP3    H128249   6.290   1.814   1.426 -1.8269 -1.3351 -1.2068
 2278TIP3    H228250   6.440   1.817   1.407 -1.4674  1.7006  1.6739
 2279TIP3   OH228251   4.305   1.470  16.181  0.1394  0.2258  0.4594
 2279TIP3    H128252   4.324   1.391  16.232 -1.3985 -0.2537  0.3082
 2279TIP3    H228253   4.224   1.450  16.135  0.7253  1.2007 -1.0472
 2280TIP3   OH228254   1.136   2.063  14.048  0.3643 -0.1084 -0.9091
 2280TIP3    H128255   1.189   2.133  14.011 -0.4385  0.2708 -1.3464
 2280TIP3    H228256   1.045   2.092  14.038  0.0481 -0.9177 -0.5166
 2281TIP3   OH228257   6.371   5.490  16.385  0.1193 -0.0014  0.0547
 2281TIP3    H128258   6.304   5.457  16.326  1.8511 -2.9591 -0.3695
 2281TIP3    H228259   6.451   5.492  16.332  0.5903  2.6157  0.7960
 2282TIP3   OH228260   4.717   6.291   5.139 -0.5078  0.1236  0.5954
 2282TIP3    H128261   4.751   6.369   5.182 -0.0103  0.8619 -1.0891
 2282TIP3    H228262   4.791   6.230   5.137 -0.7854 -0.2449  1.5678
 2283TIP3   OH228263   2.360   1.854   1.063  0.0032 -0.4166 -0.2994
 2283TIP3    H128264   2.283   1.911   1.064  0.8878  0.7690  0.7111
 2283TIP3    H228265   2.391   1.853   1.153  2.2950  0.6656 -1.0297
 2284TIP3   OH228266   3.521   2.806  11.300  0.6520 -0.5037  0.2551
 2284TIP3    H128267   3.434   2.828  11.334  0.7635 -2.0519  1.6393
 2284TIP3    H228268   3.506   2.788  11.207 -0.4019 -0.1446  0.3415
 2285TIP3   OH228269   5.743   1.179   1.078 -0.1329  0.4581 -0.5527
 2285TIP3    H128270   5.833   1.149   1.064 -0.4615 -0.4975 -0.6836
 2285TIP3    H228271   5.707   1.186   0.989 -1.5680 -3.5518 -0.3937
 2286TIP3   OH228272   4.093   4.181  11.183 -0.0987 -0.3571 -0.1038
 2286TIP3    H128273   4.139   4.218  11.108 -1.1476 -0.5982 -0.8702
 2286TIP3    H228274   4.041   4.253  11.219  0.1548 -0.3245  0.2062
 2287TIP3   OH228275   1.124   2.163  12.132  0.5048 -0.1197  0.0334
 2287TIP3    H128276   1.066   2.187  12.060 -1.5740 -1.5755  1.1796
 2287TIP3    H228277   1.084   2.204  12.209  1.8209  0.0883  0.6166
 2288TIP3   OH228278   2.725   0.021  16.749  0.3646 -0.2126 -0.4024
 2288TIP3    H128279   2.728  -0.064  16.706 -2.1545  0.0226 -1.1500
 2288TIP3    H228280   2.636   0.027  16.785  0.6440  1.8977  0.0234
 2289TIP3   OH228281   2.225   2.576  16.225  0.3291 -0.0531 -0.5249
 2289TIP3    H128282   2.175   2.556  16.146  0.3975 -1.5939 -0.2037
 2289TIP3    H228283   2.168   2.635  16.275 -1.9155 -2.9618  0.5501
 2290TIP3   OH228284   1.776   1.361   5.802  0.2775  0.0291 -0.0046
 2290TIP3    H128285   1.742   1.313   5.878 -0.2288  0.5819  0.1193
 2290TIP3    H228286   1.871   1.348   5.806  0.5913  2.6094  2.5115
 2291TIP3   OH228287   0.722   3.611  15.655  0.1198  0.1133 -0.1988
 2291TIP3    H128288   0.684   3.551  15.591 -1.0532  1.9512 -1.2753
 2291TIP3    H228289   0.759   3.682  15.603  1.6339  0.2616  1.0426
 2292TIP3   OH228290   4.910   4.320   5.006  0.4220  0.0349  0.1099
 2292TIP3    H128291   4.833   4.264   5.009  0.9665 -0.6654  1.3215
 2292TIP3    H228292   4.880   4.405   5.040  0.1064 -0.1494  0.2875
 2293TIP3   OH228293   4.002   4.387   3.461 -0.3174 -0.5528 -0.5747
 2293TIP3    H128294   4.019   4.336   3.382  4.6092  0.6292 -0.3952
 2293TIP3    H228295   3.985   4.476   3.429 -0.4551 -0.5210 -0.4161
 2294TIP3   OH228296   0.479   1.372   3.405  0.3324 -0.3368  0.4803
 2294TIP3    H128297   0.441   1.299   3.356  1.3755 -0.8608  0.4296
 2294TIP3    H228298   0.518   1.428   3.338 -3.5064  2.1475  0.1897
 2295TIP3   OH228299   6.754   6.023   6.461 -0.2324  0.0069  0.0543
 2295TIP3    H128300   6.707   5.974   6.394  1.1787 -2.1879  0.6366
 2295TIP3    H228301   6.685   6.054   6.520 -1.1629 -0.9837 -0.4928
 2296TIP3   OH228302   2.199   0.326   0.659  0.3429 -0.2931  0.0575
 2296TIP3    H128303   2.259   0.254   0.641 -0.0956 -0.2172 -1.8727
 2296TIP3    H228304   2.116   0.299   0.618 -0.6578  0.0403  1.8183
 2297TIP3   OH228305   2.466   0.521  15.537 -0.2377 -0.5795  0.1733
 2297TIP3    H128306   2.515   0.573  15.601  0.1570 -1.0229  0.2316
 2297TIP3    H228307   2.533   0.483  15.481 -0.5908 -0.1463 -0.5382
 2298TIP3   OH228308   2.906   0.067   5.199  0.3409  0.1860  0.5800
 2298TIP3    H128309   2.912   0.158   5.169 -2.6552  0.0296 -0.7721
 2298TIP3    H228310   2.973   0.020   5.149  0.7449  1.3622  0.0086
 2299TIP3   OH228311   5.285   0.780   5.853  0.1832  0.3274  0.2544
 2299TIP3    H128312   5.321   0.805   5.938  0.7076 -0.6868  0.3451
 2299TIP3    H228313   5.312   0.850   5.794  2.8866 -0.7108  0.1839
 2300TIP3   OH228314   1.272   5.017  14.517  0.4450  0.0488  0.4401
 2300TIP3    H128315   1.222   4.936  14.512 -1.3418  1.1939 -0.8613
 2300TIP3    H228316   1.220   5.073  14.575  1.0945  0.6656  0.4276
 2301TIP3   OH228317   4.070   5.206  11.892 -0.0488  0.0585  0.4491
 2301TIP3    H128318   4.028   5.121  11.879  0.7636 -0.5574  1.7823
 2301TIP3    H228319   4.158   5.195  11.856  0.0090  0.3690  0.4942
 2302TIP3   OH228320   5.440   1.164  13.131  0.5021  0.7542 -0.0739
 2302TIP3    H128321   5.358   1.119  13.153  0.2084  2.3304  2.2707
 2302TIP3    H228322   5.430   1.252  13.167  2.5061  1.5551 -1.3849
 2303TIP3   OH228323   6.761   0.012   1.086 -0.2323 -0.3038  0.3251
 2303TIP3    H128324   6.826   0.078   1.111 -0.3730  0.0418 -0.2167
 2303TIP3    H228325   6.706   0.055   1.021 -1.2968 -0.4402  1.1005
 2304TIP3   OH228326   0.126   6.618  12.138 -0.5322  0.1615  0.1606
 2304TIP3    H128327   0.155   6.678  12.207  0.7656  0.5744 -0.7308
 2304TIP3    H228328   0.046   6.657  12.104 -0.2325  0.8775  0.2635
 2305TIP3   OH228329   0.568   0.147   4.328 -0.1863 -0.0790  0.4358
 2305TIP3    H128330   0.619   0.196   4.262 -0.4091 -1.4749 -0.7916
 2305TIP3    H228331   0.631   0.131   4.398  0.2029  0.9831  0.3441
 2306TIP3   OH228332   6.305   3.978   3.138  0.6757  0.7399 -0.3547
 2306TIP3    H128333   6.260   4.062   3.132  0.6524  0.7392 -0.1929
 2306TIP3    H228334   6.242   3.915   3.103  0.6501  0.7751 -0.3712
 2307TIP3   OH228335   0.541   0.781  10.849  0.3903 -0.4666 -0.0012
 2307TIP3    H128336   0.625   0.775  10.804  0.6467 -2.0465  0.6497
 2307TIP3    H228337   0.562   0.818  10.935  0.2137  0.4870 -0.3681
 2308TIP3   OH228338   3.374   3.849  15.189  0.2636 -0.0282 -0.1098
 2308TIP3    H128339   3.400   3.912  15.257  0.0761  1.1865 -1.1495
 2308TIP3    H228340   3.456   3.812  15.158  0.4843  0.9273 -0.6611
 2309TIP3   OH228341   5.176   2.184   5.420 -0.1007 -0.4561 -0.0511
 2309TIP3    H128342   5.122   2.199   5.498  0.1348  1.2761 -0.2183
 2309TIP3    H228343   5.181   2.088   5.413 -1.5107 -0.6310  1.0980
 2310TIP3   OH228344   0.054   3.622  11.149  0.4520 -0.1501 -0.2716
 2310TIP3    H128345   0.071   3.677  11.073 -1.6669 -0.3223 -0.9192
 2310TIP3    H228346  -0.017   3.564  11.121 -0.2840 -0.2938  1.7885
 2311TIP3   OH228347   2.147   2.811  12.633  0.8487 -0.0100  0.2098
 2311TIP3    H128348   2.071   2.755  12.646 -1.3179  2.8287  0.3886
 2311TIP3    H228349   2.202   2.795  12.709 -0.9558 -0.0241  1.5413
 2312TIP3   OH228350   3.851   4.236   2.651  0.3425 -0.6349 -0.0680
 2312TIP3    H128351   3.892   4.152   2.674  0.2560 -1.0221 -1.2752
 2312TIP3    H228352   3.880   4.253   2.561  1.2707  1.1938  0.5580
 2313TIP3   OH228353   0.249   3.647   5.408  0.6198  0.2002  0.7801
 2313TIP3    H128354   0.182   3.643   5.476 -1.3346 -2.8267 -1.1972
 2313TIP3    H228355   0.260   3.556   5.380  1.9376  1.2531 -2.3792
 2314TIP3   OH228356   3.144   1.407  11.991 -0.3540  0.1520  0.1665
 2314TIP3    H128357   3.089   1.454  12.054  1.5301  0.3882  1.6812
 2314TIP3    H228358   3.232   1.439  12.008  0.3778 -0.8761 -1.6315
 2315TIP3   OH228359   3.506   2.280   0.881 -0.0949  0.0438 -1.0123
 2315TIP3    H128360   3.521   2.186   0.868 -0.2189  0.0637 -1.2972
 2315TIP3    H228361   3.577   2.322   0.832  1.9752  0.0336  1.8712
 2316TIP3   OH228362   0.337   5.919  11.535  0.0254  0.7770 -0.2232
 2316TIP3    H128363   0.255   5.870  11.533 -0.4628  1.5865 -0.5852
 2316TIP3    H228364   0.403   5.856  11.508 -0.8483  0.7614 -2.5180
 2317TIP3   OH228365   1.343   0.182   5.176 -0.7130  0.3022 -0.1889
 2317TIP3    H128366   1.269   0.120   5.174  0.2520 -0.8479 -3.2994
 2317TIP3    H228367   1.304   0.267   5.157 -1.3169 -0.2366 -1.4150
 2318TIP3   OH228368   4.010   4.368   1.713 -0.0736  0.3436 -0.7114
 2318TIP3    H128369   3.950   4.352   1.786 -0.3731  0.9908 -0.8199
 2318TIP3    H228370   4.078   4.424   1.750  0.7327 -0.7637 -0.4614
 2319TIP3   OH228371   1.476   3.326   3.448  0.5137 -0.2925  0.2021
 2319TIP3    H128372   1.475   3.246   3.501  1.9687  0.0574  0.7475
 2319TIP3    H228373   1.460   3.397   3.510 -2.5484 -0.2726 -0.5289
 2320TIP3   OH228374   0.296   3.306   4.671 -0.2096 -0.2022  0.7626
 2320TIP3    H128375   0.266   3.347   4.590  1.3055  0.0628  0.3131
 2320TIP3    H228376   0.273   3.369   4.739  0.7590  0.7515  0.2333
 2321TIP3   OH228377   4.821   0.865  12.375  0.3361  0.2284 -0.2350
 2321TIP3    H128378   4.809   0.960  12.375 -2.1805 -0.0675 -1.0595
 2321TIP3    H228379   4.762   0.833  12.443 -0.2401 -0.9236 -1.2677
 2322TIP3   OH228380   5.451   1.767   4.143 -0.4831  0.4913  0.1192
 2322TIP3    H128381   5.490   1.809   4.067 -1.2693  0.8197 -0.1067
 2322TIP3    H228382   5.482   1.818   4.218  0.3718  0.1082  0.0344
 2323TIP3   OH228383   5.133   5.661   0.813  0.3263 -0.4021  0.2798
 2323TIP3    H128384   5.124   5.601   0.887  0.2269  0.4664  0.9748
 2323TIP3    H228385   5.225   5.655   0.788  1.0052  1.3404  2.2304
 2324TIP3   OH228386   0.106   2.832   4.253  0.0557 -0.1357  0.4974
 2324TIP3    H128387   0.200   2.820   4.239 -0.1879 -2.3225  0.5642
 2324TIP3    H228388   0.080   2.757   4.307 -1.8822 -0.0150 -0.2355
 2325TIP3   OH228389   6.357   0.547  16.765  0.1038  0.0866 -0.2899
 2325TIP3    H128390   6.286   0.484  16.756 -1.7032  1.8536  1.1184
 2325TIP3    H228391   6.337   0.615  16.701 -1.6542  2.5163  2.7323
 2326TIP3   OH228392   3.828   5.527  12.607  0.7073 -0.5084  0.3382
 2326TIP3    H128393   3.825   5.613  12.649  1.3124 -0.3480  0.0526
 2326TIP3    H228394   3.742   5.489  12.625  0.0445  0.5954 -0.4478
 2327TIP3   OH228395   0.865   2.029   3.193  0.4301 -0.1254  0.6759
 2327TIP3    H128396   0.836   1.951   3.146 -1.3989  1.5795 -1.1234
 2327TIP3    H228397   0.924   2.074   3.133 -0.4943  1.1412  0.6920
 2328TIP3   OH228398   5.257   0.775   1.861 -0.4039 -0.2424  0.5226
 2328TIP3    H128399   5.253   0.689   1.903  2.5588 -1.4906 -1.6427
 2328TIP3    H228400   5.349   0.798   1.863 -1.2685  3.4759  2.0576
 2329TIP3   OH228401   4.968   1.795  13.876  0.0099  0.2268 -0.1147
 2329TIP3    H128402   5.053   1.767  13.841 -1.0432 -0.7294 -2.0030
 2329TIP3    H228403   4.942   1.867  13.819 -0.2611  0.7714  0.7036
 2330TIP3   OH228404   4.972   5.950   2.065 -0.0479 -0.3525  0.5401
 2330TIP3    H128405   4.983   5.855   2.069  0.9038 -0.2792 -0.2373
 2330TIP3    H228406   4.956   5.969   1.973  0.9559  0.3603  0.5046
 2331TIP3   OH228407   6.092   0.464  13.858 -0.3147  0.0639  0.1888
 2331TIP3    H128408   6.148   0.433  13.929  1.6780  1.1421 -0.8251
 2331TIP3    H228409   6.088   0.559  13.871  1.3877  0.4960 -1.9515
 2332TIP3   OH228410   0.886   4.771   4.190 -0.3888  0.2263  0.3814
 2332TIP3    H128411   0.955   4.747   4.251 -1.2410 -1.2007  0.8367
 2332TIP3    H228412   0.919   4.744   4.104 -1.0543 -2.1185  0.8079
 2333TIP3   OH228413   4.212   1.190   0.816 -0.4361  0.1891 -0.1086
 2333TIP3    H128414   4.253   1.269   0.851 -1.0002  1.0840 -1.4262
 2333TIP3    H228415   4.147   1.223   0.753 -2.2074 -1.2460  0.9376
 2334TIP3   OH228416   1.827   6.472   3.961  0.8994 -0.3975  0.0427
 2334TIP3    H128417   1.917   6.456   3.989  1.2173  0.9208 -0.2213
 2334TIP3    H228418   1.819   6.423   3.879  1.8646  0.7052 -0.7394
 2335TIP3   OH228419   1.370   6.626  17.070 -0.4410  0.2029  0.1706
 2335TIP3    H128420   1.312   6.701  17.080  0.7809  0.8786  2.5538
 2335TIP3    H228421   1.398   6.629  16.979 -1.1482  2.0952 -0.0053
 2336TIP3   OH228422   2.510   2.334  14.959 -0.6293 -0.6857 -0.1797
 2336TIP3    H128423   2.493   2.365  15.048 -0.4347 -1.8282  0.2624
 2336TIP3    H228424   2.445   2.379  14.905  0.5386  1.5790  0.2290
 2337TIP3   OH228425   1.868   5.604  11.860 -0.0992  0.4828 -0.2925
 2337TIP3    H128426   1.801   5.651  11.809  0.0838  2.1586  0.9613
 2337TIP3    H228427   1.836   5.607  11.950  1.3791  0.7837  0.2270
 2338TIP3   OH228428   5.638   0.361  14.893  0.3578 -0.2860 -0.2358
 2338TIP3    H128429   5.557   0.387  14.936 -0.5805 -0.6532 -1.7414
 2338TIP3    H228430   5.644   0.267  14.910  1.2126 -0.0173  1.0529
 2339TIP3   OH228431   5.919   5.641  12.712  0.0821 -0.6409 -0.3630
 2339TIP3    H128432   5.892   5.726  12.677  0.8109 -0.2057  0.1365
 2339TIP3    H228433   5.837   5.592  12.721 -0.3245 -0.0454 -0.7811
 2340TIP3   OH228434   4.277   4.865  15.290 -0.5401 -0.3376 -0.1652
 2340TIP3    H128435   4.234   4.946  15.265  1.5173  0.9054  0.1838
 2340TIP3    H228436   4.305   4.879  15.380  0.6883 -1.0481 -0.4134
 2341TIP3   OH228437   2.164   2.430  15.446  0.1431 -0.4131 -0.7992
 2341TIP3    H128438   2.190   2.506  15.394 -0.1558 -0.4549 -1.0130
 2341TIP3    H228439   2.237   2.369  15.438  0.8957  0.3152  0.3149
 2342TIP3   OH228440   2.580   0.360   1.001  0.3550  0.4481 -0.3227
 2342TIP3    H128441   2.500   0.322   0.964  0.8966 -0.3808 -0.6607
 2342TIP3    H228442   2.556   0.388   1.089  0.1248 -1.3282  0.1986
 2343TIP3   OH228443   3.310   3.968  16.596  0.1121  0.0798  0.0974
 2343TIP3    H128444   3.256   3.979  16.674 -0.6559  0.4037 -0.4685
 2343TIP3    H228445   3.247   3.954  16.525  0.7515  0.8284 -0.6358
 2344TIP3   OH228446   1.741   1.568  12.201 -0.1286 -0.5095  0.6599
 2344TIP3    H128447   1.715   1.657  12.222 -0.3492 -0.6342  0.9183
 2344TIP3    H228448   1.714   1.516  12.277  5.2830  0.1110  3.2717
 2345TIP3   OH228449   3.255   5.830  15.257 -0.3415  0.3252 -0.4334
 2345TIP3    H128450   3.211   5.914  15.264 -0.2826  0.2257  1.3005
 2345TIP3    H228451   3.307   5.836  15.177  0.4381  2.3090  0.1910
 2346TIP3   OH228452   4.755   5.895  11.587  0.4193 -0.4888 -0.1778
 2346TIP3    H128453   4.721   5.961  11.527  0.0196 -0.2677  0.2882
 2346TIP3    H228454   4.741   5.812  11.541 -0.5435 -0.3804 -0.0959
 2347TIP3   OH228455   2.921   5.112   2.721  0.0073 -0.4428  0.2675
 2347TIP3    H128456   2.900   5.027   2.682 -2.1691  0.7440 -1.2276
 2347TIP3    H228457   2.890   5.105   2.811  0.9738 -1.6496  0.5187
 2348TIP3   OH228458   0.965   2.618  15.412 -0.8439  0.5939  0.2958
 2348TIP3    H128459   0.932   2.581  15.494  0.5018 -1.4196 -0.0391
 2348TIP3    H228460   1.052   2.651  15.434 -0.3414 -0.2456 -0.3668
 2349TIP3   OH228461   4.201   1.921   0.770  0.1659  0.0226 -0.0573
 2349TIP3    H128462   4.293   1.919   0.796  0.0811  1.2670  0.3801
 2349TIP3    H228463   4.166   1.837   0.799  1.1005 -0.3457  0.0209
 2350TIP3   OH228464   2.078   6.565   4.869 -0.2548 -0.1260  0.2350
 2350TIP3    H128465   2.036   6.635   4.919 -2.3591  0.2960 -2.0071
 2350TIP3    H228466   2.033   6.566   4.784  3.1318 -0.8630 -1.6656
 2351TIP3   OH228467   3.873   0.200   5.112 -0.0904 -0.7053  0.2477
 2351TIP3    H128468   3.926   0.233   5.185  1.5374 -2.9470  0.1564
 2351TIP3    H228469   3.863   0.106   5.131 -0.1738 -1.1897 -2.0636
 2352TIP3   OH228470   3.849   2.674  13.820 -0.1447 -0.3977  0.5048
 2352TIP3    H128471   3.827   2.725  13.898  0.8909  0.9845 -0.0963
 2352TIP3    H228472   3.804   2.718  13.748  1.3965  0.1691 -0.1342
 2353TIP3   OH228473   0.996   2.509  16.152 -0.1793 -0.0149  0.6843
 2353TIP3    H128474   1.013   2.478  16.241  1.2887 -0.9005  0.1151
 2353TIP3    H228475   1.076   2.488  16.104 -1.4744 -0.7848 -1.1811
 2354TIP3   OH228476   0.674   6.261   4.002  0.0127 -0.0806  0.4015
 2354TIP3    H128477   0.595   6.305   4.033 -1.3737 -1.7320 -0.7172
 2354TIP3    H228478   0.710   6.218   4.080 -0.8157 -0.2707  0.6763
 2355TIP3   OH228479   1.494   6.393  12.431  0.2564 -0.1047 -0.4546
 2355TIP3    H128480   1.440   6.359  12.360  0.7851 -0.9323 -0.4613
 2355TIP3    H228481   1.436   6.454  12.478 -0.2091  0.1559 -1.3624
 2356TIP3   OH228482   3.943   3.247   3.601 -0.2951  0.2309  0.3252
 2356TIP3    H128483   3.902   3.161   3.588 -0.5057  0.0333  2.0916
 2356TIP3    H228484   4.020   3.246   3.545  0.3409 -1.5645  1.1821
 2357TIP3   OH228485   6.675   5.797  10.904  0.2047  0.4808 -0.5286
 2357TIP3    H128486   6.629   5.726  10.861 -1.8566  1.5701 -0.1813
 2357TIP3    H228487   6.702   5.855  10.833 -1.3866  1.2259 -0.5480
 2358TIP3   OH228488   2.382   0.626   3.140  0.3690  0.0585  0.4157
 2358TIP3    H128489   2.322   0.553   3.127 -0.7860  0.9524  0.5675
 2358TIP3    H228490   2.385   0.637   3.235 -0.2295  0.8174  0.3523
 2359TIP3   OH228491   5.145   0.576  15.030  0.5207  0.7952  0.2046
 2359TIP3    H128492   5.083   0.597  14.960 -0.9723 -0.2725  1.1866
 2359TIP3    H228493   5.142   0.651  15.089  0.8590  1.1406 -0.2061
 2360TIP3   OH228494   6.714   3.751   4.725  0.5741 -0.1673 -0.0730
 2360TIP3    H128495   6.729   3.771   4.633  1.0579 -0.9456 -0.1735
 2360TIP3    H228496   6.625   3.714   4.727 -0.3856  2.1225  0.1470
 2361TIP3   OH228497   1.072   1.728   1.946  0.1377 -0.3288  0.2874
 2361TIP3    H128498   1.040   1.817   1.936  1.1073  0.4039  3.1991
 2361TIP3    H228499   1.015   1.689   2.012  1.7381 -0.7865  1.4354
 2362TIP3   OH228500   5.859   4.286  15.397  0.4271  0.2841  0.0488
 2362TIP3    H128501   5.852   4.214  15.459 -1.6917  0.7557  0.3827
 2362TIP3    H228502   5.947   4.276  15.359  0.5442 -1.8675  0.7991
 2363TIP3   OH228503   3.985   3.353  14.891  0.0255 -0.0028  0.0015
 2363TIP3    H128504   4.012   3.321  14.805  1.8414  0.1210  0.4977
 2363TIP3    H228505   4.064   3.348  14.944 -1.3612 -1.2812  2.0430
 2364TIP3   OH228506   3.301   2.470  11.216  0.7252  0.0423  0.0293
 2364TIP3    H128507   3.378   2.413  11.215 -0.3837 -1.4908 -0.1444
 2364TIP3    H228508   3.329   2.550  11.172  1.4851 -1.4828 -2.3248
 2365TIP3   OH228509   0.921   0.269   0.514  0.1812 -0.8220  0.2444
 2365TIP3    H128510   0.857   0.245   0.581  2.2103 -2.8851  1.5053
 2365TIP3    H228511   0.997   0.298   0.563  2.2628 -3.8251 -1.0843
 2366TIP3   OH228512   3.781   2.939   1.232 -0.2779  0.2862 -0.3549
 2366TIP3    H128513   3.706   2.996   1.253 -0.4718 -0.2207  0.3376
 2366TIP3    H228514   3.857   2.996   1.240 -0.4543  0.4000  0.5374
 2367TIP3   OH228515   2.059   3.431   1.567  0.3421 -0.0280 -0.1467
 2367TIP3    H128516   1.978   3.458   1.524 -1.5250 -1.0812  2.5548
 2367TIP3    H228517   2.069   3.339   1.542  0.3343 -0.0909  0.0864
 2368TIP3   OH228518   0.334   5.420   3.621 -0.3709 -0.2158 -0.3409
 2368TIP3    H128519   0.281   5.492   3.657 -1.5627 -1.4260  0.3570
 2368TIP3    H228520   0.304   5.342   3.667  1.5139 -1.0536 -0.4769
 2369TIP3   OH228521   0.816   2.250   2.031  0.1805 -0.1372 -0.1532
 2369TIP3    H128522   0.730   2.245   1.991  0.5127 -0.1412 -0.8843
 2369TIP3    H228523   0.866   2.308   1.973  1.0567 -1.1794 -0.4604
 2370TIP3   OH228524   3.315   4.344   4.409 -0.3712  0.3671  0.6374
 2370TIP3    H128525   3.281   4.305   4.328  1.9492  2.3482 -1.3729
 2370TIP3    H228526   3.348   4.269   4.459  1.8821 -0.5837 -2.1102
 2371TIP3   OH228527   6.166   6.066   2.843  0.6417  0.9811  0.4720
 2371TIP3    H128528   6.133   6.021   2.765 -0.7584  1.6586  0.6635
 2371TIP3    H228529   6.245   6.017   2.868 -0.4272 -0.8828  0.2230
 2372TIP3   OH228530   1.896   2.244  13.959  0.2579  0.0727 -0.0878
 2372TIP3    H128531   1.905   2.161  13.912 -0.1832  1.0327 -1.8849
 2372TIP3    H228532   1.944   2.230  14.041 -0.0697 -2.0518 -0.2371
 2373TIP3   OH228533   0.760   4.233   1.136 -0.0539  0.3268 -0.2351
 2373TIP3    H128534   0.759   4.235   1.040 -0.2372 -0.3550 -0.2454
 2373TIP3    H228535   0.852   4.218   1.158 -0.5247 -3.0337 -0.3714
 2374TIP3   OH228536   4.873   4.155  12.273 -0.4677 -0.2449 -0.2963
 2374TIP3    H128537   4.963   4.169  12.305 -0.5682  0.5270 -0.3333
 2374TIP3    H228538   4.819   4.159  12.352 -0.4182 -1.2866 -0.2001
 2375TIP3   OH228539   3.904   4.897  13.305  0.2689  0.0779  0.1376
 2375TIP3    H128540   3.828   4.899  13.247  0.5964  2.5831 -0.2547
 2375TIP3    H228541   3.967   4.956  13.264  1.4660 -0.0489  1.7525
 2376TIP3   OH228542   0.126   1.187  14.786  0.4795 -0.3353  0.1250
 2376TIP3    H128543   0.084   1.232  14.713 -0.5654  0.3537  1.1235
 2376TIP3    H228544   0.059   1.128  14.820  0.5628  0.1748  1.2239
 2377TIP3   OH228545   1.963   6.598  16.886  0.1988  0.0413 -0.0790
 2377TIP3    H128546   1.991   6.562  16.802  0.9344  1.3552 -0.4146
 2377TIP3    H228547   1.978   6.692  16.878  0.3852  0.1715  1.5620
 2378TIP3   OH228548   3.459   6.713   4.317  0.2230  0.0344 -0.3016
 2378TIP3    H128549   3.383   6.771   4.308 -0.9641 -1.2835  0.9207
 2378TIP3    H228550   3.424   6.626   4.302  1.5485 -0.5647  0.0384
 2379TIP3   OH228551   2.760   0.292   0.781  0.2016 -0.1352 -0.2457
 2379TIP3    H128552   2.828   0.295   0.848 -0.8888 -0.7372  0.9252
 2379TIP3    H228553   2.697   0.359   0.808 -1.1016 -1.5548  0.3102
 2380TIP3   OH228554   0.215   6.667  15.071 -0.3877 -0.2697  0.6534
 2380TIP3    H128555   0.268   6.731  15.023 -1.5217 -0.4247 -0.8225
 2380TIP3    H228556   0.127   6.705  15.074 -0.8939 -1.4109  0.4399
 2381TIP3   OH228557   3.533   4.249   1.850  0.0530 -0.8126  0.4473
 2381TIP3    H128558   3.556   4.218   1.937 -0.0242 -0.2906  0.6564
 2381TIP3    H228559   3.439   4.265   1.854  0.2488  0.3362  0.6231
 2382TIP3   OH228560   2.470   5.524  15.630  0.1181  0.1055 -0.4162
 2382TIP3    H128561   2.415   5.580  15.577 -0.2331 -0.0277 -0.1912
 2382TIP3    H228562   2.457   5.436  15.594  2.3942  0.4594 -2.2411
 2383TIP3   OH228563   2.616   2.828   2.624 -0.7883 -0.1990  0.0844
 2383TIP3    H128564   2.691   2.865   2.671 -0.6885  0.5853 -0.6756
 2383TIP3    H228565   2.625   2.734   2.635 -0.0236 -0.0819  0.5074
 2384TIP3   OH228566   3.002   2.945   1.241 -0.7833  0.3328  0.1982
 2384TIP3    H128567   2.998   2.850   1.242 -2.4224  0.3922  1.3345
 2384TIP3    H228568   3.006   2.970   1.333  1.4507  1.3247 -0.1252
 2385TIP3   OH228569   2.455   0.166  16.376  0.2604 -0.7105  0.2668
 2385TIP3    H128570   2.509   0.212  16.311  0.4066 -1.2693 -0.0104
 2385TIP3    H228571   2.496   0.080  16.385  1.2849 -0.0449  2.3962
 2386TIP3   OH228572   4.283   4.166   2.434  0.0351 -0.3564 -0.4252
 2386TIP3    H128573   4.317   4.237   2.380  1.5887 -1.1947 -0.5769
 2386TIP3    H228574   4.241   4.210   2.508 -0.2737  0.7395 -1.2390
 2387TIP3   OH228575   0.792   3.620   2.057 -0.4576  0.2742 -0.0162
 2387TIP3    H128576   0.710   3.639   2.010 -0.2010 -0.9532 -0.9788
 2387TIP3    H228577   0.830   3.706   2.075 -0.2826  0.7591 -2.5734
 2388TIP3   OH228578   6.594   5.847  15.459 -0.2536 -0.0623 -0.2427
 2388TIP3    H128579   6.637   5.782  15.515  0.9452  0.0655 -1.0025
 2388TIP3    H228580   6.534   5.796  15.405  0.5946 -0.5264 -0.7514
 2389TIP3   OH228581   5.416   5.997  13.856  0.0683 -0.2524 -0.0105
 2389TIP3    H128582   5.398   6.058  13.784  0.8139 -0.1196 -0.0843
 2389TIP3    H228583   5.330   5.959  13.876 -0.2646  0.2248 -0.5019
 2390TIP3   OH228584   5.016   1.978  11.738  0.0745 -0.7644  0.5262
 2390TIP3    H128585   4.979   2.061  11.769  1.1558 -0.7074  1.7342
 2390TIP3    H228586   5.109   1.996  11.727 -0.0196 -1.2666 -1.2097
 2391TIP3   OH228587   5.405   2.460   3.561 -0.3940  0.2159  0.2713
 2391TIP3    H128588   5.496   2.486   3.574 -0.0948 -0.0564 -1.1735
 2391TIP3    H228589   5.371   2.446   3.650  0.9593  0.3396  0.8234
 2392TIP3   OH228590   0.037   6.264  14.591  0.2729 -0.1095  0.5907
 2392TIP3    H128591   0.125   6.296  14.610  0.6146 -0.8417  0.2479
 2392TIP3    H228592   0.006   6.228  14.674  0.7575 -0.9356  0.4137
 2393TIP3   OH228593   4.206   2.890   4.646  0.0783 -0.2671  0.1340
 2393TIP3    H128594   4.133   2.931   4.601 -0.0759 -1.5514 -0.7978
 2393TIP3    H228595   4.171   2.865   4.731 -0.3574 -0.1978 -0.0235
 2394TIP3   OH228596   0.922   6.344   1.957 -0.0636 -0.3149  0.3902
 2394TIP3    H128597   0.964   6.267   1.917  1.0684  0.0921  0.7870
 2394TIP3    H228598   0.833   6.343   1.922  0.0440 -1.6229  0.1318
 2395TIP3   OH228599   2.767   3.710  11.288  0.3688  0.2476 -0.2611
 2395TIP3    H128600   2.676   3.723  11.262 -0.1586 -1.3489  0.7587
 2395TIP3    H228601   2.795   3.631  11.242  0.8990  0.1170  0.2731
 2396TIP3   OH228602   0.132   3.701  14.704 -0.3360  0.1969 -0.1890
 2396TIP3    H128603   0.226   3.693  14.687 -0.0620  0.2147  1.2529
 2396TIP3    H228604   0.094   3.722  14.618  1.0955  1.2832 -0.5820
 2397TIP3   OH228605   1.987   2.584  12.634  0.7229  0.0679 -0.4185
 2397TIP3    H128606   2.022   2.572  12.545 -0.1782 -0.5579 -0.6980
 2397TIP3    H228607   2.001   2.500  12.677  2.1478  0.6969  0.4062
 2398TIP3   OH228608   1.544   5.589  15.363  0.4193  1.0760 -0.5217
 2398TIP3    H128609   1.485   5.530  15.315  0.8243  1.3293 -1.3533
 2398TIP3    H228610   1.621   5.536  15.382  0.3588  1.0435 -0.3723
 2399TIP3   OH228611   4.448   1.298   3.624  0.3797 -0.1149  0.2214
 2399TIP3    H128612   4.514   1.325   3.560  0.7512 -1.1927  0.1492
 2399TIP3    H228613   4.465   1.353   3.700  0.5602  0.4857 -0.2452
 2400TIP3   OH228614   4.893   4.731   0.242 -0.6348  0.4159 -0.4441
 2400TIP3    H128615   4.843   4.807   0.213  0.6306  1.2329 -0.5415
 2400TIP3    H228616   4.904   4.677   0.164 -0.4899  0.7271 -0.6357
 2401TIP3   OH228617   5.941   0.093   5.858  0.2033 -0.2937  0.1298
 2401TIP3    H128618   5.953   0.137   5.774  0.1056 -1.7695 -0.6653
 2401TIP3    H228619   6.019   0.038   5.867  0.8691  0.8279  1.6384
 2402TIP3   OH228620   4.644   2.163   5.882  0.1483  0.0535 -0.0955
 2402TIP3    H128621   4.732   2.135   5.908  0.9527 -0.3969 -3.1940
 2402TIP3    H228622   4.595   2.081   5.872  0.3056  0.1342 -1.5601
 2403TIP3   OH228623   3.898   2.933  13.451 -0.2050  0.2001 -0.2954
 2403TIP3    H128624   3.886   2.869  13.381  1.1807  0.6628 -0.9830
 2403TIP3    H228625   3.875   3.017  13.411  1.6942  0.6209 -0.5756
 2404TIP3   OH228626   1.700   2.038   1.428 -0.1262 -0.1331 -0.0973
 2404TIP3    H128627   1.663   1.949   1.427  0.8481 -0.5419 -0.3957
 2404TIP3    H228628   1.786   2.027   1.468  0.4665  0.4883 -1.1856
 2405TIP3   OH228629   4.582   5.475  11.595  0.7978  0.0336  0.9603
 2405TIP3    H128630   4.522   5.464  11.669 -0.3740 -0.2303 -0.0076
 2405TIP3    H228631   4.655   5.417  11.615 -0.9405 -2.4083  0.4449
 2406TIP3   OH228632   1.955   0.970  16.795  0.2436  0.0228  0.3097
 2406TIP3    H128633   2.032   0.990  16.848 -0.3423 -1.5805  1.8180
 2406TIP3    H228634   1.884   0.959  16.858 -1.3738  2.0475 -1.1030
 2407TIP3   OH228635   4.175   6.746  15.405  0.1889 -0.2011  0.0868
 2407TIP3    H128636   4.249   6.786  15.450 -0.9666  2.2464 -0.1116
 2407TIP3    H228637   4.100   6.800  15.430 -1.4370 -2.2476 -0.2261
 2408TIP3   OH228638   3.203   3.655  12.170  0.2166  0.2061  0.1835
 2408TIP3    H128639   3.123   3.616  12.204  1.4672 -2.1354  0.5539
 2408TIP3    H228640   3.243   3.699  12.245 -0.1783  0.4200  0.2641
 2409TIP3   OH228641   1.775   0.766   3.567  0.1221 -0.0501  0.1651
 2409TIP3    H128642   1.718   0.830   3.524 -0.1167  0.6735  1.5104
 2409TIP3    H228643   1.858   0.813   3.579  0.1243 -0.1660  0.6432
 2410TIP3   OH228644   2.569   6.758   4.803 -0.1097  0.0953 -0.0619
 2410TIP3    H128645   2.506   6.809   4.753 -1.5959 -1.5193  0.1146
 2410TIP3    H228646   2.523   6.677   4.825  0.6929  0.4755  3.4096
 2411TIP3   OH228647   4.748   5.678  16.785 -0.2154  0.3818 -0.3948
 2411TIP3    H128648   4.666   5.635  16.760 -0.8356  0.7685  0.9051
 2411TIP3    H228649   4.798   5.610  16.831 -0.8798  0.8274  1.0055
 2412TIP3   OH228650   0.612   2.706   0.338 -0.2025 -0.6474  0.4124
 2412TIP3    H128651   0.612   2.678   0.246 -1.1166 -0.0268  0.2203
 2412TIP3    H228652   0.662   2.638   0.383  0.6127 -0.7467 -0.6085
 2413TIP3   OH228653   1.140   1.636  14.080  0.3913 -0.8154 -0.4302
 2413TIP3    H128654   1.205   1.566  14.074  1.7955  0.2565  1.6036
 2413TIP3    H228655   1.186   1.715  14.054 -0.3187 -0.1664  0.2410
 2414TIP3   OH228656   0.812   2.558   2.642 -0.7756  0.1427 -0.3308
 2414TIP3    H128657   0.886   2.498   2.655  0.2918  1.5085  0.1539
 2414TIP3    H228658   0.851   2.645   2.653 -2.3333  0.9084 -0.7856
 2415TIP3   OH228659   0.318   4.872   4.535 -0.1079  0.3976  0.7218
 2415TIP3    H128660   0.328   4.901   4.444 -2.1316 -0.6752  0.1409
 2415TIP3    H228661   0.405   4.886   4.574  1.1866 -0.4861 -1.7497
 2416TIP3   OH228662   5.232   6.370  12.055 -0.3975 -0.4381 -1.0175
 2416TIP3    H128663   5.276   6.433  11.998 -1.8218 -0.1677 -1.8668
 2416TIP3    H228664   5.295   6.351  12.124  0.4715  1.0540 -1.3815
 2417TIP3   OH228665   2.521   4.408   0.213 -0.6131  0.1513 -0.4353
 2417TIP3    H128666   2.607   4.391   0.174  0.1012 -0.1771  1.2318
 2417TIP3    H228667   2.484   4.321   0.230 -0.8416  0.2917 -0.2104
 2418TIP3   OH228668   3.621   3.440  11.207 -0.1075 -0.4423  0.5865
 2418TIP3    H128669   3.690   3.505  11.219 -0.2833 -0.0716 -0.4232
 2418TIP3    H228670   3.564   3.476  11.139 -1.0088 -0.9830  1.0313
 2419TIP3   OH228671   0.527   2.149   5.655 -0.3161  0.1850 -0.1817
 2419TIP3    H128672   0.504   2.209   5.585  0.2503 -0.8393 -1.2651
 2419TIP3    H228673   0.461   2.079   5.649 -0.3479  0.1638  0.3888
 2420TIP3   OH228674   2.684   5.242  14.348  0.1594  0.4567  0.1406
 2420TIP3    H128675   2.670   5.336  14.347 -0.4621  0.3649 -0.9199
 2420TIP3    H228676   2.679   5.216  14.256 -1.9337 -0.9212  0.5989
 2421TIP3   OH228677   2.917   1.437  13.761 -0.3799  0.1527  0.2740
 2421TIP3    H128678   2.935   1.527  13.789  1.2814  0.3476 -1.3475
 2421TIP3    H228679   2.842   1.444  13.702 -0.3870  0.4284  0.3169
 2422TIP3   OH228680   5.045   6.298  13.526  0.6902 -0.4477 -0.2641
 2422TIP3    H128681   5.085   6.282  13.612  0.3730  2.5136  0.4902
 2422TIP3    H228682   4.960   6.255  13.530  0.4925  0.0512  1.0793
 2423TIP3   OH228683   2.121   1.177   6.086 -0.4296 -0.4824 -0.1742
 2423TIP3    H128684   2.029   1.184   6.113 -0.8204  0.3711 -1.6493
 2423TIP3    H228685   2.137   1.257   6.036  0.4759 -1.6309 -1.7808
 2424TIP3   OH228686   4.292   4.697   3.186  0.4531 -0.3406 -0.2984
 2424TIP3    H128687   4.205   4.681   3.151  0.5474 -1.5420 -0.0152
 2424TIP3    H228688   4.278   4.712   3.280  0.5094 -0.2168 -0.3110
 2425TIP3   OH228689   0.550   1.154  14.086  0.4645 -0.5366 -0.2938
 2425TIP3    H128690   0.556   1.066  14.122  0.3854  1.1219  4.0978
 2425TIP3    H228691   0.640   1.187  14.088 -0.0217  0.7944  1.8811
 2426TIP3   OH228692   1.727   5.638   1.733 -0.1474 -0.0237 -0.8303
 2426TIP3    H128693   1.719   5.546   1.758  0.8635  0.4624  1.4463
 2426TIP3    H228694   1.637   5.667   1.719 -0.5680 -1.0163 -0.2506
 2427TIP3   OH228695   0.029   6.209   5.596  0.1558  0.4845  0.3228
 2427TIP3    H128696   0.034   6.199   5.501  0.0765  2.4806  0.0775
 2427TIP3    H228697  -0.044   6.153   5.623  0.8860 -0.9504 -0.6338
 2428TIP3   OH228698   6.182   5.214  15.036  0.2245  0.0976 -0.2294
 2428TIP3    H128699   6.231   5.236  14.957  0.1990 -1.5247 -0.7182
 2428TIP3    H228700   6.249   5.178  15.096 -0.1757 -1.0894 -0.4869
 2429TIP3   OH228701   6.769   1.652  16.211 -0.3730  0.3654 -0.0924
 2429TIP3    H128702   6.686   1.655  16.162 -0.2517  0.5882 -0.2865
 2429TIP3    H228703   6.824   1.592  16.161 -0.1471  0.8201 -0.3907
 2430TIP3   OH228704   4.599   5.423  15.865 -1.0117 -0.0771  0.1375
 2430TIP3    H128705   4.581   5.370  15.787 -0.2297 -1.3868  0.8249
 2430TIP3    H228706   4.683   5.390  15.898 -1.1449  0.7165  1.3214
 2431TIP3   OH228707   2.061   2.783  13.990 -0.2764  0.1296  0.5456
 2431TIP3    H128708   1.986   2.778  13.931  0.3292  0.8274 -0.2937
 2431TIP3    H228709   2.131   2.736  13.944  0.2704  0.9003  0.5819
 2432TIP3   OH228710   0.453   3.958   5.856 -0.2125  0.5047 -0.4565
 2432TIP3    H128711   0.546   3.966   5.877 -0.6953  2.5993  0.9864
 2432TIP3    H228712   0.449   3.967   5.761  0.7421  3.8353 -0.2252
 2433TIP3   OH228713   3.656   3.213  13.222  0.1167 -0.0662 -0.6109
 2433TIP3    H128714   3.659   3.306  13.242  0.1886  0.0447 -1.1370
 2433TIP3    H228715   3.634   3.171  13.305 -1.7792  0.5499 -0.7988
 2434TIP3   OH228716   1.286   3.216   2.398  0.1941  0.2438 -0.5437
 2434TIP3    H128717   1.354   3.283   2.406  0.9983 -0.6970  0.6209
 2434TIP3    H228718   1.237   3.221   2.480  1.1627 -1.5435  0.1713
 2435TIP3   OH228719   4.598   0.369   3.114  0.3085 -0.3986 -0.0814
 2435TIP3    H128720   4.518   0.384   3.064  0.9409 -0.0526 -1.0032
 2435TIP3    H228721   4.656   0.441   3.089  1.7736 -1.9534 -1.2396
 2436TIP3   OH228722   6.164   0.469   4.607  0.2861  0.2946 -0.4770
 2436TIP3    H128723   6.135   0.384   4.640 -0.1506  0.8745  0.6320
 2436TIP3    H228724   6.260   0.463   4.608  0.2630  0.0144  0.0991
 2437TIP3   OH228725   1.313   0.342   6.006 -0.0723 -0.9143 -0.3051
 2437TIP3    H128726   1.243   0.284   6.038 -0.8885 -0.2541 -0.8538
 2437TIP3    H228727   1.370   0.354   6.081 -2.9298  2.0993  1.5184
 2438TIP3   OH228728   1.551   6.204   1.028 -0.1428 -0.5595  0.2195
 2438TIP3    H128729   1.471   6.219   0.977 -0.2536 -2.4624 -0.1965
 2438TIP3    H228730   1.521   6.164   1.109  0.2143  0.6903  0.9804
 2439TIP3   OH228731   2.978   0.307   1.439 -0.2485 -0.1922  0.1383
 2439TIP3    H128732   2.984   0.240   1.507  0.6184  1.1405  1.3917
 2439TIP3    H228733   3.060   0.300   1.391  0.0448  0.3043  0.5725
 2440TIP3   OH228734   5.559   3.349   5.840  0.7550 -0.6998 -0.8739
 2440TIP3    H128735   5.493   3.417   5.827  2.6890  1.6926  1.4324
 2440TIP3    H228736   5.511   3.277   5.883 -0.6551  0.4398 -0.5088
 2441TIP3   OH228737   1.444   2.083   2.266 -0.2518 -0.4106  0.3530
 2441TIP3    H128738   1.404   2.072   2.353 -2.2297  0.2356 -0.4556
 2441TIP3    H228739   1.388   2.033   2.207  1.4060 -1.3232 -0.5118
 2442TIP3   OH228740   0.042   5.836  16.588  0.4722 -0.6868 -0.2595
 2442TIP3    H128741   0.098   5.771  16.630  1.3362 -0.5826 -1.2372
 2442TIP3    H228742  -0.039   5.834  16.639  0.3792 -2.7185 -0.4391
 2443TIP3   OH228743   3.236   2.223   0.469  0.0849  1.0089  0.0624
 2443TIP3    H128744   3.231   2.127   0.467  0.4661  0.9462  1.5105
 2443TIP3    H228745   3.162   2.252   0.416  0.4270 -0.0900 -1.0377
 2444TIP3   OH228746   2.110   1.844  12.356  0.1504 -0.2656 -0.0796
 2444TIP3    H128747   2.074   1.901  12.287 -1.5687 -0.6917  0.4396
 2444TIP3    H228748   2.091   1.755  12.325 -0.8527 -0.4544  1.0434
 2445TIP3   OH228749   0.657   4.609  13.828  0.6944  0.3029  0.3095
 2445TIP3    H128750   0.698   4.571  13.750  1.2409  0.8403  0.3328
 2445TIP3    H228751   0.575   4.560  13.838  1.5013 -1.0461  0.4789
 2446TIP3   OH228752   1.913   1.620   0.581  0.6529  0.1481  0.2034
 2446TIP3    H128753   1.912   1.654   0.670 -0.4631 -0.3970  0.4053
 2446TIP3    H228754   1.940   1.529   0.590  0.2048 -0.0066  0.0304
 2447TIP3   OH228755   3.761   2.174  14.323  0.3243  0.1561 -0.1042
 2447TIP3    H128756   3.700   2.202  14.391  0.0217  0.4267 -0.4844
 2447TIP3    H228757   3.793   2.089  14.353 -0.1306  0.0772  0.1679
 2448TIP3   OH228758   3.773   6.138  15.349 -0.2935  0.0620 -0.2631
 2448TIP3    H128759   3.846   6.107  15.294 -0.3238  0.1999 -0.3824
 2448TIP3    H228760   3.695   6.101  15.307 -0.2750 -0.2791 -0.0036
 2449TIP3   OH228761   4.780   3.778  16.025 -0.6845 -0.5589 -0.4405
 2449TIP3    H128762   4.713   3.847  16.018  0.1913  0.4173  0.5573
 2449TIP3    H228763   4.779   3.755  16.118 -0.0043 -0.9097 -0.5246
 2450TIP3   OH228764   2.616   6.704   2.121  0.0168  0.0259 -0.0300
 2450TIP3    H128765   2.687   6.767   2.105 -0.2230  0.4612  0.5529
 2450TIP3    H228766   2.545   6.733   2.063 -0.1284  0.3642  0.3083
 2451TIP3   OH228767   2.691   5.227  10.732  0.0742 -0.4676  0.1616
 2451TIP3    H128768   2.749   5.236  10.657  0.1396  0.2029  0.2913
 2451TIP3    H228769   2.637   5.150  10.711 -0.5759  0.2908 -1.0243
 2452TIP3   OH228770   0.199   4.826  14.371 -0.6106  0.1131 -0.2236
 2452TIP3    H128771   0.123   4.791  14.324 -0.6572  1.4864 -1.1941
 2452TIP3    H228772   0.214   4.912  14.332  1.7981 -0.3614 -0.3970
 2453TIP3   OH228773   6.408   0.913   1.965  0.0732 -0.1339  0.0186
 2453TIP3    H128774   6.366   0.861   1.897 -2.8583  0.7767  1.0344
 2453TIP3    H228775   6.372   0.879   2.047  1.4466  0.6056  0.9469
 2454TIP3   OH228776   2.472   3.063  16.913 -0.1055 -0.2060  0.0346
 2454TIP3    H128777   2.530   2.987  16.913 -0.7322 -0.6882  0.2089
 2454TIP3    H228778   2.384   3.026  16.913 -0.4142  0.5217  0.0854
 2455TIP3   OH228779   2.081   1.173  15.012  0.3318  0.2549 -0.2237
 2455TIP3    H128780   2.110   1.221  14.934 -0.6252 -1.3950 -1.6489
 2455TIP3    H228781   2.012   1.227  15.050  1.1986  1.3493 -0.1819
 2456TIP3   OH228782   0.256   0.455   1.266 -0.1294  0.2776  0.0322
 2456TIP3    H128783   0.212   0.371   1.273  1.5196 -0.6480 -0.5409
 2456TIP3    H228784   0.297   0.468   1.352 -0.2934  0.4548  0.0847
 2457TIP3   OH228785   3.843   6.303   6.037 -0.3661 -0.3301 -0.2091
 2457TIP3    H128786   3.825   6.396   6.047 -0.9978 -0.3621 -1.0617
 2457TIP3    H228787   3.770   6.259   6.081 -0.1873 -0.4259 -0.0062
 2458TIP3   OH228788   5.275   3.134  12.918 -0.7688  0.3487 -0.2573
 2458TIP3    H128789   5.260   3.205  12.981 -0.2039  0.7423 -0.5664
 2458TIP3    H228790   5.369   3.135  12.902 -0.7790 -0.3838 -0.3684
 2459TIP3   OH228791   3.593   2.213  11.625  1.1939  0.1396 -0.1851
 2459TIP3    H128792   3.524   2.277  11.608  0.8267 -0.5675 -1.3462
 2459TIP3    H228793   3.648   2.255  11.691 -1.8674 -0.3711  2.8428
 2460TIP3   OH228794   5.050   4.707   1.630  0.0343 -0.0741 -0.0821
 2460TIP3    H128795   5.095   4.772   1.684 -0.1063  1.1965 -1.4442
 2460TIP3    H228796   4.958   4.731   1.634  0.2785  1.6343 -2.8785
 2461TIP3   OH228797   4.995   1.424   1.265  0.2059  0.1683  0.6405
 2461TIP3    H128798   5.081   1.392   1.238 -0.2903 -0.8594  0.2528
 2461TIP3    H228799   4.956   1.351   1.314 -0.6632  0.4087  0.3294
 2462TIP3   OH228800   2.988   0.959   0.816 -0.4423  0.0176  0.4447
 2462TIP3    H128801   2.991   1.037   0.872 -0.2935 -0.1154  0.6176
 2462TIP3    H228802   2.964   0.994   0.729  2.1139  0.5874 -0.0882
 2463TIP3   OH228803   5.265   3.303   5.206  0.2284  0.3790 -0.4260
 2463TIP3    H128804   5.232   3.320   5.118 -3.9610 -0.6315  0.7887
 2463TIP3    H228805   5.214   3.361   5.262 -0.3762 -2.0773  1.7148
 2464TIP3   OH228806   2.476   4.928  14.097 -0.1504  0.3725 -0.2903
 2464TIP3    H128807   2.541   4.900  14.161 -0.3479  1.0380  0.2175
 2464TIP3    H228808   2.394   4.934  14.148 -0.3325  0.7878 -0.6296
 2465TIP3   OH228809   5.978   1.870  15.205 -0.1541 -0.4496 -0.8829
 2465TIP3    H128810   5.951   1.872  15.297  1.1276  0.7026 -0.4985
 2465TIP3    H228811   6.049   1.806  15.203 -0.1771 -0.4671 -1.0589
 2466TIP3   OH228812   4.720   4.710   1.884  0.4457 -0.2895 -0.1933
 2466TIP3    H128813   4.755   4.799   1.894  0.2926 -0.1308 -1.0074
 2466TIP3    H228814   4.710   4.678   1.973  3.8219 -0.7891  0.0687
 2467TIP3   OH228815   0.495   3.663  16.370  0.5617 -0.1140  0.3815
 2467TIP3    H128816   0.427   3.730  16.365  0.0061 -0.5995  1.3355
 2467TIP3    H228817   0.577   3.712  16.370  0.2700  0.4330 -1.8210
 2468TIP3   OH228818   3.832   3.588   6.154 -0.0756 -0.4045  0.3038
 2468TIP3    H128819   3.771   3.517   6.134 -1.1164 -0.1095  2.2296
 2468TIP3    H228820   3.776   3.658   6.187  1.2951 -0.1868  2.3033
 2469TIP3   OH228821   2.202   5.260   4.267 -0.8686  0.3542 -0.0231
 2469TIP3    H128822   2.282   5.237   4.221 -0.1420  0.5847  1.1089
 2469TIP3    H228823   2.229   5.271   4.359 -1.9406  1.6647  0.1588
 2470TIP3   OH228824   5.941   0.868   0.914  0.1650 -0.0566  0.4357
 2470TIP3    H128825   5.850   0.845   0.933  0.4624  0.1524  2.1398
 2470TIP3    H228826   5.963   0.936   0.978  2.1153 -1.4598  1.2766
 2471TIP3   OH228827   4.655   6.175  16.992  0.2419  0.3804 -0.5050
 2471TIP3    H128828   4.714   6.193  16.919  1.1530  1.0064  0.3853
 2471TIP3    H228829   4.709   6.183  17.070 -1.0590  1.1686  0.3347
 2472TIP3   OH228830   2.215   0.837   4.415 -0.1344 -0.0769  0.0248
 2472TIP3    H128831   2.144   0.827   4.351 -0.1919 -2.6494  0.4019
 2472TIP3    H228832   2.293   0.805   4.370  0.1785 -0.1794  0.6252
 2473TIP3   OH228833   3.551   2.919  13.872  0.0634 -0.0589  0.1660
 2473TIP3    H128834   3.512   3.006  13.885 -0.4254 -0.5525  2.2595
 2473TIP3    H228835   3.603   2.928  13.792 -1.8467  1.4929 -0.9537
 2474TIP3   OH228836   4.253   2.125  11.645 -0.1461  0.1562 -1.0554
 2474TIP3    H128837   4.345   2.139  11.622  0.1252  0.8475  0.4019
 2474TIP3    H228838   4.206   2.133  11.562  0.7969  2.6955 -1.3674
 2475TIP3   OH228839   2.780   1.462   0.696  0.4719 -0.0072 -0.4533
 2475TIP3    H128840   2.829   1.469   0.778  0.4901  0.2693 -0.4881
 2475TIP3    H228841   2.846   1.443   0.630  0.3043 -1.5148 -0.2041
 2476TIP3   OH228842   3.610   2.101   6.251 -0.3329  0.5131 -0.4322
 2476TIP3    H128843   3.607   2.056   6.336  0.4037 -0.1939 -0.7733
 2476TIP3    H228844   3.527   2.079   6.209 -0.2978  0.0900 -0.2791
 2477TIP3   OH228845   5.723   0.643  14.541 -0.1331 -0.1435 -0.2578
 2477TIP3    H128846   5.720   0.738  14.554 -2.4714 -0.3665  1.1861
 2477TIP3    H228847   5.632   0.618  14.527  0.2907 -2.3324  0.6325
 2478TIP3   OH228848   1.461   2.319  14.862  0.1320 -0.3851 -0.3247
 2478TIP3    H128849   1.524   2.255  14.830  0.2057 -1.4284  1.7882
 2478TIP3    H228850   1.375   2.281  14.840  0.1105 -2.3506  2.8192
 2479TIP3   OH228851   3.182   5.804  11.731 -0.2325 -0.1128 -0.2028
 2479TIP3    H128852   3.200   5.761  11.815  1.5954 -1.0474 -1.0334
 2479TIP3    H228853   3.143   5.735  11.677  0.6413 -0.1419 -0.8162
 2480TIP3   OH228854   0.238   0.170  16.217  0.3083  0.2609 -0.1066
 2480TIP3    H128855   0.283   0.141  16.297 -0.6617  1.3176  0.8414
 2480TIP3    H228856   0.147   0.181  16.243 -0.7987 -2.8781 -2.2733
 2481TIP3   OH228857   1.430   2.930   0.647 -0.5082  0.0145 -0.0906
 2481TIP3    H128858   1.430   2.884   0.563  0.1202 -1.7597  0.8511
 2481TIP3    H228859   1.494   2.882   0.700  1.0086  2.6784  0.5593
 2482TIP3   OH228860   2.909   0.957   5.749  0.2429 -0.2625 -0.3990
 2482TIP3    H128861   2.860   0.909   5.682  1.3277 -1.3658 -0.4163
 2482TIP3    H228862   2.952   0.889   5.801  0.7169  0.6446  0.4062
 2483TIP3   OH228863   5.682   3.396  15.138 -0.4637  0.1231 -0.2755
 2483TIP3    H128864   5.675   3.460  15.209  1.9648  0.1855 -0.0441
 2483TIP3    H228865   5.744   3.435  15.077 -0.3941 -1.1851 -1.0584
 2484TIP3   OH228866   3.234   4.439   3.825  0.1852  0.1443  0.4397
 2484TIP3    H128867   3.266   4.372   3.766  1.8323  0.4829  0.9220
 2484TIP3    H228868   3.185   4.390   3.892  0.4830 -0.4657  0.2167
 2485TIP3   OH228869   2.262   6.727  14.676 -0.1473  0.1114 -0.1571
 2485TIP3    H128870   2.328   6.751  14.741 -0.3778 -0.1803  0.1886
 2485TIP3    H228871   2.276   6.633  14.661 -0.4768  0.0494 -0.0871
 2486TIP3   OH228872   1.820   5.841  12.282  0.0713 -0.2487  0.8829
 2486TIP3    H128873   1.811   5.892  12.363 -0.8698 -0.9374  1.2284
 2486TIP3    H228874   1.764   5.764  12.296 -1.0293  0.1975 -0.8840
 2487TIP3   OH228875   5.085   5.593   3.342 -0.1351 -0.5325 -0.0092
 2487TIP3    H128876   5.154   5.603   3.276 -0.9327  0.3987 -0.7208
 2487TIP3    H228877   5.087   5.675   3.391  2.0012 -2.1145  2.6707
 2488TIP3   OH228878   5.564   5.257   0.096 -0.4069 -0.2643  0.1197
 2488TIP3    H128879   5.568   5.163   0.077  2.5825 -0.4510  1.3579
 2488TIP3    H228880   5.616   5.298   0.028 -0.3456  0.3214  0.5160
 2489TIP3   OH228881   3.970   0.296   0.484 -0.1393  0.2835 -0.1044
 2489TIP3    H128882   4.064   0.288   0.464 -0.0234  3.4193 -0.9827
 2489TIP3    H228883   3.966   0.303   0.580  0.3027 -2.1461  0.1239
 2490TIP3   OH228884   4.551   0.479   4.129 -0.0190 -0.1432 -0.1042
 2490TIP3    H128885   4.464   0.507   4.102  0.4502 -0.4677 -1.9962
 2490TIP3    H228886   4.608   0.553   4.106  0.1329  0.3354  1.7126
 2491TIP3   OH228887   5.719   4.285   5.643 -0.1677 -1.2631  0.0098
 2491TIP3    H128888   5.731   4.193   5.667  0.2702 -0.9356  1.0864
 2491TIP3    H228889   5.692   4.328   5.724 -1.1704 -0.5790 -0.6727
 2492TIP3   OH228890   0.035   4.674  15.172 -0.0375 -0.3060 -0.2853
 2492TIP3    H128891   0.025   4.726  15.092  0.2064  2.4195  1.3796
 2492TIP3    H228892   0.063   4.738  15.238 -0.5277 -2.4456  2.0484
 2493TIP3   OH228893   0.866   2.404  15.910 -0.2137  0.3585 -0.0294
 2493TIP3    H128894   0.908   2.436  15.990  0.7459  0.2974 -0.4928
 2493TIP3    H228895   0.779   2.377  15.937  0.8359 -1.6634  1.4022
 2494TIP3   OH228896   3.652   1.110   4.364 -0.4252 -0.4447 -0.3008
 2494TIP3    H128897   3.576   1.157   4.398 -1.0232 -2.6545  1.5145
 2494TIP3    H228898   3.728   1.159   4.398 -1.0339 -0.0772  0.5340
 2495TIP3   OH228899   5.142   6.178   4.537 -0.0743  0.0496 -0.3173
 2495TIP3    H128900   5.110   6.265   4.513  0.0265 -0.1755 -1.2921
 2495TIP3    H228901   5.237   6.188   4.541 -0.1532  0.3229  0.9612
 2496TIP3   OH228902   1.474   0.081   6.620 -0.3208  0.6131  0.0451
 2496TIP3    H128903   1.408   0.128   6.569  0.2247  0.1372 -1.1265
 2496TIP3    H228904   1.511   0.147   6.679 -1.0224  1.1530 -0.1171
 2497TIP3   OH228905   2.586   3.505   2.042 -0.1207 -0.2095  0.7001
 2497TIP3    H128906   2.576   3.581   1.985  1.2599 -0.0296  0.6671
 2497TIP3    H228907   2.571   3.538   2.130 -0.3092 -0.0685  0.6140
 2498TIP3   OH228908   1.230   1.834  13.921  0.0356 -0.1949 -0.2400
 2498TIP3    H128909   1.187   1.913  13.954 -0.4306  0.7654 -2.9385
 2498TIP3    H228910   1.187   1.819  13.836  1.7948 -1.9532 -0.8366
 2499TIP3   OH228911   6.759   6.107  12.826 -0.2063  0.2645  0.4964
 2499TIP3    H128912   6.727   6.035  12.881 -0.0650  0.3913  0.7419
 2499TIP3    H228913   6.680   6.148  12.791 -0.2818 -0.3979 -0.1469
 2500TIP3   OH228914   1.110   6.685  11.871 -0.4701 -0.2903  0.1798
 2500TIP3    H128915   1.039   6.705  11.932 -0.5889 -2.0421  0.6325
 2500TIP3    H228916   1.086   6.602  11.832  1.2853 -0.8604  0.2603
 2501TIP3   OH228917   1.158   5.697  12.817 -0.0185  0.5360 -0.0289
 2501TIP3    H128918   1.093   5.656  12.874 -0.8142 -0.4705 -1.6306
 2501TIP3    H228919   1.189   5.773  12.867 -0.6030 -0.3834  1.7754
 2502TIP3   OH228920   6.402   2.448   1.196 -0.2018 -0.1059  0.4872
 2502TIP3    H128921   6.399   2.500   1.116 -0.3884 -0.0828  0.5087
 2502TIP3    H228922   6.456   2.372   1.174  0.4094  0.3005  0.5751
 2503TIP3   OH228923   0.326   0.815  11.553 -0.4421  0.4594  0.0050
 2503TIP3    H128924   0.352   0.833  11.462 -0.4723  0.8711  0.0774
 2503TIP3    H228925   0.241   0.772  11.545 -0.1693 -0.0560 -0.1899
 2504TIP3   OH228926   6.532   6.456  12.446  0.7304  0.4603  0.5927
 2504TIP3    H128927   6.483   6.461  12.529  1.0491 -1.8226  0.9431
 2504TIP3    H228928   6.614   6.413  12.470  0.3725 -1.1974 -1.1133
 2505TIP3   OH228929   4.543   2.771  13.900 -0.2169  0.0251  0.1872
 2505TIP3    H128930   4.588   2.695  13.936  0.0601 -0.3457 -0.8985
 2505TIP3    H228931   4.483   2.799  13.968  1.4516  0.3591  1.5528
 2506TIP3   OH228932   4.001   1.608   3.704  0.1815 -0.2866  0.1280
 2506TIP3    H128933   3.948   1.661   3.763 -0.9362 -2.3587  1.0611
 2506TIP3    H228934   3.957   1.615   3.619  1.1237  1.7529 -0.2243
 2507TIP3   OH228935   0.138   1.934  15.385  0.4044  0.5867  0.2017
 2507TIP3    H128936   0.183   1.961  15.305  2.0584  1.7192  1.4811
 2507TIP3    H228937   0.090   2.011  15.414 -0.0839  0.2217  0.3874
 2508TIP3   OH228938   4.595   4.780  10.971  0.4168 -0.0485  0.1476
 2508TIP3    H128939   4.658   4.852  10.974  0.8872 -0.4042 -1.0164
 2508TIP3    H228940   4.631   4.718  10.907 -0.2162 -1.0973  0.7829
 2509TIP3   OH228941   4.674   6.384  11.222  0.6763 -0.8720 -0.0170
 2509TIP3    H128942   4.709   6.301  11.189  0.6716 -0.0630 -2.1743
 2509TIP3    H228943   4.751   6.440  11.232  0.4758 -0.4980 -0.5321
 2510TIP3   OH228944   3.534   5.190  13.540 -0.9883 -0.1122  0.3572
 2510TIP3    H128945   3.517   5.191  13.634 -1.8808  0.6749  0.1937
 2510TIP3    H228946   3.520   5.280  13.512 -1.2855 -0.4587 -0.6268
 2511TIP3   OH228947   4.034   6.425  17.010  0.3888  0.1044 -0.2156
 2511TIP3    H128948   4.106   6.363  17.006  1.4136  1.2354  0.4916
 2511TIP3    H228949   4.023   6.444  17.103 -0.6477  0.1440 -0.3343
 2512TIP3   OH228950   4.064   1.931   6.247  0.1569  0.4222  0.1799
 2512TIP3    H128951   3.988   1.897   6.200  0.8358 -0.3073 -0.4179
 2512TIP3    H228952   4.039   1.927   6.339 -0.5725  0.2964 -0.0216
 2513TIP3   OH228953   1.946   1.371  11.896  0.1677 -0.0605  0.3623
 2513TIP3    H128954   1.855   1.394  11.911 -0.0853 -2.6355  3.1712
 2513TIP3    H228955   1.943   1.289  11.846  0.9614 -0.2763  0.6543
 2514TIP3   OH228956   6.298   0.016  14.198 -0.7798 -0.3489  0.3727
 2514TIP3    H128957   6.345  -0.059  14.233 -1.7050 -2.0033 -1.8275
 2514TIP3    H228958   6.224   0.028  14.258  1.2492  0.9760  2.6561
 2515TIP3   OH228959   1.861   6.735  15.135  0.4638  0.1482  0.0623
 2515TIP3    H128960   1.890   6.722  15.045 -0.0293 -0.0690 -0.0681
 2515TIP3    H228961   1.770   6.703  15.136  0.9049 -1.1390  0.9579
 2516TIP3   OH228962   6.747   1.583   1.695  0.3483 -0.6014  0.0175
 2516TIP3    H128963   6.826   1.543   1.659  0.0244 -1.6775  0.4776
 2516TIP3    H228964   6.779   1.657   1.746  1.1573 -1.7399  1.1803
 2517TIP3   OH228965   5.086   1.303   1.774  0.1620 -0.0359 -0.4394
 2517TIP3    H128966   5.067   1.392   1.743 -0.5404 -0.8147 -2.3415
 2517TIP3    H228967   5.088   1.250   1.694 -0.5353 -1.9215  0.7634
 2518TIP3   OH228968   6.707   0.989  12.296 -0.0056 -0.0517  0.1113
 2518TIP3    H128969   6.719   1.075  12.256 -2.4290  0.8101  1.1404
 2518TIP3    H228970   6.743   0.997  12.384 -0.0224 -0.1624  0.1288
 2519TIP3   OH228971   2.432   3.462  16.203 -0.3105 -0.5981  0.1477
 2519TIP3    H128972   2.346   3.449  16.242  0.5644  0.2853  2.4974
 2519TIP3    H228973   2.491   3.407  16.255  1.3128  2.6586  1.9277
 2520TIP3   OH228974   2.902   4.110  16.391 -0.3465 -0.1669  0.3469
 2520TIP3    H128975   2.980   4.057  16.383  1.1429  1.7918  1.3168
 2520TIP3    H228976   2.880   4.136  16.302  0.3558 -0.3883  0.1112
 2521TIP3   OH228977   6.271   2.549  12.924 -0.4516 -0.6983 -0.0549
 2521TIP3    H128978   6.191   2.594  12.949 -0.9268 -1.5618 -0.0151
 2521TIP3    H228979   6.243   2.461  12.898  0.4549 -0.9519 -0.2054
 2522TIP3   OH228980   4.447   0.078  16.587  0.3289  0.7768  0.1301
 2522TIP3    H128981   4.473   0.061  16.496  0.2685 -2.9836  0.7140
 2522TIP3    H228982   4.528   0.074  16.636 -0.1008 -1.5447  0.7332
 2523TIP3   OH228983   0.889   0.906   6.029 -0.6881 -0.2744  0.6597
 2523TIP3    H128984   0.818   0.880   5.970  1.3646  0.2215 -2.1354
 2523TIP3    H228985   0.876   1.000   6.042 -0.0676 -0.0002 -0.5897
 2524TIP3   OH228986   1.816   4.024  16.642 -0.2935  0.2581 -0.0719
 2524TIP3    H128987   1.767   3.974  16.576  0.2049  1.8605 -1.7072
 2524TIP3    H228988   1.902   3.982  16.646 -0.4672 -0.1031 -0.1359
 2525TIP3   OH228989   4.973   4.171   2.013  0.4546  0.1922 -0.3477
 2525TIP3    H128990   4.946   4.209   2.096 -2.4180  1.5599 -1.8404
 2525TIP3    H228991   5.068   4.182   2.012  0.2511  2.7150  1.5346
 2526TIP3   OH228992   6.334   5.462   2.373  0.3325  0.0332 -0.1123
 2526TIP3    H128993   6.313   5.554   2.355  0.2958  0.0331 -0.0698
 2526TIP3    H228994   6.308   5.416   2.293  1.5762  0.2365 -0.6413
 2527TIP3   OH228995   6.671   5.116  16.298 -0.2017  0.4590 -0.0568
 2527TIP3    H128996   6.615   5.103  16.375 -2.3939  0.2251 -1.6249
 2527TIP3    H228997   6.668   5.211  16.282  1.1616  0.6551  0.7833
 2528TIP3   OH228998   0.330   5.321  16.245  0.1549 -0.0552 -0.2537
 2528TIP3    H128999   0.328   5.227  16.258  0.6395 -0.0041  0.2072
 2528TIP3    H229000   0.409   5.337  16.194 -0.4085  0.0059 -1.1035
 2529TIP3   OH229001   6.132   3.083  12.783  0.5610  0.3990 -0.6300
 2529TIP3    H129002   6.126   2.988  12.784 -0.0960  0.4271 -2.0372
 2529TIP3    H229003   6.053   3.112  12.739  1.5151  1.5314 -1.6320
 2530TIP3   OH229004   4.384   6.214  13.977  0.2074 -0.5346  0.0155
 2530TIP3    H129005   4.401   6.131  14.023  3.1912  0.0309  0.0577
 2530TIP3    H229006   4.381   6.280  14.046 -1.4214 -0.4956 -0.0867
 2531TIP3   OH229007   4.585   5.118  16.704  0.0669 -0.0965  0.0597
 2531TIP3    H129008   4.548   5.091  16.787  1.7488 -0.3022  0.7700
 2531TIP3    H229009   4.665   5.065  16.695  0.4227  0.6278 -1.2005
 2532TIP3   OH229010   6.203   0.418  11.595  0.0992 -0.8822 -0.0407
 2532TIP3    H129011   6.225   0.503  11.632 -1.0771 -1.4849  2.1159
 2532TIP3    H229012   6.119   0.431  11.552  0.0728 -0.8664  0.0143
 2533TIP3   OH229013   4.506   5.732  11.489  0.5828 -0.1379  0.3915
 2533TIP3    H129014   4.510   5.693  11.402  0.0154  0.7144 -0.0255
 2533TIP3    H229015   4.518   5.659  11.549 -1.6989 -1.1670 -0.3484
 2534TIP3   OH229016   2.152   5.096   0.351  0.4990 -0.3778  0.0660
 2534TIP3    H129017   2.240   5.081   0.318  0.3385  0.0399 -0.5795
 2534TIP3    H229018   2.129   5.184   0.320 -0.6638 -1.0197 -0.9937
 2535TIP3   OH229019   3.466   5.545  15.372 -0.2702  0.0276 -0.7041
 2535TIP3    H129020   3.502   5.560  15.459 -2.3865 -0.1899  0.2281
 2535TIP3    H229021   3.501   5.617  15.319 -1.4738  1.9684  1.0751
 2536TIP3   OH229022   2.103   1.205   4.449  0.2622  0.3872  0.0680
 2536TIP3    H129023   2.060   1.122   4.428 -0.1312  0.8141 -0.8322
 2536TIP3    H229024   2.164   1.220   4.377 -0.6807  1.5796 -0.4990
 2537TIP3   OH229025   3.006   2.350  16.993 -1.1330  0.4884  0.4933
 2537TIP3    H129026   2.959   2.373  17.073 -1.1204  2.0337  0.0707
 2537TIP3    H229027   3.051   2.269  17.014 -0.2987  1.4230  2.4031
 2538TIP3   OH229028   5.226   5.701  12.514 -0.1101  0.0461 -0.3392
 2538TIP3    H129029   5.265   5.618  12.486  0.2675 -0.0796  0.5602
 2538TIP3    H229030   5.230   5.699  12.609 -0.8859  0.7232 -0.2855
 2539TIP3   OH229031   4.038   0.334   4.878 -0.0839 -0.0757  0.3478
 2539TIP3    H129032   3.979   0.402   4.845  0.6071  0.2296 -0.2898
 2539TIP3    H229033   3.988   0.289   4.945 -1.5442 -0.6849 -1.1159
 2540TIP3   OH229034   3.839   3.739  17.155 -0.3925  0.3744 -0.1698
 2540TIP3    H129035   3.877   3.774  17.074 -2.0064 -2.4759 -2.2366
 2540TIP3    H229036   3.904   3.677  17.187 -0.7191 -0.1349 -0.4905
 2541TIP3   OH229037   2.746   4.423   0.916 -0.1665  0.1313  0.5311
 2541TIP3    H129038   2.752   4.417   0.821  0.8811 -0.3684  0.6151
 2541TIP3    H229039   2.739   4.332   0.946 -0.8408  0.3040  0.9123
 2542TIP3   OH229040   0.047   0.898   0.609  0.1313 -0.6234 -0.0154
 2542TIP3    H129041   0.096   0.821   0.581  0.6746  0.3628 -1.8495
 2542TIP3    H229042   0.114   0.964   0.626 -0.4277 -0.0228 -0.1405
 2543TIP3   OH229043   1.602   3.658  12.153  0.3415  0.0712  0.3405
 2543TIP3    H129044   1.646   3.741  12.135  0.6874  0.0410  1.0379
 2543TIP3    H229045   1.659   3.592  12.113 -0.9355  0.3032 -1.9621
 2544TIP3   OH229046   5.218   3.365   2.501 -0.1464  0.1356  0.9289
 2544TIP3    H129047   5.134   3.400   2.530 -1.6446 -1.4673 -1.3308
 2544TIP3    H229048   5.261   3.439   2.457 -0.2571  1.0253  2.3040
 2545TIP3   OH229049   1.069   0.619   1.777  0.8329  0.7685 -0.3396
 2545TIP3    H129050   1.030   0.634   1.863 -0.1159 -0.8910 -0.4577
 2545TIP3    H229051   1.018   0.673   1.718 -0.6563 -0.5861 -0.3318
 2546TIP3   OH229052   6.162   1.333  11.763  0.4559  0.3638  0.1265
 2546TIP3    H129053   6.161   1.422  11.726 -0.6119  0.0157 -0.7008
 2546TIP3    H229054   6.077   1.324  11.805  2.0929  1.1725  3.7484
 2547TIP3   OH229055   5.700   4.188  13.606  0.6999 -0.5445  0.2122
 2547TIP3    H129056   5.677   4.182  13.513  0.7901 -1.5094  0.2529
 2547TIP3    H229057   5.794   4.174  13.608  0.8075  0.1840  0.3819
 2548TIP3   OH229058   4.856   6.337  12.459 -0.2531  0.5833 -0.3142
 2548TIP3    H129059   4.893   6.368  12.542 -0.4954  0.9201 -0.3302
 2548TIP3    H229060   4.872   6.243  12.459  0.3729  0.6870 -0.2005
 2549TIP3   OH229061   6.142   5.123  16.464 -0.1044 -0.2344  0.0239
 2549TIP3    H129062   6.060   5.156  16.502  0.6094  1.8992 -0.2742
 2549TIP3    H229063   6.117   5.094  16.376 -0.7456 -0.6206  0.3224
 2550TIP3   OH229064   5.039   6.065  12.753 -0.4995  0.1649 -0.0948
 2550TIP3    H129065   5.031   5.991  12.693  1.2868 -0.9266  0.9935
 2550TIP3    H229066   4.971   6.126  12.724 -1.9103 -1.8316 -1.0725
 2551TIP3   OH229067   4.899   1.013   5.598 -0.3361  0.1496  0.7360
 2551TIP3    H129068   4.830   0.955   5.628 -1.4031  1.0268  0.0461
 2551TIP3    H229069   4.918   0.984   5.509  0.2700 -0.1691  0.9700
 2552TIP3   OH229070   0.964   5.459  16.972 -0.2807 -0.1870 -0.5753
 2552TIP3    H129071   0.914   5.394  17.020 -1.2878 -0.0010 -1.3600
 2552TIP3    H229072   0.956   5.433  16.880  0.3862  0.3038 -0.7774
 2553TIP3   OH229073   0.132   5.404  15.315  0.3155 -0.4341 -0.0293
 2553TIP3    H129074   0.147   5.488  15.358 -2.1504 -0.4380  0.9611
 2553TIP3    H229075   0.116   5.426  15.223 -0.0494  0.1818  0.1758
 2554TIP3   OH229076   6.066   3.205   0.539  0.0374 -0.1750 -0.1837
 2554TIP3    H129077   6.049   3.255   0.619  2.5953 -1.9257  1.5414
 2554TIP3    H229078   5.991   3.146   0.531 -0.0792 -0.2244  1.1368
 2555TIP3   OH229079   2.471   4.790  11.951  0.2171  0.5575 -0.1303
 2555TIP3    H129080   2.385   4.751  11.937  2.6163 -5.2863  0.0579
 2555TIP3    H229081   2.501   4.817  11.865 -0.3334 -0.9299 -0.8057
 2556TIP3   OH229082   4.100   2.135  16.917 -0.2332 -0.2148 -0.1479
 2556TIP3    H129083   4.174   2.118  16.975 -0.4990 -0.6260  0.0672
 2556TIP3    H229084   4.139   2.139  16.829  0.3758  1.7918  0.1921
 2557TIP3   OH229085   4.185   5.040  14.232 -0.0288  0.0107 -0.4510
 2557TIP3    H129086   4.275   5.041  14.199 -0.1645  0.6970 -0.8152
 2557TIP3    H229087   4.160   5.133  14.234 -0.6813 -0.1735 -0.2356
 2558TIP3   OH229088   2.155   5.379  15.643 -0.1325 -0.4177 -0.1477
 2558TIP3    H129089   2.113   5.297  15.616 -1.0650  0.2803 -0.7975
 2558TIP3    H229090   2.170   5.368  15.737 -0.6514 -1.1555 -0.1472
 2559TIP3   OH229091   5.795   0.050   1.862  0.3925 -0.1246 -0.2221
 2559TIP3    H129092   5.829  -0.039   1.864  1.3150  0.1648 -1.7486
 2559TIP3    H229093   5.777   0.066   1.769 -1.9313  0.4910  0.3039
 2560TIP3   OH229094   1.453   3.294  11.250 -0.0775 -0.7422  0.3401
 2560TIP3    H129095   1.411   3.233  11.189  0.3999 -0.6593 -0.0824
 2560TIP3    H229096   1.508   3.349  11.194  0.0418 -0.3905  0.8001
 2561TIP3   OH229097   2.185   3.100  16.659  0.0439  0.1242  0.3576
 2561TIP3    H129098   2.098   3.133  16.684 -0.7974 -0.3020 -1.8758
 2561TIP3    H229099   2.197   3.021  16.712 -1.0859  0.0048  0.4487
 2562TIP3   OH229100   3.033   1.517  14.063 -0.1094  0.0899  0.2799
 2562TIP3    H129101   2.953   1.561  14.035 -0.2906  0.1498  0.8943
 2562TIP3    H229102   3.042   1.442  14.004 -0.5424  0.1583  0.1302
 2563TIP3   OH229103   4.902   0.667  12.706 -0.2560  0.0204  0.0805
 2563TIP3    H129104   4.909   0.596  12.769  1.3721  0.0703 -0.0170
 2563TIP3    H229105   4.958   0.640  12.633 -1.2840  0.4470 -0.8766
 2564TIP3   OH229106   2.002   0.481  11.852 -0.0894  0.5309  1.2245
 2564TIP3    H129107   2.019   0.511  11.762 -0.8186 -0.3975  0.7645
 2564TIP3    H229108   2.086   0.494  11.897  0.9485 -1.0305 -0.1718
 2565TIP3   OH229109   0.102   3.130   2.171  0.1112 -0.2764  0.1813
 2565TIP3    H129110   0.178   3.131   2.112  0.3563  0.9370  0.5147
 2565TIP3    H229111   0.093   3.220   2.201 -0.5023 -0.7273  1.3850
 2566TIP3   OH229112   4.767   1.171   1.609 -0.3287  0.0028  0.1060
 2566TIP3    H129113   4.686   1.218   1.591 -0.8753 -0.5685  1.0394
 2566TIP3    H229114   4.774   1.171   1.704  0.5260 -0.3625  0.0493
 2567TIP3   OH229115   5.210   2.913  16.925 -0.2565 -0.2013  0.1167
 2567TIP3    H129116   5.145   2.935  16.991  1.5604  1.2255  1.5267
 2567TIP3    H229117   5.228   2.997  16.881  0.2349 -0.6834 -0.6134
 2568TIP3   OH229118   3.128   1.312  16.080  0.2632  1.0207 -0.0059
 2568TIP3    H129119   3.105   1.268  16.162 -0.4542  0.3290 -0.5775
 2568TIP3    H229120   3.185   1.250  16.035 -0.8128  0.6471 -0.8509
 2569TIP3   OH229121   5.795   3.476   3.650 -0.0334 -0.7657  0.5119
 2569TIP3    H129122   5.865   3.448   3.709 -0.2216 -2.3939 -0.0021
 2569TIP3    H229123   5.717   3.481   3.705  0.2565 -0.0324  0.8605
 2570TIP3   OH229124   1.120   1.670  14.847  0.0881 -0.2272 -0.4944
 2570TIP3    H129125   1.193   1.702  14.794  2.5566 -1.6273  1.9440
 2570TIP3    H229126   1.085   1.595  14.798  1.8272 -1.0129 -0.5646
 2571TIP3   OH229127   1.652   2.064  13.560 -0.3926  0.7540 -0.1338
 2571TIP3    H129128   1.567   2.020  13.550  0.6506 -1.8063  1.6642
 2571TIP3    H229129   1.707   2.025  13.492  0.2502 -0.0179  0.8142
 2572TIP3   OH229130   0.363   0.208  12.266  0.1022  0.0090 -0.1099
 2572TIP3    H129131   0.283   0.155  12.270 -0.9714  1.6534  0.5883
 2572TIP3    H229132   0.433   0.143  12.261 -1.2167 -1.4829  0.0246
 2573TIP3   OH229133   4.675   4.144   0.891  0.6525  0.1467  0.1328
 2573TIP3    H129134   4.675   4.053   0.862 -0.5043 -0.5739  2.2834
 2573TIP3    H229135   4.592   4.179   0.859  1.7189  0.8939 -1.9191
 2574TIP3   OH229136   0.538   4.567   0.026  0.1326  0.5027 -0.6471
 2574TIP3    H129137   0.611   4.619   0.059 -0.3355  0.1730  0.9688
 2574TIP3    H229138   0.556   4.556  -0.068  1.8181  0.9563 -0.3900
 2575TIP3   OH229139   1.181   4.803   1.892  0.2852 -0.2504 -0.4416
 2575TIP3    H129140   1.218   4.887   1.917 -0.0260 -0.3208  0.2796
 2575TIP3    H229141   1.101   4.824   1.845  0.6488 -0.1261 -1.0113
 2576TIP3   OH229142   0.687   5.774  13.455  0.1938 -0.5909 -0.0445
 2576TIP3    H129143   0.733   5.787  13.538  2.0263 -2.6105 -0.6678
 2576TIP3    H229144   0.738   5.824  13.391 -0.5471  0.0399 -0.1479
 2577TIP3   OH229145   4.268   0.434  12.532 -0.3387  0.5088 -0.0117
 2577TIP3    H129146   4.201   0.426  12.464  0.2253 -0.8223 -0.4330
 2577TIP3    H229147   4.323   0.356  12.521  0.9674  1.3075  0.6603
 2578TIP3   OH229148   0.602   0.859   6.038  0.0961 -0.0935  0.0449
 2578TIP3    H129149   0.585   0.886   5.948  0.8516  2.6424  0.6818
 2578TIP3    H229150   0.532   0.899   6.089  1.3035  0.8286  1.0249
 2579TIP3   OH229151   1.295   2.532  11.470 -0.3641  0.2750 -0.6805
 2579TIP3    H129152   1.265   2.441  11.464 -2.2147  0.6589  1.9174
 2579TIP3    H229153   1.387   2.525  11.497 -1.2538 -0.8133  2.1466
 2580TIP3   OH229154   2.111   4.983   3.785  0.0564 -0.6938 -0.1324
 2580TIP3    H129155   2.163   5.040   3.729 -0.4020  0.0800  0.2167
 2580TIP3    H229156   2.044   4.947   3.727  0.7618 -1.4136 -0.5026
 2581TIP3   OH229157   2.499   1.143   6.179  0.7540 -0.3467 -0.1278
 2581TIP3    H129158   2.497   1.238   6.190  2.6542 -0.5111  1.9051
 2581TIP3    H229159   2.527   1.129   6.088 -2.7715  0.9991 -1.5325
 2582TIP3   OH229160   0.045   3.632   5.592  0.3711 -0.5539 -0.3322
 2582TIP3    H129161  -0.002   3.663   5.670  0.0879 -0.0788 -0.6918
 2582TIP3    H229162   0.028   3.538   5.590  2.1975 -0.9785  1.4352
 2583TIP3   OH229163   5.676   6.393   0.968 -0.2119 -0.0472  0.4194
 2583TIP3    H129164   5.719   6.322   0.920 -0.7935  1.0066 -1.7456
 2583TIP3    H229165   5.741   6.421   1.032  0.7082 -1.3327  0.0690
 2584TIP3   OH229166   1.605   2.099  16.075  0.0441 -1.0167 -0.1559
 2584TIP3    H129167   1.562   2.162  16.133  2.2374  0.4808 -0.1073
 2584TIP3    H229168   1.579   2.014  16.109 -0.6255 -0.1516  1.5595
 2585TIP3   OH229169   1.318   5.618   4.525 -0.1659 -0.3466  0.6495
 2585TIP3    H129170   1.232   5.577   4.533 -0.3003 -0.1790  0.1289
 2585TIP3    H229171   1.313   5.669   4.443  0.6277 -0.8265  0.2894
 2586TIP3   OH229172   4.504   2.852   3.271  0.1051  0.1849  0.0883
 2586TIP3    H129173   4.500   2.911   3.197  0.4743  0.0558 -0.0376
 2586TIP3    H229174   4.566   2.784   3.244 -0.8363 -0.6292 -0.0370
 2587TIP3   OH229175   4.492   5.770  10.722 -0.3979  0.1590  0.1492
 2587TIP3    H129176   4.525   5.714  10.652  0.6658  0.9836 -0.0236
 2587TIP3    H229177   4.550   5.846  10.721 -2.0929  1.4673  0.1090
 2588TIP3   OH229178   5.773   0.746  12.544  0.1440 -0.6239  0.3018
 2588TIP3    H129179   5.814   0.805  12.481  1.8964  0.6518  2.5281
 2588TIP3    H229180   5.690   0.787  12.567  0.5640  0.0993  0.5314
 2589TIP3   OH229181   0.163   3.008  10.345 -0.4472 -0.0714  0.2457
 2589TIP3    H129182   0.068   3.013  10.356 -0.3344  2.3597  0.4015
 2589TIP3    H229183   0.194   3.096  10.366  2.0243 -1.2690  1.8114
 2590TIP3   OH229184   3.077   2.968   6.463 -0.1355  0.5306 -0.0713
 2590TIP3    H129185   2.996   2.948   6.511  0.1428 -2.3984 -0.7219
 2590TIP3    H229186   3.062   3.055   6.426 -2.6713  0.3764  0.4720
 2591TIP3   OH229187   3.489   4.904  16.246  0.1887 -0.1392 -0.1415
 2591TIP3    H129188   3.530   4.913  16.332  0.2650  0.5727 -0.2459
 2591TIP3    H229189   3.524   4.822  16.211 -0.4079 -0.8110  0.8121
 2592TIP3   OH229190   6.786   5.493   1.360 -0.3359 -0.2500 -0.6756
 2592TIP3    H129191   6.784   5.532   1.447 -0.8482 -0.3138 -0.6613
 2592TIP3    H229192   6.876   5.461   1.350  0.8283  3.0742 -1.6123
 2593TIP3   OH229193   1.550   2.195   0.910  0.3649  0.4607 -0.1135
 2593TIP3    H129194   1.541   2.272   0.966  1.0516  0.8133 -0.4851
 2593TIP3    H229195   1.625   2.148   0.946 -2.1356 -1.9130  2.3063
 2594TIP3   OH229196   1.520   1.566   4.965  0.0123 -0.3267 -0.3392
 2594TIP3    H129197   1.616   1.564   4.961  0.0938 -0.1036  1.2065
 2594TIP3    H229198   1.493   1.477   4.940  0.5739 -0.1412 -1.6455
 2595TIP3   OH229199   6.642   3.925   3.507 -0.3208  0.3660 -0.0185
 2595TIP3    H129200   6.707   3.953   3.443  0.3340  0.0868  0.5237
 2595TIP3    H229201   6.639   3.996   3.572  0.2394 -0.1140  0.5399
 2596TIP3   OH229202   2.133   5.794   2.441 -0.0188 -0.3230 -0.3610
 2596TIP3    H129203   2.217   5.815   2.483 -0.3315 -1.0350  0.6370
 2596TIP3    H229204   2.076   5.868   2.463 -0.0518 -0.4860  0.1143
 2597TIP3   OH229205   3.983   3.966   3.760  0.0361 -0.0720  0.0052
 2597TIP3    H129206   3.926   3.939   3.687  0.0379 -1.3353  0.4658
 2597TIP3    H229207   4.051   4.019   3.718 -0.8713  0.5595 -0.6981
 2598TIP3   OH229208   1.699   5.001   1.429  0.2929  0.0126  0.3109
 2598TIP3    H129209   1.651   5.072   1.385  1.2674 -0.4979 -1.6095
 2598TIP3    H229210   1.791   5.024   1.418  0.5859 -1.0099  0.6458
 2599TIP3   OH229211   0.838   0.495  13.287  0.4692  0.6734 -0.0501
 2599TIP3    H129212   0.872   0.438  13.217 -1.4728  0.0339 -0.5131
 2599TIP3    H229213   0.804   0.572  13.240  1.0978  1.2274  0.3927
 2600TIP3   OH229214   4.232   3.920   4.201 -0.6133  0.1232 -0.2902
 2600TIP3    H129215   4.197   3.870   4.127  0.1436 -1.0963  0.1654
 2600TIP3    H229216   4.281   3.992   4.160  0.0165 -0.6948 -0.9851
 2601TIP3   OH229217   6.475   5.692   3.608 -0.4213 -0.5702  0.3318
 2601TIP3    H129218   6.398   5.645   3.641  0.1072 -2.1118 -0.5466
 2601TIP3    H229219   6.514   5.632   3.544  0.3933  1.0075 -0.6953
 2602TIP3   OH229220   5.661   3.994  14.965 -0.1800  0.6202 -0.2462
 2602TIP3    H129221   5.678   3.929  14.897  1.9018  1.7395 -0.8424
 2602TIP3    H229222   5.593   4.051  14.928  2.0508  2.1586 -2.0703
 2603TIP3   OH229223   5.877   5.699  13.162 -0.0929  0.3826  0.3471
 2603TIP3    H129224   5.879   5.790  13.130  0.7425  0.3642  0.3248
 2603TIP3    H229225   5.966   5.666  13.145  0.3860  0.3686  2.7195
 2604TIP3   OH229226   3.088   1.846   3.098 -0.4991  0.0719 -0.6468
 2604TIP3    H129227   3.086   1.777   3.165 -0.4539 -0.0159 -0.7362
 2604TIP3    H229228   3.079   1.927   3.147 -1.3719 -0.0429 -0.6040
 2605TIP3   OH229229   1.994   0.938  11.177  0.2895 -0.0281 -0.5661
 2605TIP3    H129230   1.997   0.977  11.089  0.3897 -1.0846 -1.0399
 2605TIP3    H229231   2.070   0.974  11.222  0.4294  0.2580 -1.0324
 2606TIP3   OH229232   6.050   2.577   4.233  0.3231 -0.2500  0.4172
 2606TIP3    H129233   6.116   2.510   4.250  1.1564  0.9037  1.8777
 2606TIP3    H229234   5.969   2.528   4.218  1.4881 -1.6740 -1.4092
 2607TIP3   OH229235   1.866   2.612   0.555 -0.3556 -0.0897 -0.0155
 2607TIP3    H129236   1.793   2.555   0.578 -0.2931  0.6280  2.1503
 2607TIP3    H229237   1.840   2.653   0.473 -1.1991 -1.8225 -0.6480
 2608TIP3   OH229238   2.707   2.373   0.356  0.3515 -0.4831 -0.2856
 2608TIP3    H129239   2.770   2.418   0.412 -0.0145 -1.3765  0.8460
 2608TIP3    H229240   2.691   2.289   0.399 -1.3797 -0.4028 -0.7229
 2609TIP3   OH229241   0.641   1.305   5.711 -0.1733  0.6147  1.4143
 2609TIP3    H129242   0.623   1.387   5.666 -2.7059 -1.5639 -1.8055
 2609TIP3    H229243   0.624   1.323   5.803 -2.3367  3.2457  0.5378
 2610TIP3   OH229244   2.296   1.001  13.931 -0.3222 -0.5693  0.2863
 2610TIP3    H129245   2.264   0.916  13.899 -0.5666 -0.5290  0.4245
 2610TIP3    H229246   2.350   1.034  13.859  0.0530 -0.9956  0.3693
 2611TIP3   OH229247   5.886   2.705  11.427 -0.1011 -0.5605  0.2210
 2611TIP3    H129248   5.892   2.716  11.522 -1.4177  0.9090  0.1445
 2611TIP3    H229249   5.866   2.792  11.393  0.2270 -1.0981 -1.3983
 2612TIP3   OH229250   0.077   5.898  14.684  0.0585  0.0181  0.8903
 2612TIP3    H129251   0.070   5.934  14.772 -1.2429  1.6771  0.1525
 2612TIP3    H229252   0.141   5.954  14.640 -0.2757  0.0091  0.3920
 2613TIP3   OH229253   4.824   1.448   5.035  0.3006 -0.1129 -0.0203
 2613TIP3    H129254   4.871   1.380   5.084  0.0344  0.9971  1.8258
 2613TIP3    H229255   4.742   1.406   5.008  0.1332 -0.5319  1.1132
 2614TIP3   OH229256   1.016   5.835  16.760 -0.5488 -0.2229  0.2466
 2614TIP3    H129257   0.921   5.844  16.757 -0.6693 -1.5986 -0.2032
 2614TIP3    H229258   1.040   5.803  16.673  0.3046 -0.1395  0.4418
 2615TIP3   OH229259   6.565   0.569   3.316 -0.1102  0.3077 -0.2833
 2615TIP3    H129260   6.520   0.554   3.399 -1.6369  1.6756 -0.8237
 2615TIP3    H229261   6.504   0.536   3.250  0.1970  1.0773 -0.9559
 2616TIP3   OH229262   5.963   2.433   1.963  0.3753 -0.2859  0.2353
 2616TIP3    H129263   6.033   2.498   1.973  0.4724 -0.3623  0.0685
 2616TIP3    H229264   5.969   2.407   1.871  0.2683 -0.4525  0.2765
 2617TIP3   OH229265   4.678   2.743  12.731 -0.0204  0.3457  0.1990
 2617TIP3    H129266   4.636   2.786  12.657 -0.2192 -0.2972 -0.0638
 2617TIP3    H229267   4.772   2.748  12.712 -0.0347  0.7725  0.2327
 2618TIP3   OH229268   0.841   4.115   2.496  0.2114  0.0906 -0.1142
 2618TIP3    H129269   0.828   4.124   2.402  0.8965  0.4118 -0.1821
 2618TIP3    H229270   0.882   4.197   2.523  0.3511 -0.1428  0.4021
 2619TIP3   OH229271   4.081   0.688   1.317  0.2407  0.0016 -0.0884
 2619TIP3    H129272   4.001   0.729   1.285 -0.0200  0.3997  1.0429
 2619TIP3    H229273   4.067   0.594   1.303 -0.2373  0.1073 -0.3195
 2620TIP3   OH229274   1.981   2.329  11.163 -0.9174  0.2667 -0.2069
 2620TIP3    H129275   2.040   2.393  11.204 -0.9204  1.4753 -2.0357
 2620TIP3    H229276   1.977   2.257  11.225  0.5499  1.2508  1.0632
 2621TIP3   OH229277   0.702   2.163   1.083 -0.3801  0.1552 -0.1749
 2621TIP3    H129278   0.744   2.162   0.997 -1.5271 -0.8440 -0.7421
 2621TIP3    H229279   0.701   2.255   1.109 -1.1991  0.6229 -1.8196
 2622TIP3   OH229280   5.801   3.536  13.896  0.9099  0.4017  0.3829
 2622TIP3    H129281   5.866   3.577  13.839  0.5595 -1.3312 -1.3337
 2622TIP3    H229282   5.848   3.461  13.934  0.9814  1.2471  1.9758
 2623TIP3   OH229283   3.740   4.464  15.649  0.0949 -0.7985  0.7763
 2623TIP3    H129284   3.692   4.528  15.597  0.6234 -0.3866  0.7960
 2623TIP3    H229285   3.812   4.437  15.592  1.6076  0.8321  1.8798
 2624TIP3   OH229286   4.731   2.116   6.459  0.5267  0.2091  0.2482
 2624TIP3    H129287   4.680   2.143   6.383  0.1998 -1.4862 -0.1714
 2624TIP3    H229288   4.678   2.139   6.535  0.6519  1.4960 -0.0548
 2625TIP3   OH229289   2.020   1.334  12.155 -0.3310 -0.0997 -0.1954
 2625TIP3    H129290   2.002   1.344  12.062 -0.0496 -0.4324 -0.2892
 2625TIP3    H229291   2.102   1.284  12.158  1.1450  2.2837  0.1935
 2626TIP3   OH229292   3.177   1.757   3.427 -0.0313  0.6102  0.3740
 2626TIP3    H129293   3.263   1.720   3.448 -0.8636 -1.0352  0.9972
 2626TIP3    H229294   3.123   1.735   3.504 -2.2307 -2.4424 -1.9154
 2627TIP3   OH229295   3.474   5.292   2.818  0.5521  0.3742 -0.3534
 2627TIP3    H129296   3.508   5.208   2.848  0.1599  0.8781  1.5864
 2627TIP3    H229297   3.553   5.347   2.809  0.7416  0.0053 -0.9316
 2628TIP3   OH229298   3.052   2.424  13.168  0.0340 -0.3684  0.5997
 2628TIP3    H129299   2.967   2.391  13.198 -0.9182  1.7022  0.2902
 2628TIP3    H229300   3.114   2.357  13.195 -1.6186 -1.6374  1.3951
 2629TIP3   OH229301   3.707   2.148   1.782  0.5565  0.4256  0.1286
 2629TIP3    H129302   3.669   2.154   1.694  0.0342  2.1417  0.4547
 2629TIP3    H229303   3.704   2.237   1.816  2.3797  0.1143  1.2190
 2630TIP3   OH229304   5.265   6.356  11.662  0.0340  0.1120 -0.0365
 2630TIP3    H129305   5.339   6.350  11.722  0.4899 -0.0468 -0.6090
 2630TIP3    H229306   5.303   6.393  11.582 -0.5240  0.1050 -0.3033
 2631TIP3   OH229307   5.316   3.312  15.613  0.4102 -0.1166 -0.2411
 2631TIP3    H129308   5.398   3.330  15.565  0.4873 -1.3176 -0.5901
 2631TIP3    H229309   5.248   3.313  15.546  0.1430  0.8659  0.0467
 2632TIP3   OH229310   2.570   1.737   3.481 -0.0825  0.2682 -0.3842
 2632TIP3    H129311   2.568   1.762   3.389  1.9745  1.1419 -0.2254
 2632TIP3    H229312   2.496   1.782   3.520 -0.5101  0.5111 -1.4536
 2633TIP3   OH229313   1.729   1.025  11.205 -0.3752  0.4442  0.4925
 2633TIP3    H129314   1.824   1.027  11.212 -0.3656 -0.3334  0.6641
 2633TIP3    H229315   1.712   0.962  11.135 -0.6759  2.8401 -1.6637
 2634TIP3   OH229316   4.631   4.043   0.437  0.2892  0.0227 -0.1703
 2634TIP3    H129317   4.543   4.005   0.432  0.0247  0.7510 -1.2953
 2634TIP3    H229318   4.689   3.968   0.445 -0.4370 -0.4572  0.7728
 2635TIP3   OH229319   1.877   2.566  14.249 -0.0269 -0.1886 -0.3766
 2635TIP3    H129320   1.943   2.629  14.279 -0.1439  1.1902 -2.9391
 2635TIP3    H229321   1.920   2.481  14.260  1.1899  0.5079  0.4453
 2636TIP3   OH229322   3.103   1.799   2.095  0.2264  0.1587  0.0205
 2636TIP3    H129323   3.032   1.796   2.031  1.3076 -2.2148 -1.1486
 2636TIP3    H229324   3.160   1.869   2.065  0.1634 -0.2216 -1.0048
 2637TIP3   OH229325   3.796   0.524  12.261 -0.5472 -0.1018 -0.0104
 2637TIP3    H129326   3.798   0.430  12.241  0.0399 -0.0341 -0.2887
 2637TIP3    H229327   3.887   0.552  12.250 -0.7825  0.5689 -0.2533
 2638TIP3   OH229328   2.411   4.016  15.364  0.1043 -0.2949  0.1992
 2638TIP3    H129329   2.498   4.053  15.349 -0.5578  1.0354 -0.4142
 2638TIP3    H229330   2.379   3.992  15.277 -0.1852 -0.6857  0.4110
 2639TIP3   OH229331   1.881   2.390  14.598  0.4082 -0.4871  0.1085
 2639TIP3    H129332   1.902   2.483  14.584 -0.3486 -0.1159  1.3349
 2639TIP3    H229333   1.872   2.382  14.693  1.0835 -1.9639  0.0565
 2640TIP3   OH229334   2.570   3.780  13.653  0.4638  0.0154 -0.4517
 2640TIP3    H129335   2.551   3.800  13.561 -3.8794  1.9156  0.7064
 2640TIP3    H229336   2.548   3.860  13.700  2.9604 -0.8107  2.2685
 2641TIP3   OH229337   2.684   0.917  15.750  0.3363  0.2102  0.3094
 2641TIP3    H129338   2.610   0.930  15.692  0.0972  2.4753  1.0497
 2641TIP3    H229339   2.646   0.912  15.837  1.1151  3.2322  0.8935
 2642TIP3   OH229340   1.122   2.329  13.540 -0.2012 -0.0343 -0.1640
 2642TIP3    H129341   1.190   2.291  13.484  0.4578  1.5694 -0.4663
 2642TIP3    H229342   1.041   2.315  13.491  0.1528 -0.1801 -0.7150
 2643TIP3   OH229343   1.787   5.680   4.494 -0.8279  0.1874  0.1821
 2643TIP3    H129344   1.862   5.656   4.549 -0.0043  4.3674  1.0656
 2643TIP3    H229345   1.825   5.733   4.424 -2.7552  1.0084 -0.2732
 2644TIP3   OH229346   4.239   0.982   5.506  0.0688  0.2689  0.7011
 2644TIP3    H129347   4.181   1.026   5.567 -1.2424 -0.1669 -0.1934
 2644TIP3    H229348   4.183   0.917   5.462  1.0141  0.4433 -0.8114
 2645TIP3   OH229349   3.725   1.722   4.556 -0.1745 -0.3980 -0.0107
 2645TIP3    H129350   3.669   1.645   4.544 -0.4018 -0.4492  1.3007
 2645TIP3    H229351   3.782   1.722   4.479 -1.2288 -0.9795 -0.7999
 2646TIP3   OH229352   2.187   4.388   2.599 -0.1675 -0.0160  0.5146
 2646TIP3    H129353   2.199   4.390   2.694  0.7661 -1.3477  0.4389
 2646TIP3    H229354   2.093   4.391   2.586 -0.3778 -1.5415  1.5508
 2647TIP3   OH229355   5.541   0.814   1.874 -0.4793  0.3806 -0.1511
 2647TIP3    H129356   5.631   0.817   1.843 -1.1578 -1.0510 -2.3427
 2647TIP3    H229357   5.547   0.835   1.967  2.3875 -2.2470  0.3102
 2648TIP3   OH229358   5.708   0.700   4.288  0.2013  0.3160 -0.1959
 2648TIP3    H129359   5.636   0.714   4.227 -0.3821  1.5436  0.7603
 2648TIP3    H229360   5.757   0.782   4.286 -0.0310  0.4981  1.2464
 2649TIP3   OH229361   5.270   1.289  16.912  0.0083 -0.2022 -0.0416
 2649TIP3    H129362   5.337   1.282  16.980 -0.8909  1.8214  1.0951
 2649TIP3    H229363   5.276   1.379  16.881 -0.7273 -0.6383 -1.4699
 2650TIP3   OH229364   1.349   3.691   6.384  0.1643  0.3693 -0.4500
 2650TIP3    H129365   1.414   3.735   6.330  0.0956  0.5621 -0.3772
 2650TIP3    H229366   1.344   3.602   6.349 -0.4070  0.7022 -1.2215
 2651TIP3   OH229367   1.990   4.173   3.267 -0.4286  0.0827  0.4838
 2651TIP3    H129368   1.920   4.224   3.225 -1.7934 -1.9267  0.2860
 2651TIP3    H229369   2.036   4.131   3.195  0.8783  1.2163  0.6312
 2652TIP3   OH229370   2.995   6.322  15.903  0.1342  0.3666  0.0083
 2652TIP3    H129371   2.948   6.248  15.865 -0.0306  1.3631 -1.7566
 2652TIP3    H229372   3.059   6.281  15.962  0.4319 -1.2335 -1.3654
 2653TIP3   OH229373   1.178   5.484   1.794 -0.2848  0.1516  0.7214
 2653TIP3    H129374   1.212   5.460   1.707 -0.7553 -0.0772  0.5973
 2653TIP3    H229375   1.118   5.556   1.776 -0.2210  0.2437  0.8834
 2654TIP3   OH229376   1.371   5.958   2.860 -0.7030 -0.0531 -0.1448
 2654TIP3    H129377   1.346   5.954   2.952  1.5823 -1.8985  0.4254
 2654TIP3    H229378   1.431   6.033   2.854  0.1898 -0.7355  0.1495
 2655TIP3   OH229379   3.627   5.917  14.989 -0.2121  0.5120  0.0254
 2655TIP3    H129380   3.682   5.846  15.021 -0.4644 -0.5935 -1.8859
 2655TIP3    H229381   3.633   5.985  15.056  1.3930 -0.6318  1.0695
 2656TIP3   OH229382   0.370   2.997  15.390  0.6039 -0.5213  0.4265
 2656TIP3    H129383   0.320   2.952  15.458  0.9666 -2.2909 -0.4492
 2656TIP3    H229384   0.460   3.002  15.425  0.0675  1.8619  1.6117
 2657TIP3   OH229385   0.329   4.652  14.227 -0.7582 -0.3956 -0.8768
 2657TIP3    H129386   0.287   4.715  14.284 -0.4748  0.2387 -1.3610
 2657TIP3    H229387   0.339   4.698  14.143  2.3416  0.0405 -0.3207
 2658TIP3   OH229388   5.212   4.641   2.944 -0.2925  0.0860  0.2650
 2658TIP3    H129389   5.150   4.569   2.953 -0.4940  0.0922 -1.0489
 2658TIP3    H229390   5.167   4.716   2.981 -0.1864 -0.3925  1.3916
 2659TIP3   OH229391   0.823   3.386  16.430  0.4656  0.1508  0.2652
 2659TIP3    H129392   0.807   3.305  16.477 -2.9563 -0.0905 -1.1732
 2659TIP3    H229393   0.795   3.455  16.490 -3.3818 -0.1313 -1.0568
 2660TIP3   OH229394   5.402   1.476  15.049  0.2717 -0.2475 -0.0756
 2660TIP3    H129395   5.370   1.515  14.968  0.2663 -1.2436 -0.5538
 2660TIP3    H229396   5.496   1.495  15.049  0.3681 -0.7336 -0.5857
 2661TIP3   OH229397   2.310   5.759   1.171  0.4407 -0.2623  0.1783
 2661TIP3    H129398   2.220   5.727   1.161  0.7383 -0.8345 -0.7519
 2661TIP3    H229399   2.363   5.679   1.172  1.1137  0.1481 -1.2532
 2662TIP3   OH229400   6.255   5.299  11.676  0.3115 -0.2004  0.1072
 2662TIP3    H129401   6.218   5.222  11.633 -4.9161  2.3404 -0.2845
 2662TIP3    H229402   6.266   5.273  11.767 -0.6412 -1.6383 -0.1817
 2663TIP3   OH229403   0.948   6.214   4.135 -0.9978  0.9738 -0.1892
 2663TIP3    H129404   0.926   6.307   4.138  0.9207  1.4273  0.2635
 2663TIP3    H229405   0.985   6.201   4.048  1.3272  1.2444  0.7434
 2664TIP3   OH229406   2.401   0.650   4.321  0.1053  0.2376  0.3319
 2664TIP3    H129407   2.424   0.647   4.228  2.4439  1.1385  0.8267
 2664TIP3    H229408   2.453   0.580   4.361 -1.4643 -0.6402  0.8524
 2665TIP3   OH229409   2.194   6.061   2.279  0.0740 -0.4469 -0.2505
 2665TIP3    H129410   2.187   6.139   2.225  0.2482 -0.5162 -0.3708
 2665TIP3    H229411   2.103   6.035   2.294 -0.0605  1.0032  1.5784
 2666TIP3   OH229412   1.686   0.721  12.326 -0.0286 -0.3127 -0.0416
 2666TIP3    H129413   1.649   0.633  12.341 -0.8874  0.1567  0.6367
 2666TIP3    H229414   1.634   0.756  12.254  0.7886 -0.6305 -0.7920
 2667TIP3   OH229415   0.611   0.135   6.326  0.2258 -0.3432 -0.1113
 2667TIP3    H129416   0.610   0.045   6.294  1.3172 -0.5287  0.3487
 2667TIP3    H229417   0.616   0.189   6.246 -0.7258 -0.6813 -0.3934
 2668TIP3   OH229418   5.408   5.584  14.336  0.8119 -0.2171 -0.4195
 2668TIP3    H129419   5.439   5.643  14.268  0.1777  2.1277  1.2917
 2668TIP3    H229420   5.448   5.616  14.417 -0.5694 -1.3491  0.7424
 2669TIP3   OH229421   1.313   6.708  11.689 -0.2999  0.0195  0.6065
 2669TIP3    H129422   1.393   6.713  11.741 -0.9759 -0.9035  1.7607
 2669TIP3    H229423   1.242   6.714  11.752 -1.1545  0.6208 -0.3913
 2670TIP3   OH229424   2.249   2.907  16.940  0.0541 -0.2701  0.6153
 2670TIP3    H129425   2.278   2.840  16.878  1.5326  2.4166 -1.7755
 2670TIP3    H229426   2.154   2.907  16.932  0.1149 -1.3629 -0.1929
 2671TIP3   OH229427   1.154   3.112   1.526 -0.8166 -0.5285  0.0504
 2671TIP3    H129428   1.058   3.108   1.520 -1.0363  2.7993  0.7244
 2671TIP3    H229429   1.173   3.203   1.547  2.6042 -0.8803 -1.2720
 2672TIP3   OH229430   3.836   0.237   6.454  0.4062  0.6747 -0.9769
 2672TIP3    H129431   3.754   0.280   6.431 -1.1504 -1.4177  0.4819
 2672TIP3    H229432   3.840   0.161   6.395 -0.0188 -0.6737  0.6939
 2673TIP3   OH229433   4.623   6.495  13.553  0.0593  0.2960 -0.1233
 2673TIP3    H129434   4.634   6.473  13.460  1.8116  0.1201  0.1155
 2673TIP3    H229435   4.665   6.423  13.600  0.4999  1.1362  0.7856
 2674TIP3   OH229436   1.708   0.055  10.841  0.0026 -0.2204 -0.2148
 2674TIP3    H129437   1.770  -0.003  10.885  1.1434  2.4998  1.9838
 2674TIP3    H229438   1.763   0.122  10.800 -1.3523  0.6979 -0.5691
 2675TIP3   OH229439   0.324   6.092   3.363  0.1478 -0.3030 -0.2123
 2675TIP3    H129440   0.370   6.032   3.304  1.4797 -1.1669  1.6044
 2675TIP3    H229441   0.244   6.045   3.387 -0.7489  0.3559 -1.8501
 2676TIP3   OH229442   4.760   2.035  12.329 -0.3427  0.1970  0.1013
 2676TIP3    H129443   4.712   1.977  12.388 -0.8848 -0.2081 -0.7115
 2676TIP3    H229444   4.820   2.084  12.385 -1.3572  0.3400  1.0724
 2677TIP3   OH229445   0.659   0.506   5.796 -0.3834 -0.0088  0.5860
 2677TIP3    H129446   0.709   0.494   5.716 -0.2213  1.0548  0.5202
 2677TIP3    H229447   0.722   0.539   5.860 -0.5488 -0.6788  1.1071
 2678TIP3   OH229448   5.773   1.558   3.375  0.4715 -0.3197 -0.3185
 2678TIP3    H129449   5.800   1.470   3.401 -0.5144 -1.0788 -1.8182
 2678TIP3    H229450   5.714   1.544   3.302 -0.9367  1.5118  0.4376
 2679TIP3   OH229451   6.485   1.145  11.585 -0.3964 -1.2050 -0.2399
 2679TIP3    H129452   6.527   1.223  11.548 -0.5431 -0.6627  0.6997
 2679TIP3    H229453   6.391   1.164  11.580 -0.3662 -0.3945  1.9276
 2680TIP3   OH229454   4.997   0.653   4.109 -0.8319  0.1477  0.5856
 2680TIP3    H129455   4.972   0.683   4.021 -0.7186  1.1168  0.8831
 2680TIP3    H229456   4.914   0.650   4.157 -0.8174  0.1833  0.6134
 2681TIP3   OH229457   3.574   2.817  13.417  0.2195  0.7951 -0.0050
 2681TIP3    H129458   3.581   2.851  13.327  1.4917  1.2043  0.2416
 2681TIP3    H229459   3.562   2.723  13.406  3.8180  0.3298 -0.5584
 2682TIP3   OH229460   5.148   1.820  13.461  0.3313  0.2028 -0.1161
 2682TIP3    H129461   5.099   1.738  13.461  0.9508 -0.1750 -0.3633
 2682TIP3    H229462   5.211   1.810  13.390 -1.0447  1.7931 -1.6018
 2683TIP3   OH229463   4.346   3.413   1.883 -0.2554 -0.8185 -0.3544
 2683TIP3    H129464   4.318   3.337   1.934 -0.3508  0.5596  1.7328
 2683TIP3    H229465   4.287   3.483   1.911 -0.6012 -0.1186 -2.7283
 2684TIP3   OH229466   2.450   5.546   4.156 -0.2738  0.0173  0.2436
 2684TIP3    H129467   2.452   5.475   4.091 -0.4639  0.5480 -0.3404
 2684TIP3    H229468   2.394   5.512   4.226 -0.7706 -0.2126 -0.2637
 2685TIP3   OH229469   5.054   4.581   1.951 -0.0360  0.3665  0.3959
 2685TIP3    H129470   5.138   4.601   1.912 -0.6377  0.2837 -0.9634
 2685TIP3    H229471   4.989   4.619   1.892 -0.9916 -0.4203  0.9010
 2686TIP3   OH229472   2.021   2.485  13.026 -0.6148 -0.1108 -0.2738
 2686TIP3    H129473   2.107   2.444  13.038 -0.3009  0.0753 -1.7008
 2686TIP3    H229474   2.015   2.549  13.096  0.8045  0.4779 -0.6662
 2687TIP3   OH229475   0.965   5.298   5.185  0.1184  0.3668 -1.1676
 2687TIP3    H129476   0.935   5.267   5.100  0.4546 -0.9397 -0.8211
 2687TIP3    H229477   0.885   5.312   5.236 -0.1096  1.6984 -1.8730
 2688TIP3   OH229478   5.281   3.812  13.525 -0.0525  0.1153 -0.1340
 2688TIP3    H129479   5.266   3.860  13.444 -0.5128  2.0908  1.0894
 2688TIP3    H229480   5.209   3.750  13.531 -1.3906  1.6539 -0.0226
 2689TIP3   OH229481   2.232   0.594  13.455  0.2623  0.3899 -0.1890
 2689TIP3    H129482   2.305   0.581  13.515 -0.7238 -1.3203  0.6948
 2689TIP3    H229483   2.169   0.526  13.479 -1.5977  1.7913 -0.9660
 2690TIP3   OH229484   3.621   4.924   4.473 -0.6905 -0.2733  0.3641
 2690TIP3    H129485   3.586   5.013   4.469 -1.0397 -0.3561  1.2498
 2690TIP3    H229486   3.605   4.888   4.386  2.0222  1.4465 -0.9160
 2691TIP3   OH229487   6.750   5.602  13.118 -0.8607 -0.4789  0.0734
 2691TIP3    H129488   6.793   5.687  13.120 -1.8638  0.0869 -1.2861
 2691TIP3    H229489   6.722   5.587  13.208  0.1095  0.2175  0.4972
 2692TIP3   OH229490   4.444   0.269   0.994  0.2809  0.6826 -0.4990
 2692TIP3    H129491   4.506   0.260   1.067 -1.3622 -0.8113  0.7390
 2692TIP3    H229492   4.487   0.225   0.921  0.2159 -1.3203  0.6520
 2693TIP3   OH229493   3.432   3.915   4.180  0.2296  0.2093 -0.5152
 2693TIP3    H129494   3.438   3.824   4.208 -0.0626  0.0753 -0.8896
 2693TIP3    H229495   3.461   3.914   4.089 -1.3126  0.2287 -1.0245
 2694TIP3   OH229496   0.066   0.128   0.400 -1.1040 -0.0551  0.2368
 2694TIP3    H129497   0.101   0.194   0.341  0.4270 -1.2197 -0.1998
 2694TIP3    H229498   0.011   0.072   0.344  0.2736 -1.1042 -0.0936
 2695TIP3   OH229499   2.469   1.123   5.624 -0.3926  0.3359  0.2129
 2695TIP3    H129500   2.374   1.112   5.625 -0.2870 -0.5542  1.2015
 2695TIP3    H229501   2.496   1.102   5.713  0.4730  3.0370  0.6330
 2696TIP3   OH229502   0.158   5.063  13.815 -0.6737  0.6624  0.4155
 2696TIP3    H129503   0.195   4.981  13.781  1.1473  0.9373  1.6421
 2696TIP3    H229504   0.171   5.126  13.744 -0.6952  0.2587  0.0453
 2697TIP3   OH229505   6.783   2.164  15.409  0.1744  0.0906 -0.5716
 2697TIP3    H129506   6.721   2.198  15.344  1.1395  1.4755 -0.7974
 2697TIP3    H229507   6.767   2.217  15.487  0.0322 -0.5804 -0.1378
 2698TIP3   OH229508   5.666   0.025  12.528  1.0086 -0.0877 -0.7190
 2698TIP3    H129509   5.747  -0.024  12.535  0.2328 -1.5052 -1.4705
 2698TIP3    H229510   5.691   0.110  12.494  2.2675 -0.2373 -0.1709
 2699TIP3   OH229511   3.140   5.424   0.770 -0.1234 -0.4956  0.5074
 2699TIP3    H129512   3.188   5.506   0.764  1.1362 -1.3640 -1.7180
 2699TIP3    H229513   3.208   5.357   0.778 -1.0871 -1.4476  0.8976
 2700TIP3   OH229514   5.179   5.177   1.833 -0.6728 -0.2498  0.3404
 2700TIP3    H129515   5.266   5.184   1.872 -1.0720  2.1861  0.8839
 2700TIP3    H229516   5.194   5.179   1.739 -0.0798 -1.0823  0.4079
 2701TIP3   OH229517   2.783   1.815  16.351 -0.1521  0.1919  0.3543
 2701TIP3    H129518   2.718   1.744  16.352 -0.6784  0.6476 -0.7273
 2701TIP3    H229519   2.738   1.889  16.393  0.0966  0.1402  0.7102
 2702TIP3   OH229520   2.896   0.438  14.614  0.6897  0.0174  0.3408
 2702TIP3    H129521   2.952   0.361  14.617  0.6933 -0.0057 -0.3704
 2702TIP3    H229522   2.864   0.447  14.704  1.0719 -0.5254  0.5349
 2703TIP3   OH229523   0.946   1.982  14.531  0.3560  0.1794 -0.9453
 2703TIP3    H129524   0.917   1.901  14.572  1.0188  0.0293 -0.7585
 2703TIP3    H229525   0.976   2.036  14.604  2.4229 -0.4550 -1.2997
 2704TIP3   OH229526   5.655   4.553   5.781 -0.2921  0.3402  0.1876
 2704TIP3    H129527   5.575   4.599   5.754  0.6299  1.3745 -0.8115
 2704TIP3    H229528   5.725   4.615   5.764  0.7375 -0.5466  1.1148
 2705TIP3   OH229529   4.143   5.644  11.313 -0.5186 -0.3295  0.3846
 2705TIP3    H129530   4.102   5.685  11.389 -0.9147 -1.2409  0.6782
 2705TIP3    H229531   4.217   5.596  11.350 -0.7665 -0.8480  0.2118
 2706TIP3   OH229532   5.681   2.501  12.251 -0.1715  0.0066 -0.0035
 2706TIP3    H129533   5.647   2.589  12.234 -0.8829 -0.4324 -0.9031
 2706TIP3    H229534   5.693   2.497  12.346 -1.3387  0.6404  0.1758
 2707TIP3   OH229535   0.130   6.641  11.557  0.6111  0.1197 -0.1188
 2707TIP3    H129536   0.212   6.690  11.562  0.2549  0.7358 -0.2647
 2707TIP3    H229537   0.155   6.555  11.522  1.3096  0.0168  0.6207
 2708TIP3   OH229538   6.445   2.069   3.152  0.6211  0.2524  0.3460
 2708TIP3    H129539   6.492   2.085   3.234 -1.9592  1.0543  1.7406
 2708TIP3    H229540   6.431   1.975   3.150  0.8423  0.2089  0.7601
 2709TIP3   OH229541   0.438   3.582   4.566 -0.4401  0.3485  0.0982
 2709TIP3    H129542   0.524   3.553   4.535 -1.4900 -2.4270 -0.3629
 2709TIP3    H229543   0.444   3.574   4.662  0.3421  1.7633  0.1806
 2710TIP3   OH229544   4.060   3.183  11.864 -0.2053  0.4211 -0.3888
 2710TIP3    H129545   4.135   3.216  11.815  1.6871 -2.1645  0.6369
 2710TIP3    H229546   3.994   3.166  11.797  0.7554  1.0702 -1.5243
 2711TIP3   OH229547   1.436   4.625  14.413 -0.1052  0.0849 -0.2300
 2711TIP3    H129548   1.521   4.668  14.400 -0.9661  2.0654  0.4937
 2711TIP3    H229549   1.423   4.573  14.334  2.1362 -0.8790 -0.0163
 2712TIP3   OH229550   0.782   4.307  14.562  0.1043  0.4880  0.2270
 2712TIP3    H129551   0.702   4.294  14.511 -0.3331 -1.1327  1.2838
 2712TIP3    H229552   0.756   4.289  14.652  1.1470  2.1565  0.8710
 2713TIP3   OH229553   6.756   1.546  12.291  0.1606  0.1807 -0.5303
 2713TIP3    H129554   6.783   1.556  12.200  0.1612 -0.0093 -0.5508
 2713TIP3    H229555   6.782   1.457  12.315  0.3206  0.2893 -0.2891
 2714TIP3   OH229556   3.551   1.010  11.400  0.0699  0.1603  0.6415
 2714TIP3    H129557   3.629   0.955  11.409 -0.4115 -0.5410  0.5791
 2714TIP3    H229558   3.585   1.098  11.384  0.8386 -0.4335 -1.1136
 2715TIP3   OH229559   3.179   6.057  11.660 -0.7592  0.2477 -0.1380
 2715TIP3    H129560   3.188   5.967  11.690 -1.4746 -0.0751 -0.8724
 2715TIP3    H229561   3.165   6.108  11.740  1.0370 -0.0853  0.4190
 2716TIP3   OH229562   3.245   4.369  10.864 -0.2193  0.4975 -0.4675
 2716TIP3    H129563   3.290   4.454  10.865 -0.4489  0.6442  2.3773
 2716TIP3    H229564   3.162   4.386  10.820 -0.8988  2.1325  1.3720
 2717TIP3   OH229565   5.608   4.538  13.994 -0.1660 -0.2837  0.1383
 2717TIP3    H129566   5.526   4.495  14.020 -0.1173 -1.0227 -0.8943
 2717TIP3    H229567   5.588   4.579  13.910  0.5126 -0.4380 -0.1022
 2718TIP3   OH229568   0.865   4.280  15.128 -0.0642  0.8982  0.5842
 2718TIP3    H129569   0.877   4.372  15.103 -0.5353  0.5213 -1.0416
 2718TIP3    H229570   0.937   4.234  15.085 -2.2684 -0.1105 -2.2064
 2719TIP3   OH229571   1.647   2.340   5.557 -0.2567  0.1878  0.0315
 2719TIP3    H129572   1.602   2.273   5.608 -0.3334  0.8321  0.8247
 2719TIP3    H229573   1.733   2.349   5.599  0.4764 -0.7199 -1.2012
 2720TIP3   OH229574   0.980   3.519  15.361 -0.4661  0.0012 -0.4250
 2720TIP3    H129575   0.963   3.610  15.337  1.8004  0.3106 -0.9490
 2720TIP3    H229576   0.955   3.469  15.283  1.3832  0.5021 -1.3893
 2721TIP3   OH229577   1.399   4.187   2.687 -0.2751 -0.3546 -0.3096
 2721TIP3    H129578   1.412   4.260   2.626  1.1092 -0.3723 -0.0549
 2721TIP3    H229579   1.362   4.117   2.633 -2.6966  0.8816 -0.3294
 2722TIP3   OH229580   3.084   1.885  14.002 -0.2098  0.6813 -0.7096
 2722TIP3    H129581   3.016   1.821  14.021  1.0125 -0.2214  0.7095
 2722TIP3    H229582   3.036   1.965  13.978 -1.7431 -0.2566 -0.8184
 2723TIP3   OH229583   3.367   5.214   4.646  0.3547  0.2271 -0.0615
 2723TIP3    H129584   3.312   5.292   4.642  0.2674  0.1970  0.4465
 2723TIP3    H229585   3.312   5.148   4.688  0.5586  0.0076 -0.1402
 2724TIP3   OH229586   3.791   3.829  16.052  0.2185  0.6262  0.4485
 2724TIP3    H129587   3.739   3.828  15.972  1.4379  2.2664 -0.3845
 2724TIP3    H229588   3.861   3.765  16.036 -1.0982 -1.0449  1.2843
 2725TIP3   OH229589   4.497   5.449   0.638 -0.0378  0.0442  0.1533
 2725TIP3    H129590   4.403   5.434   0.638 -0.1706  0.8423  0.4767
 2725TIP3    H229591   4.514   5.498   0.558  0.1665 -0.4681 -0.1196
 2726TIP3   OH229592   5.385   0.032   2.706  0.2397  0.2386 -0.2982
 2726TIP3    H129593   5.401   0.099   2.639  1.2576  0.4082  0.0934
 2726TIP3    H229594   5.292   0.039   2.726 -0.0906  0.1294 -1.7483
 2727TIP3   OH229595   0.308   2.915  13.956  0.5156 -0.1589  0.2462
 2727TIP3    H129596   0.291   2.836  13.906  0.0349  1.1045 -1.6088
 2727TIP3    H229597   0.403   2.913  13.973  0.4132 -1.4089  0.7297
 2728TIP3   OH229598   4.132   5.959   3.606  0.2031  0.3155  0.2697
 2728TIP3    H129599   4.049   5.953   3.652  0.4740 -1.3562  0.5572
 2728TIP3    H229600   4.170   5.872   3.613  1.6677  0.8775 -0.4520
 2729TIP3   OH229601   2.280   3.839   4.206  0.2712 -0.3167 -0.4010
 2729TIP3    H129602   2.210   3.790   4.251 -0.0711  0.8707  0.3878
 2729TIP3    H229603   2.254   3.837   4.114 -0.3375 -0.6491 -0.2292
 2730TIP3   OH229604   0.372   3.457  12.032 -0.3246 -0.0127  0.3752
 2730TIP3    H129605   0.450   3.410  12.003  0.2876  1.0761  0.2272
 2730TIP3    H229606   0.332   3.490  11.952 -0.6060 -0.0349  0.5019
 2731TIP3   OH229607   0.667   4.796   2.901  0.3281  0.1163 -0.7333
 2731TIP3    H129608   0.613   4.767   2.975 -0.8735  1.4922 -1.0377
 2731TIP3    H229609   0.635   4.884   2.882  1.4902  0.2594 -2.0841
 2732TIP3   OH229610   3.275   1.193   3.365 -0.1176 -0.4276 -0.2867
 2732TIP3    H129611   3.205   1.229   3.418 -0.8175 -1.4302 -0.5153
 2732TIP3    H229612   3.302   1.113   3.411  0.6724 -0.2076 -0.3507
 2733TIP3   OH229613   4.173   3.872  16.092  0.1603  1.0661 -0.0301
 2733TIP3    H129614   4.268   3.862  16.082  0.3047  1.2943  1.0524
 2733TIP3    H229615   4.145   3.913  16.010  1.2996  2.8912  0.4529
 2734TIP3   OH229616   5.956   1.388  16.812  0.3242 -0.1051 -0.6131
 2734TIP3    H129617   5.958   1.401  16.907  0.7547 -0.8732 -0.5192
 2734TIP3    H229618   5.865   1.366  16.793  0.0145  1.0392 -0.5133
 2735TIP3   OH229619   0.419   0.221  16.747 -0.5698 -0.1794 -0.6323
 2735TIP3    H129620   0.410   0.311  16.778 -0.5736 -1.1500  2.3022
 2735TIP3    H229621   0.340   0.205  16.694 -0.6023  1.4843 -1.1128
 2736TIP3   OH229622   1.114   6.260   2.863  0.3267  0.1962 -0.1454
 2736TIP3    H129623   1.151   6.255   2.775  2.2375  0.4123  0.6130
 2736TIP3    H229624   1.058   6.337   2.861  0.8918  0.5932 -0.9877
 2737TIP3   OH229625   3.964   3.352  16.882  0.6991  0.0723  0.0370
 2737TIP3    H129626   4.020   3.420  16.843  0.9746 -1.3478 -2.1595
 2737TIP3    H229627   4.016   3.271  16.875 -0.7801 -0.8834 -0.0680
 2738TIP3   OH229628   3.403   0.019   4.688  0.1243  0.2320  0.0623
 2738TIP3    H129629   3.463   0.063   4.748  0.8215  0.3629 -0.7350
 2738TIP3    H229630   3.400  -0.071   4.720  0.1365  0.4134  0.5772
 2739TIP3   OH229631   0.055   2.886   1.505  0.0772  0.1906  0.4000
 2739TIP3    H129632   0.022   2.967   1.465 -0.5509 -0.4116 -0.3195
 2739TIP3    H229633   0.059   2.824   1.433  1.2662 -0.2173  0.8033
 2740TIP3   OH229634   0.221   6.456   1.764 -0.1561  0.2873 -0.4527
 2740TIP3    H129635   0.201   6.489   1.852 -0.3201  0.7020 -0.6464
 2740TIP3    H229636   0.293   6.395   1.778  1.7872  2.5214 -0.4006
 2741TIP3   OH229637   3.990   2.447  15.719 -0.0269  0.0842 -0.2088
 2741TIP3    H129638   3.987   2.438  15.624  0.3073  1.4288 -0.3536
 2741TIP3    H229639   4.080   2.473  15.738 -0.1451  0.0116  0.4495
 2742TIP3   OH229640   5.309   4.360  13.006 -0.4887  0.3759  0.4136
 2742TIP3    H129641   5.377   4.293  12.992 -0.8084 -0.1798  1.3946
 2742TIP3    H229642   5.353   4.443  12.989  0.6529  0.0663  1.6887
 2743TIP3   OH229643   0.399   1.995  14.824 -0.1557  0.3564  0.1734
 2743TIP3    H129644   0.306   1.992  14.847  0.4213  2.6179  3.1328
 2743TIP3    H229645   0.405   2.063  14.758 -0.6250  0.0287 -0.2160
 2744TIP3   OH229646   2.324   0.358  15.766 -0.5033  0.4438  0.1616
 2744TIP3    H129647   2.351   0.430  15.824 -1.6223  1.2173 -0.2655
 2744TIP3    H229648   2.354   0.385  15.680 -1.8418  0.9082 -0.1749
 2745TIP3   OH229649   2.685   4.417  16.636  0.7318 -1.0768 -0.5002
 2745TIP3    H129650   2.653   4.328  16.652 -0.4684 -0.6044 -0.1556
 2745TIP3    H229651   2.605   4.468  16.618  1.3839 -0.0355 -0.4870
 2746TIP3   OH229652   0.725   6.201  13.151  0.1082  0.1942 -0.2615
 2746TIP3    H129653   0.776   6.129  13.188 -1.9598 -1.9495 -1.4561
 2746TIP3    H229654   0.645   6.204  13.204  1.5349  3.7887  1.8665
 2747TIP3   OH229655   2.299   2.059   3.870 -0.3592 -0.0736 -0.3933
 2747TIP3    H129656   2.307   1.969   3.837 -1.7611 -0.3121 -0.0986
 2747TIP3    H229657   2.386   2.097   3.856 -0.0944 -1.0973 -1.6372
 2748TIP3   OH229658   3.410   6.471  14.427 -0.4522  0.0568 -0.1851
 2748TIP3    H129659   3.475   6.514  14.372 -0.1877  1.0715  0.8957
 2748TIP3    H229660   3.410   6.380  14.399 -0.3542  0.5674 -1.8867
 2749TIP3   OH229661   5.897   4.353   1.104 -0.1140 -0.3581  0.3833
 2749TIP3    H129662   5.935   4.352   1.016 -1.3602 -2.5262 -0.1861
 2749TIP3    H229663   5.959   4.403   1.157  2.0425 -1.3004 -1.1509
 2750TIP3   OH229664   3.576   6.537   4.578  0.0751 -0.2850 -0.2709
 2750TIP3    H129665   3.608   6.616   4.534  0.5798 -0.4118 -0.1234
 2750TIP3    H229666   3.578   6.558   4.671 -1.0586  0.0076 -0.2952
 2751TIP3   OH229667   2.891   4.675  13.552 -0.2771  0.3502 -0.1220
 2751TIP3    H129668   2.895   4.589  13.594 -2.9717 -0.3195 -1.1356
 2751TIP3    H229669   2.923   4.736  13.619 -1.1017 -1.1129  1.6643
 2752TIP3   OH229670   3.083   2.677   4.948  0.4307 -0.1408  0.4725
 2752TIP3    H129671   3.116   2.639   5.029 -0.2737 -0.9672  0.3825
 2752TIP3    H229672   3.024   2.610   4.912  1.6102 -0.2778 -1.3038
 2753TIP3   OH229673   2.692   6.638  14.969 -0.2230 -0.2817  0.4709
 2753TIP3    H129674   2.669   6.555  14.927  3.0091 -0.4600 -1.0795
 2753TIP3    H229675   2.779   6.623  15.006 -0.2182  1.9693  1.4634
 2754TIP3   OH229676   0.582   0.166   3.643 -0.6162 -0.3346  0.6980
 2754TIP3    H129677   0.536   0.156   3.727 -2.7745 -0.7545 -0.5047
 2754TIP3    H229678   0.560   0.255   3.615 -1.1514 -0.7438 -0.1643
 2755TIP3   OH229679   4.267   0.286  16.693  0.2529 -0.1597 -0.0033
 2755TIP3    H129680   4.331   0.216  16.700  0.3202 -0.0057  0.9794
 2755TIP3    H229681   4.221   0.268  16.611  2.0750  0.1839 -1.1319
 2756TIP3   OH229682   3.035   3.113   2.628 -0.5939  0.4115 -0.2712
 2756TIP3    H129683   3.068   3.115   2.538  0.0688 -2.1548 -0.0991
 2756TIP3    H229684   2.940   3.127   2.619 -0.5519  0.0229 -1.3832
 2757TIP3   OH229685   3.607   2.442   4.931 -0.1833  0.2422 -0.5326
 2757TIP3    H129686   3.685   2.397   4.964 -1.8601 -2.4444 -0.0833
 2757TIP3    H229687   3.604   2.418   4.838 -1.2215 -0.7825 -0.2372
 2758TIP3   OH229688   1.330   3.580  10.989  0.2982  0.1297 -0.1172
 2758TIP3    H129689   1.405   3.627  11.025 -0.5864  1.7714 -0.3685
 2758TIP3    H229690   1.367   3.502  10.949  1.8707  0.8999 -0.1897
 2759TIP3   OH229691   6.216   2.781   1.603  0.2114  0.6941 -0.6940
 2759TIP3    H129692   6.236   2.726   1.527 -0.0116 -0.0890 -0.1910
 2759TIP3    H229693   6.248   2.731   1.678 -1.7807  0.3406 -0.0537
 2760TIP3   OH229694   5.704   4.051  11.456  0.0124 -0.2171 -0.2263
 2760TIP3    H129695   5.762   4.005  11.395  1.6124 -1.4413  2.1228
 2760TIP3    H229696   5.697   4.140  11.420  0.0858 -1.1712 -2.7010
 2761TIP3   OH229697   5.647   4.355  11.569  0.6891  0.3775 -0.2005
 2761TIP3    H129698   5.578   4.351  11.502 -1.5379  2.6638  1.8441
 2761TIP3    H229699   5.685   4.442  11.559  0.4606  0.6675  1.3767
 2762TIP3   OH229700   5.857   3.251  11.041  0.3354 -0.1722  0.6960
 2762TIP3    H129701   5.936   3.221  11.085  0.9979 -0.5498 -0.7113
 2762TIP3    H229702   5.889   3.303  10.967 -0.7206 -0.8568 -0.2553
 2763TIP3   OH229703   4.989   3.913  15.311 -0.0465 -0.6185  0.2716
 2763TIP3    H129704   4.991   4.007  15.325 -1.4024 -0.4698 -0.4729
 2763TIP3    H229705   5.018   3.901  15.221 -1.2632 -0.7800 -0.1195
 2764TIP3   OH229706   3.282   3.206  15.769  0.2129  0.0960 -0.2666
 2764TIP3    H129707   3.224   3.157  15.711 -1.1641  0.8727  0.4102
 2764TIP3    H229708   3.249   3.188  15.857  2.1109 -0.8505  0.2691
 2765TIP3   OH229709   3.496   1.397  11.486 -0.0373 -0.0648 -0.1617
 2765TIP3    H129710   3.452   1.481  11.472  0.1046  0.4863  2.4753
 2765TIP3    H229711   3.577   1.420  11.532  2.1810 -1.2437 -3.3189
 2766TIP3   OH229712   5.663   2.968  15.563 -0.5450 -0.2278 -0.7748
 2766TIP3    H129713   5.697   3.046  15.607 -0.0860  0.7506 -2.8092
 2766TIP3    H229714   5.737   2.907  15.560 -0.8288 -0.6592  0.5755
 2767TIP3   OH229715   5.847   0.288  11.873 -0.2669 -0.8320  0.0947
 2767TIP3    H129716   5.937   0.321  11.869 -0.8313  0.7788  0.1171
 2767TIP3    H229717   5.824   0.270  11.782 -0.6743  0.9571 -0.1898
 2768TIP3   OH229718   3.666   1.565   3.008  0.0657  0.0550 -0.0709
 2768TIP3    H129719   3.617   1.648   3.009 -0.0273  0.0120  2.0014
 2768TIP3    H229720   3.731   1.576   2.939 -0.5892  1.4726 -0.4873
 2769TIP3   OH229721   4.864   2.900  12.986 -0.0798  0.0932  0.7511
 2769TIP3    H129722   4.893   2.984  12.950  1.4106  0.2808  2.3508
 2769TIP3    H229723   4.934   2.873  13.045 -0.5052 -2.3215  0.2290
 2770TIP3   OH229724   1.642   0.284   1.424  0.1017  0.1934 -0.3921
 2770TIP3    H129725   1.584   0.322   1.358 -0.6723 -0.2369  0.0177
 2770TIP3    H229726   1.679   0.359   1.470 -0.2071  0.4784 -0.6081
 2771TIP3   OH229727   4.485   3.039  12.327 -0.2686 -0.1998 -0.2230
 2771TIP3    H129728   4.409   3.091  12.300  0.1536  0.6633  0.2296
 2771TIP3    H229729   4.545   3.041  12.253 -0.0184  0.4145 -0.0055
 2772TIP3   OH229730   6.083   2.934  16.977 -0.1264  0.3396  0.5608
 2772TIP3    H129731   6.018   2.957  16.910 -1.4490 -3.0206  0.5859
 2772TIP3    H229732   6.161   2.983  16.952 -0.7068 -0.4747 -3.2928
 2773TIP3   OH229733   3.030   3.187   1.003  0.9124  0.2188 -0.0992
 2773TIP3    H129734   2.958   3.124   0.998  0.6622  0.2592  2.3269
 2773TIP3    H229735   2.995   3.267   0.965 -0.3124  0.2006  0.9379
 2774TIP3   OH229736   5.556   3.318  15.490  0.4737  0.0969  0.4089
 2774TIP3    H129737   5.604   3.235  15.498 -0.6966 -0.8206 -1.7687
 2774TIP3    H229738   5.546   3.330  15.396 -2.8006  0.7203  0.7886
 2775TIP3   OH229739   6.631   2.925   0.741  0.3794  0.3267 -0.2336
 2775TIP3    H129740   6.562   2.985   0.772 -0.5563 -0.7995 -0.0835
 2775TIP3    H229741   6.634   2.856   0.808  1.0568 -0.0835 -0.6858
 2776TIP3   OH229742   1.224   0.708  13.185  0.3147 -0.4467  0.0459
 2776TIP3    H129743   1.212   0.746  13.272  0.4460  2.3435 -1.1053
 2776TIP3    H229744   1.318   0.711  13.170  0.2131 -0.0675 -0.5466
 2777TIP3   OH229745   4.388   0.101   4.525  0.1416  0.4023  0.3016
 2777TIP3    H129746   4.475   0.066   4.545  0.3321  0.6601 -0.0621
 2777TIP3    H229747   4.400   0.196   4.526 -0.1938  0.4416  0.5099
 2778TIP3   OH229748   2.431   5.451   2.711  0.2768  0.4732  0.3132
 2778TIP3    H129749   2.378   5.398   2.652 -0.7519  0.4244  1.2788
 2778TIP3    H229750   2.516   5.407   2.713  0.2608  0.3424 -0.9342
 2779TIP3   OH229751   2.413   3.242  14.866  0.1885 -0.0000 -0.5772
 2779TIP3    H129752   2.336   3.296  14.849  1.8316  2.3109 -0.8866
 2779TIP3    H229753   2.486   3.291  14.827  2.1405 -1.0423  1.6475
 2780TIP3   OH229754   6.170   4.748  13.213 -0.0031  0.2704  0.8017
 2780TIP3    H129755   6.132   4.836  13.213 -1.0228 -0.1373 -1.1751
 2780TIP3    H229756   6.103   4.692  13.253  0.0859  0.1841  0.8306
 2781TIP3   OH229757   2.250   4.133   4.963 -0.0986 -0.6475 -0.2797
 2781TIP3    H129758   2.338   4.129   4.925 -0.2347 -3.1489 -0.4316
 2781TIP3    H229759   2.207   4.204   4.916  1.3627 -0.4052 -1.2769
 2782TIP3   OH229760   0.286   1.853  16.600  0.4161 -0.0775  0.1467
 2782TIP3    H129761   0.380   1.841  16.586  0.4854  2.5965 -2.0143
 2782TIP3    H229762   0.247   1.828  16.517 -0.6150  0.7285  0.3880
 2783TIP3   OH229763   1.744   0.488   3.629 -0.0587  0.0738  0.5305
 2783TIP3    H129764   1.791   0.571   3.619 -0.2939  0.0454 -0.9418
 2783TIP3    H229765   1.653   0.510   3.609 -0.4433 -0.1775  1.9232
 2784TIP3   OH229766   0.496   5.283   0.523  0.0473 -0.0489  0.0215
 2784TIP3    H129767   0.563   5.215   0.532  0.3661  0.0902 -1.1644
 2784TIP3    H229768   0.528   5.355   0.577 -0.4977 -0.9754  1.6172
 2785TIP3   OH229769   6.693   6.649   3.669  0.3430 -0.5558  0.3731
 2785TIP3    H129770   6.754   6.587   3.628 -1.2677 -1.5555 -0.5289
 2785TIP3    H229771   6.635   6.595   3.722  0.5186  0.4452  1.6165
 2786TIP3   OH229772   5.127   0.899   3.595  0.5609 -1.1094 -0.1205
 2786TIP3    H129773   5.071   0.855   3.659 -0.2031 -2.2650 -1.5500
 2786TIP3    H229774   5.069   0.920   3.523  1.3524  0.4584 -0.3271
 2787TIP3   OH229775   5.814   3.751  16.370  0.3533  0.3128 -0.0950
 2787TIP3    H129776   5.735   3.799  16.346 -0.0615 -1.1232 -1.6470
 2787TIP3    H229777   5.885   3.813  16.354 -0.4769  1.9102  2.1196
 2788TIP3   OH229778   4.653   0.101  15.101  0.4318 -0.1204  0.4670
 2788TIP3    H129779   4.560   0.123  15.110  0.5400  0.8821 -0.6106
 2788TIP3    H229780   4.699   0.180  15.130  0.8617  0.7206 -2.3588
 2789TIP3   OH229781   6.132   2.988   3.541 -0.1026  0.2554  0.0205
 2789TIP3    H129782   6.196   3.059   3.540  0.2480  0.0792  3.1458
 2789TIP3    H229783   6.064   3.019   3.602 -1.0964 -1.1261 -0.3593
 2790TIP3   OH229784   2.829   4.740  11.467 -0.4607 -0.2840 -0.3921
 2790TIP3    H129785   2.824   4.664  11.410 -0.0465 -1.4998  1.1493
 2790TIP3    H229786   2.922   4.746  11.491 -0.5470  0.4990 -0.2349
 2791TIP3   OH229787   6.574   6.241  15.791  0.0928  0.2966 -0.0785
 2791TIP3    H129788   6.526   6.192  15.725  1.4416 -0.4579 -0.5105
 2791TIP3    H229789   6.664   6.244  15.759  0.6890  0.2481  1.5370
 2792TIP3   OH229790   2.833   2.168  11.955 -0.0824 -0.5477 -0.2023
 2792TIP3    H129791   2.784   2.172  11.873 -0.7841 -1.8117  0.1504
 2792TIP3    H229792   2.897   2.098  11.941  0.1034 -0.4509  0.1579
 2793TIP3   OH229793   1.544   1.521  10.618 -0.2000  0.9059 -0.7225
 2793TIP3    H129794   1.460   1.478  10.634 -0.1060  1.0983  0.3013
 2793TIP3    H229795   1.546   1.535  10.523 -0.3328 -1.1167 -1.0395
 2794TIP3   OH229796   0.784   1.936   0.198  0.4665  0.6098 -0.5196
 2794TIP3    H129797   0.721   1.909   0.265  0.4323 -0.5379 -1.0161
 2794TIP3    H229798   0.732   1.941   0.118  1.1232 -0.9388 -1.0542
 2795TIP3   OH229799   6.745   1.622  13.280 -0.0700 -0.3430 -0.2158
 2795TIP3    H129800   6.717   1.577  13.200 -0.9836 -0.0139 -0.0867
 2795TIP3    H229801   6.705   1.572  13.351  0.7217 -0.6207  0.0428
 2796TIP3   OH229802   6.602   6.466   3.210 -0.6384  0.5220  0.2971
 2796TIP3    H129803   6.677   6.480   3.268 -1.0412  2.8302  0.3153
 2796TIP3    H229804   6.530   6.445   3.269 -0.3150 -0.4195  0.3703
 2797TIP3   OH229805   6.702   1.108  17.086  0.4288  0.1986  0.6329
 2797TIP3    H129806   6.639   1.131  17.155  1.6928  2.2679  1.1234
 2797TIP3    H229807   6.787   1.113  17.129  0.9954 -2.2944 -0.1124
 2798TIP3   OH229808   5.921   3.274  14.543  0.2325 -0.5266  0.0195
 2798TIP3    H129809   5.865   3.257  14.618  0.8203  0.0687  0.5922
 2798TIP3    H229810   5.865   3.259  14.467 -0.8908  0.7238  0.5895
 2799TIP3   OH229811   0.158   1.828  13.131 -0.2123 -0.4578  0.0825
 2799TIP3    H129812   0.137   1.759  13.194 -0.9321  0.3886  0.7970
 2799TIP3    H229813   0.250   1.849  13.148 -0.1702 -0.8108  0.2949
 2800TIP3   OH229814   4.477   2.850   0.320 -0.0315 -0.9175  0.5118
 2800TIP3    H129815   4.524   2.931   0.299  0.1805 -1.1411  0.1146
 2800TIP3    H229816   4.386   2.878   0.331 -0.5993 -1.0940 -2.9511
 2801TIP3   OH229817   0.391   6.483  17.022  0.8094  0.3680 -0.0548
 2801TIP3    H129818   0.343   6.535  16.957 -0.2830  0.2341  0.6267
 2801TIP3    H229819   0.435   6.416  16.971  1.4577  1.3760 -0.8485
 2802TIP3   OH229820   6.054   3.926   2.631 -0.2269  0.2307  0.5102
 2802TIP3    H129821   5.992   3.902   2.699  0.1005 -0.8739  0.4365
 2802TIP3    H229822   6.039   4.019   2.616 -2.3921 -0.1719 -0.0399
 2803TIP3   OH229823   5.449   4.757   5.750  0.3502 -0.0558  0.0987
 2803TIP3    H129824   5.371   4.763   5.805  0.1177  2.0257 -0.3748
 2803TIP3    H229825   5.463   4.847   5.720  0.2981 -1.1356 -3.4353
 2804TIP3   OH229826   1.128   5.103   0.130  0.2809  0.5935  0.1194
 2804TIP3    H129827   1.126   5.086   0.035  2.7399 -1.4563  0.3844
 2804TIP3    H229828   1.200   5.165   0.141  1.0359 -0.3895  0.7971
 2805TIP3   OH229829   5.965   0.004  16.023  0.3266  0.2987 -0.3025
 2805TIP3    H129830   5.985  -0.047  15.945  1.1238  2.0975 -1.3076
 2805TIP3    H229831   5.872   0.026  16.014  0.0678 -0.6401 -0.0397
 2806TIP3   OH229832   3.874   3.366   3.263  0.2269  0.4647 -0.3159
 2806TIP3    H129833   3.846   3.282   3.299 -0.1061  0.5650 -0.3424
 2806TIP3    H229834   3.861   3.358   3.169  1.2168  0.1579 -0.4336
 2807TIP3   OH229835   1.946   3.390  16.430 -0.8516 -0.0494 -0.0666
 2807TIP3    H129836   1.870   3.434  16.469 -1.8063  0.5626 -2.5125
 2807TIP3    H229837   1.951   3.306  16.477 -2.0343  0.5811  1.2483
 2808TIP3   OH229838   3.362   2.353   5.791  0.4154  0.3769  0.3875
 2808TIP3    H129839   3.401   2.419   5.848 -0.0702  1.4428 -0.4897
 2808TIP3    H229840   3.283   2.324   5.837  1.1707 -0.3366  1.2446
 2809TIP3   OH229841   3.964   4.221   4.672  0.4213  0.3105  0.4380
 2809TIP3    H129842   4.038   4.226   4.612 -0.3671  2.1176 -0.4145
 2809TIP3    H229843   3.999   4.249   4.757  0.8734  0.4962  0.1868
 2810TIP3   OH229844   4.948   1.273   5.621  0.8697 -0.3314  0.6484
 2810TIP3    H129845   4.881   1.323   5.667 -1.4760 -2.9732  0.2089
 2810TIP3    H229846   4.916   1.183   5.621  2.9759 -1.1707 -2.2367
 2811TIP3   OH229847   2.775   2.096  16.083 -0.0140 -0.1387 -0.0571
 2811TIP3    H129848   2.692   2.076  16.126  0.8470 -2.9146  0.3991
 2811TIP3    H229849   2.840   2.042  16.128  1.9692  1.5278 -0.7915
 2812TIP3   OH229850   5.647   3.125  11.168  0.5395  0.2052 -0.0582
 2812TIP3    H129851   5.717   3.178  11.130  0.2686  1.3788  0.9968
 2812TIP3    H229852   5.641   3.156  11.259 -0.7220 -0.5214  0.1208
 2813TIP3   OH229853   2.775   6.543   1.018 -0.0601 -0.0810  1.2387
 2813TIP3    H129854   2.794   6.541   0.925  0.2754 -1.8635  1.3260
 2813TIP3    H229855   2.822   6.620   1.051  2.8197 -1.4831  0.5512
 2814TIP3   OH229856   1.684   6.370  13.223 -0.1640  0.8718  0.2399
 2814TIP3    H129857   1.699   6.449  13.275  1.9113  1.0054 -0.5314
 2814TIP3    H229858   1.652   6.306  13.286 -1.7621  2.2667  0.8956
 2815TIP3   OH229859   4.465   5.885   1.936  0.2454 -0.0618  0.4602
 2815TIP3    H129860   4.532   5.911   1.999 -0.2945  2.0907  0.1951
 2815TIP3    H229861   4.382   5.907   1.979 -0.1381  1.0387 -0.7915
 2816TIP3   OH229862   3.693   4.468   1.400 -0.7735  0.4853 -0.2164
 2816TIP3    H129863   3.786   4.463   1.380 -1.0036 -1.1092 -1.0028
 2816TIP3    H229864   3.685   4.430   1.487 -0.5861  1.4338  0.2198
 2817TIP3   OH229865   4.860   0.096   3.816  0.1040 -0.2682  0.1916
 2817TIP3    H129866   4.904   0.050   3.744  2.0857  1.5003  0.2178
 2817TIP3    H229867   4.800   0.032   3.852  1.5679 -2.2967 -0.8445
 2818TIP3   OH229868   4.192   4.305  14.564  0.2023  0.3867  0.3875
 2818TIP3    H129869   4.114   4.298  14.509  1.0014  0.7907 -0.8297
 2818TIP3    H229870   4.200   4.220  14.607 -0.1763 -0.0927 -0.4857
 2819TIP3   OH229871   5.706   0.319   5.053  0.3254 -0.4999 -0.1113
 2819TIP3    H129872   5.744   0.233   5.068 -1.6781 -1.0685  1.9904
 2819TIP3    H229873   5.627   0.303   5.001  0.5722  0.1857 -0.7105
 2820TIP3   OH229874   0.041   5.355   0.380 -0.5621  0.3432 -0.1095
 2820TIP3    H129875   0.105   5.383   0.445 -0.3379 -0.7488  0.1441
 2820TIP3    H229876  -0.033   5.322   0.431 -1.2295  1.3300 -0.4026
 2821TIP3   OH229877   3.711   3.361  10.683  0.3636 -0.4062  0.0541
 2821TIP3    H129878   3.629   3.399  10.653 -0.0027  0.2835  1.8287
 2821TIP3    H229879   3.713   3.273  10.645 -1.4375 -0.6185  0.3987
 2822TIP3   OH229880   0.692   2.965   5.928  0.0234  0.2842 -0.8609
 2822TIP3    H129881   0.726   2.941   5.842  0.8499 -0.2673 -0.3724
 2822TIP3    H229882   0.609   2.917   5.935  1.0359 -1.4262 -0.4195
 2823TIP3   OH229883   3.855   2.440  12.990 -0.7083 -0.0107  0.7697
 2823TIP3    H129884   3.844   2.345  12.980 -1.4460  0.4179 -3.0872
 2823TIP3    H229885   3.773   2.477  12.957  0.3759  2.0562  0.3224
 2824TIP3   OH229886   0.994   5.688   3.899  0.1797  0.2849  0.2661
 2824TIP3    H129887   0.978   5.615   3.960  3.3414  0.0558  0.9048
 2824TIP3    H229888   0.939   5.759   3.932 -0.0901 -0.6582  1.8924
 2825TIP3   OH229889   5.956   2.411  15.819 -0.1048  0.0660  0.0436
 2825TIP3    H129890   5.922   2.321  15.820 -0.8160  0.2993 -1.3879
 2825TIP3    H229891   5.953   2.436  15.727  3.2002  0.4228  0.0024
 2826TIP3   OH229892   6.379   1.078  13.392 -0.1725 -0.2507  0.7319
 2826TIP3    H129893   6.471   1.052  13.381  0.2801  0.3243  2.8745
 2826TIP3    H229894   6.339   1.007  13.442 -1.1061 -0.8236 -0.7716
 2827TIP3   OH229895   5.747   3.369   1.005 -0.3643 -0.1469  0.2615
 2827TIP3    H129896   5.836   3.388   0.977 -0.5205  0.2999  0.0590
 2827TIP3    H229897   5.738   3.416   1.088 -0.3883 -0.2460  0.3148
 2828TIP3   OH229898   1.212   0.829   5.289 -0.1537  0.2739  0.0689
 2828TIP3    H129899   1.184   0.784   5.369  1.0015  1.5417  1.1943
 2828TIP3    H229900   1.307   0.831   5.294  0.0266 -0.8612 -2.0445
 2829TIP3   OH229901   1.694   4.752   4.563  0.1706  0.8998 -0.5408
 2829TIP3    H129902   1.735   4.715   4.642 -0.1133  1.5228 -0.0977
 2829TIP3    H229903   1.632   4.685   4.535  1.2895  0.0651 -1.0576
 2830TIP3   OH229904   0.650   3.433   2.233 -0.0539  0.0143 -0.1062
 2830TIP3    H129905   0.700   3.481   2.168 -0.0562 -1.0688 -0.9216
 2830TIP3    H229906   0.713   3.412   2.302 -0.4660  2.8040  1.1892
 2831TIP3   OH229907   5.278   0.924  13.366 -0.4332 -0.4140  0.1243
 2831TIP3    H129908   5.274   1.005  13.417 -0.4739 -0.6121  0.4376
 2831TIP3    H229909   5.199   0.876  13.392  1.6432 -2.3890  3.0243
 2832TIP3   OH229910   5.434   1.537  14.789 -0.0337 -0.1973 -0.3432
 2832TIP3    H129911   5.445   1.446  14.760 -0.5048 -0.2532 -0.3517
 2832TIP3    H229912   5.385   1.579  14.719 -2.2984 -0.6577  0.8980
 2833TIP3   OH229913   0.237   3.778   0.816 -0.0488 -0.4548 -0.4131
 2833TIP3    H129914   0.144   3.759   0.799 -0.3913  0.5512  0.2562
 2833TIP3    H229915   0.238   3.809   0.907  0.6783  1.2817 -1.0067
 2834TIP3   OH229916   6.133   4.443  13.995  0.3641  0.1239 -0.2355
 2834TIP3    H129917   6.223   4.475  13.998  0.2558  0.3408  1.1804
 2834TIP3    H229918   6.079   4.522  13.995  0.1644 -0.0076 -0.8295
 2835TIP3   OH229919   0.189   4.631   0.300 -0.2862  0.0420  0.1533
 2835TIP3    H129920   0.198   4.605   0.208 -0.7044  1.1605 -0.2178
 2835TIP3    H229921   0.279   4.641   0.331 -0.1442  0.5970 -0.4193
 2836TIP3   OH229922   0.241   1.265  15.034  0.2368 -0.2641  0.2457
 2836TIP3    H129923   0.191   1.230  14.960  0.4632 -0.6133  0.2612
 2836TIP3    H229924   0.184   1.332  15.071 -0.0131 -0.3124 -0.0464
 2837TIP3   OH229925   0.590   4.340   4.403 -0.1045 -0.3511  0.0126
 2837TIP3    H129926   0.602   4.435   4.403 -1.6645 -0.1311 -0.5373
 2837TIP3    H229927   0.539   4.323   4.323 -1.1275 -1.4770  0.8902
 2838TIP3   OH229928   5.914   4.481   3.514 -0.1744  0.4297  0.4807
 2838TIP3    H129929   5.923   4.447   3.604 -0.8386  1.0628  0.7907
 2838TIP3    H229930   5.869   4.411   3.467 -1.3301  0.7638  1.0627
 2839TIP3   OH229931   4.855   2.173  15.792 -0.4677  0.6212  0.0001
 2839TIP3    H129932   4.827   2.130  15.873 -1.0567 -2.1373 -1.5986
 2839TIP3    H229933   4.825   2.264  15.801 -0.1733  0.4498  3.0052
 2840TIP3   OH229934   0.237   1.467   5.589 -0.3647 -0.0678  0.4445
 2840TIP3    H129935   0.148   1.436   5.578 -0.5284  0.5614 -0.1097
 2840TIP3    H229936   0.279   1.449   5.504 -0.5289  1.3833  0.0362
 2841TIP3   OH229937   2.157   4.073  12.999  0.4055 -0.1884  0.5989
 2841TIP3    H129938   2.127   4.143  12.941  0.6579 -1.7837 -1.5320
 2841TIP3    H229939   2.252   4.076  12.992  0.4110 -0.8396  0.3843
 2842TIP3   OH229940   0.284   1.447  14.060  0.0964 -0.0306 -0.2990
 2842TIP3    H129941   0.302   1.361  14.023  1.6033 -0.5080  1.4455
 2842TIP3    H229942   0.368   1.493  14.055 -0.0493  0.4201  1.0890
 2843TIP3   OH229943   0.070   4.597   0.545  0.7432  0.2984 -0.8541
 2843TIP3    H129944   0.105   4.676   0.586  0.4929  0.7566 -1.5066
 2843TIP3    H229945   0.136   4.572   0.480  0.9793 -0.2258 -0.4141
 2844TIP3   OH229946   0.288   1.712  12.873  0.9868  0.4918 -0.3441
 2844TIP3    H129947   0.275   1.621  12.898  0.3171  0.5519 -0.4387
 2844TIP3    H229948   0.203   1.754  12.892  1.6042  1.3098  0.6440
 2845TIP3   OH229949   2.851   5.001  11.586  0.2255 -0.1028  0.0883
 2845TIP3    H129950   2.855   4.996  11.682 -0.7584  1.8165  0.2528
 2845TIP3    H229951   2.910   4.932  11.556  1.0439 -0.3004  2.0880
 2846TIP3   OH229952   5.647   6.093   2.658  0.7571 -0.6335  0.4848
 2846TIP3    H129953   5.603   6.118   2.577  1.6921 -1.7571 -0.3850
 2846TIP3    H229954   5.651   6.174   2.709  0.4915  0.1646 -0.7417
 2847TIP3   OH229955   5.824   2.784   3.110  0.8302  0.0653 -0.7411
 2847TIP3    H129956   5.734   2.791   3.143  0.5115 -0.1016 -1.5653
 2847TIP3    H229957   5.861   2.710   3.158 -0.2440 -1.4138 -2.1094
 2848TIP3   OH229958   2.566   0.769  16.426 -0.3505  0.6974  0.1073
 2848TIP3    H129959   2.480   0.757  16.385 -0.7487  2.4779  0.3836
 2848TIP3    H229960   2.578   0.691  16.479 -1.3981  0.0107 -0.6418
 2849TIP3   OH229961   0.557   6.454  11.380 -0.4325 -0.0472 -0.5049
 2849TIP3    H129962   0.525   6.365  11.368 -1.1528  0.1049  0.2078
 2849TIP3    H229963   0.595   6.478  11.296  1.1441 -1.5772 -0.2524
 2850TIP3   OH229964   3.451   6.254   2.444  0.0495  0.3959 -0.1110
 2850TIP3    H129965   3.382   6.200   2.484  1.0573 -0.4934  0.4648
 2850TIP3    H229966   3.414   6.343   2.444 -1.7107 -0.3057 -1.2630
 2851TIP3   OH229967   5.641   2.119   0.463  1.0976  0.6415 -0.5623
 2851TIP3    H129968   5.651   2.148   0.553  2.0764  1.6043 -0.9592
 2851TIP3    H229969   5.692   2.182   0.412 -0.1833  0.6400 -1.8777
 2852TIP3   OH229970   5.176   3.404   5.646 -0.1803  0.7052  0.1719
 2852TIP3    H129971   5.179   3.316   5.684 -1.4262  0.0259 -1.2276
 2852TIP3    H229972   5.217   3.460   5.712  1.3311 -1.0281  0.7644
 2853TIP3   OH229973   6.072   5.585  15.156 -0.5269 -0.1332  0.2886
 2853TIP3    H129974   5.986   5.597  15.116 -0.3558 -1.9610 -0.6943
 2853TIP3    H229975   6.053   5.561  15.246 -1.2413 -4.1515 -0.8272
 2854TIP3   OH229976   4.652   0.293  14.282  0.3310  0.1961  0.2648
 2854TIP3    H129977   4.723   0.236  14.252 -0.0755 -0.4088  0.4486
 2854TIP3    H229978   4.697   0.367  14.323  0.9153  1.0006 -1.7327
 2855TIP3   OH229979   2.317   2.502   2.895 -0.3001 -0.0546  0.0647
 2855TIP3    H129980   2.275   2.515   2.810  0.6131 -1.6422 -0.6618
 2855TIP3    H229981   2.315   2.407   2.908  0.1056  0.1234  1.5514
 2856TIP3   OH229982   1.742   0.164  14.757 -0.4984  0.2059 -0.0280
 2856TIP3    H129983   1.815   0.139  14.813  0.2217 -0.7482 -1.3607
 2856TIP3    H229984   1.726   0.256  14.778 -0.4365 -0.2051  1.9222
 2857TIP3   OH229985   3.225   5.599   4.010 -0.2103  0.2925  0.2606
 2857TIP3    H129986   3.247   5.508   4.028  3.1691  0.9093 -0.3611
 2857TIP3    H229987   3.266   5.649   4.081 -2.1145  1.3286  0.6539
 2858TIP3   OH229988   1.115   1.826   1.604 -0.3485 -0.0977  0.2175
 2858TIP3    H129989   1.109   1.794   1.694 -1.3782  1.8334  0.8564
 2858TIP3    H229990   1.207   1.849   1.593  0.0597 -1.6676  0.3037
 2859TIP3   OH229991   0.752   3.961  10.532 -0.0224  0.4654  0.8174
 2859TIP3    H129992   0.732   3.868  10.547 -0.0638  0.4963  0.9576
 2859TIP3    H229993   0.667   4.005  10.536 -0.3053  0.1875 -1.6880
 2860TIP3   OH229994   6.540   2.160   4.829 -0.8443  0.3628  0.0671
 2860TIP3    H129995   6.596   2.236   4.814  1.0780 -0.8686  0.7292
 2860TIP3    H229996   6.524   2.123   4.742  2.3026 -1.2446  0.0691
 2861TIP3   OH229997   6.191   0.371  12.620  0.3018  0.0748 -0.6970
 2861TIP3    H129998   6.276   0.328  12.633  0.8287  0.8384 -1.5639
 2861TIP3    H229999   6.137   0.341  12.693  1.6976  0.5263  0.5307
 2862TIP3   OH230000   2.883   6.340  15.593 -0.7123  0.1177 -0.2988
 2862TIP3    H130001   2.967   6.319  15.553 -0.7642 -0.8675  0.0691
 2862TIP3    H230002   2.842   6.254  15.606 -0.4039  0.3502  2.4551
 2863TIP3   OH230003   0.078   5.110   2.286 -0.0324  0.5468 -0.1710
 2863TIP3    H130004   0.064   5.041   2.221 -0.0624  0.2872  0.1118
 2863TIP3    H230005   0.005   5.171   2.272  0.4547  0.9517 -0.9690
 2864TIP3   OH230006   3.451   2.055   5.205 -0.0304  0.0271 -0.1683
 2864TIP3    H130007   3.392   2.100   5.145  0.5376  1.4276  0.3000
 2864TIP3    H230008   3.426   1.962   5.199 -1.0586  0.3715 -1.3170
 2865TIP3   OH230009   3.130   6.512  15.726  0.2808 -0.1775  0.1080
 2865TIP3    H130010   3.101   6.453  15.796 -0.1408  0.6630  0.6535
 2865TIP3    H230011   3.136   6.456  15.649 -0.8671 -0.7798  0.4403
 2866TIP3   OH230012   2.208   2.061  11.980 -0.2666  0.4634 -0.0792
 2866TIP3    H130013   2.250   2.109  12.052 -1.1092 -0.3927  0.9904
 2866TIP3    H230014   2.217   2.120  11.905  2.0372  0.6988  0.3279
 2867TIP3   OH230015   0.726   4.822   0.834  0.0404  0.2202  0.1234
 2867TIP3    H130016   0.731   4.727   0.833 -1.1786  0.1526 -0.8512
 2867TIP3    H230017   0.809   4.850   0.872 -0.0298 -1.2561  1.4054
 2868TIP3   OH230018   6.730   6.468   2.578  0.7425 -0.9617 -0.4736
 2868TIP3    H130019   6.821   6.488   2.558  1.4103 -2.9278  0.5741
 2868TIP3    H230020   6.683   6.487   2.497  1.6314  2.7206 -0.2309
 2869TIP3   OH230021   5.866   4.969  15.977  0.1758  0.9408  0.2250
 2869TIP3    H130022   5.939   4.916  15.948 -0.9462 -0.3258 -0.3482
 2869TIP3    H230023   5.828   4.921  16.051 -0.0636  1.5965  0.5448
 2870TIP3   OH230024   2.922   6.743   2.734 -0.8738  0.6875 -0.3163
 2870TIP3    H130025   2.919   6.724   2.827 -1.7420 -1.4430 -0.7623
 2870TIP3    H230026   3.009   6.715   2.707 -0.4584  1.7130 -0.0888
 2871TIP3   OH230027   2.833   2.202  15.163  0.2144  0.2244  0.6104
 2871TIP3    H130028   2.857   2.198  15.256  0.7712  1.3752  0.5344
 2871TIP3    H230029   2.913   2.232  15.120 -0.0325 -0.3538 -0.2520
 2872TIP3   OH230030   4.006   4.984   4.662 -0.1317 -0.2294  0.0721
 2872TIP3    H130031   4.073   5.016   4.722  1.2589  0.4203 -1.7881
 2872TIP3    H230032   3.940   4.944   4.719  1.5589 -0.3876  1.9614
 2873TIP3   OH230033   0.137   1.811   4.407 -0.6686 -0.2202 -0.2487
 2873TIP3    H130034   0.177   1.751   4.470  0.4492  1.4935  0.7193
 2873TIP3    H230035   0.187   1.799   4.327  0.1203  0.0488  0.2017
 2874TIP3   OH230036   0.434   4.023   5.583 -0.3354  0.3402  0.2157
 2874TIP3    H130037   0.363   4.044   5.523  0.6649  0.2316 -1.0511
 2874TIP3    H230038   0.505   4.083   5.558  0.7344 -0.9637  0.0407
 2875TIP3   OH230039   1.571   5.250  10.492  0.1957  0.2791  0.4387
 2875TIP3    H130040   1.494   5.195  10.501  0.8299 -0.4120  1.9311
 2875TIP3    H230041   1.643   5.189  10.475  0.4038  0.9270 -1.0854
 2876TIP3   OH230042   0.577   5.400  11.107 -0.6092 -0.3186 -0.0321
 2876TIP3    H130043   0.629   5.478  11.089  0.6101 -0.8046  1.2485
 2876TIP3    H230044   0.577   5.351  11.025  1.1712 -0.4131 -0.0037
 2877TIP3   OH230045   1.873   4.887   2.199  0.2577  0.2347 -0.1843
 2877TIP3    H130046   1.788   4.925   2.176 -0.0694 -0.4675 -0.1196
 2877TIP3    H230047   1.914   4.867   2.114 -0.0478 -0.3332 -0.2003
 2878TIP3   OH230048   3.006   5.906   3.436  0.0163  0.2742  0.3144
 2878TIP3    H130049   3.094   5.870   3.427  0.0662  0.7698 -1.2070
 2878TIP3    H230050   2.957   5.868   3.363 -0.7413  0.8789  0.5042
 2879TIP3   OH230051   0.010   5.906  12.567 -0.2266  0.3133 -0.1696
 2879TIP3    H130052  -0.071   5.956  12.560 -1.0860 -1.2659 -2.1515
 2879TIP3    H230053  -0.018   5.820  12.599  0.8162  0.1012  0.1969
 2880TIP3   OH230054   5.297   6.517   5.641 -0.4763  0.4578 -0.0210
 2880TIP3    H130055   5.285   6.467   5.721 -0.1155  0.0365 -0.2305
 2880TIP3    H230056   5.380   6.486   5.605 -0.1940  1.2788 -0.0928
 2881TIP3   OH230057   6.406   2.534   0.061 -0.2376 -0.0923 -0.0358
 2881TIP3    H130058   6.459   2.457   0.079  2.1574  1.6191  0.5636
 2881TIP3    H230059   6.349   2.543   0.138 -0.4568 -1.2072 -0.0736
 2882TIP3   OH230060   5.715   4.462  14.275  0.4944  0.3273  0.1174
 2882TIP3    H130061   5.641   4.452  14.335 -1.3835  1.9164 -1.8613
 2882TIP3    H230062   5.713   4.554  14.250  1.5714 -0.1862 -1.9556
 2883TIP3   OH230063   6.218   3.981  15.193  0.4980 -0.1708  0.2910
 2883TIP3    H130064   6.136   3.956  15.150 -0.1649  2.7650 -0.2661
 2883TIP3    H230065   6.276   3.906  15.180 -0.5238 -0.3880 -3.5405
 2884TIP3   OH230066   4.523   4.714   4.431  0.5257 -0.0581 -0.0846
 2884TIP3    H130067   4.607   4.713   4.476  0.6108  2.0841 -0.1506
 2884TIP3    H230068   4.544   4.720   4.338  0.3518  2.7780 -0.0009
 2885TIP3   OH230069   0.441   3.410   0.277  0.3367  0.1508  0.2090
 2885TIP3    H130070   0.350   3.433   0.259 -0.1626 -2.6667 -0.9944
 2885TIP3    H230071   0.439   3.379   0.368 -0.0892 -0.7470 -0.0973
 2886TIP3   OH230072   4.059   3.252  15.391 -0.1168  0.0113 -0.0956
 2886TIP3    H130073   4.150   3.223  15.383 -0.3867 -0.8449 -0.1068
 2886TIP3    H230074   4.023   3.242  15.303 -0.0985  0.7706 -0.1885
 2887TIP3   OH230075   4.929   6.658   2.654  0.1235  0.5834 -0.1837
 2887TIP3    H130076   4.934   6.565   2.679  1.0620  0.6546 -0.0775
 2887TIP3    H230077   4.848   6.689   2.693  0.4542  0.1239  0.8794
 2888TIP3   OH230078   1.472   2.887   4.833 -0.0510  0.3196  0.2823
 2888TIP3    H130079   1.389   2.851   4.803 -0.6200  0.9717  1.0470
 2888TIP3    H230080   1.458   2.906   4.926  0.5242  1.6445  0.1069
 2889TIP3   OH230081   4.800   5.341  16.331 -0.2326 -0.2496 -0.4589
 2889TIP3    H130082   4.830   5.280  16.399  0.3033  0.1579 -0.3345
 2889TIP3    H230083   4.759   5.284  16.266 -0.9843 -0.6217  0.3231
 2890TIP3   OH230084   1.131   0.336   4.418  0.6209  0.1574 -0.0515
 2890TIP3    H130085   1.152   0.271   4.350  1.0793 -0.2944  0.5175
 2890TIP3    H230086   1.110   0.284   4.495 -0.2878  0.6660  0.0487
 2891TIP3   OH230087   1.531   3.120  15.855  0.1756  0.5555  0.2990
 2891TIP3    H130088   1.483   3.149  15.778  0.8981  0.7543 -0.0890
 2891TIP3    H230089   1.616   3.164  15.848  0.7740 -0.5380  0.4493
 2892TIP3   OH230090   1.731   5.284  13.800 -0.7398  0.1017  0.3351
 2892TIP3    H130091   1.648   5.283  13.848  0.0250  1.1531  1.7003
 2892TIP3    H230092   1.736   5.372  13.762 -0.4865 -0.1358 -0.1935
 2893TIP3   OH230093   3.866   4.439  15.046 -0.4368 -0.1279 -0.1071
 2893TIP3    H130094   3.862   4.487  14.963 -1.7281 -0.1823 -0.0878
 2893TIP3    H230095   3.837   4.351  15.024 -0.2256 -0.3007  0.3023
 2894TIP3   OH230096   6.768   1.212  12.105  0.3733 -0.3228  0.3860
 2894TIP3    H130097   6.690   1.263  12.128  0.4591  0.2883 -0.6323
 2894TIP3    H230098   6.754   1.186  12.014  1.0059 -0.8720  0.4388
 2895TIP3   OH230099   3.546   2.769   3.762  0.6813 -0.3346 -0.7925
 2895TIP3    H130100   3.500   2.689   3.788 -0.5834  0.2600 -1.1642
 2895TIP3    H230101   3.524   2.780   3.670  0.4963  0.6832 -0.6332
 2896TIP3   OH230102   2.894   2.289   0.005 -0.2173  0.4230 -0.6502
 2896TIP3    H130103   2.902   2.375   0.047 -0.1105 -1.0716  2.5200
 2896TIP3    H230104   2.814   2.252   0.042 -0.8905 -0.4055 -2.8786
 2897TIP3   OH230105   1.342   1.352  16.309 -0.4212  0.5882 -0.3097
 2897TIP3    H130106   1.258   1.373  16.267  0.0499  1.3063 -0.9076
 2897TIP3    H230107   1.406   1.364  16.239  0.2890  1.0366  0.4217
 2898TIP3   OH230108   6.023   2.116  11.609  0.2088  0.2529 -0.3881
 2898TIP3    H130109   6.002   2.189  11.667  1.1190  0.0532  0.1950
 2898TIP3    H230110   6.045   2.157  11.526 -1.6710  0.5140 -0.7887
 2899TIP3   OH230111   4.319   4.726  13.523  0.0706  0.5996 -0.0957
 2899TIP3    H130112   4.345   4.701  13.434 -0.7537 -0.3372 -0.0877
 2899TIP3    H230113   4.224   4.711  13.525  0.2683 -0.5435  1.3068
 2900TIP3   OH230114   3.733   4.132  15.058  0.1610 -0.3554 -0.3006
 2900TIP3    H130115   3.650   4.136  15.011  0.0695  3.1148  0.0374
 2900TIP3    H230116   3.714   4.169  15.144  1.8858 -0.1621  0.0229
 2901TIP3   OH230117   5.297   0.517  11.407 -0.4179 -0.1556 -0.1295
 2901TIP3    H130118   5.375   0.532  11.460 -0.1678 -1.7280 -0.0225
 2901TIP3    H230119   5.262   0.605  11.390 -0.0383  0.4213  1.9457
 2902TIP3   OH230120   1.150   1.500   4.005 -0.6652 -0.1360 -0.0017
 2902TIP3    H130121   1.186   1.435   3.945 -0.6005 -0.8838  0.8287
 2902TIP3    H230122   1.101   1.449   4.069  1.4702  0.3694  2.1584
 2903TIP3   OH230123   0.806   1.576   2.264 -0.4669 -0.4559 -0.0759
 2903TIP3    H130124   0.841   1.661   2.238 -2.4295  0.1758 -0.8024
 2903TIP3    H230125   0.790   1.584   2.358 -1.4265  0.2912 -0.2932
 2904TIP3   OH230126   5.186   0.969   0.622  0.4904  0.3114  0.3931
 2904TIP3    H130127   5.154   1.039   0.565 -0.5741  0.3895  1.0883
 2904TIP3    H230128   5.132   0.973   0.700  0.3483 -1.3421  0.4151
 2905TIP3   OH230129   1.897   1.240  10.495 -0.4704 -0.4812 -0.2782
 2905TIP3    H130130   1.923   1.201  10.578  1.7968 -0.5317 -0.9735
 2905TIP3    H230131   1.965   1.305  10.476 -3.0098  2.3314 -0.1993
 2906TIP3   OH230132   5.370   3.482  11.687 -0.0577  0.0034 -0.3713
 2906TIP3    H130133   5.454   3.441  11.703  0.5818  1.6631  0.6439
 2906TIP3    H230134   5.374   3.512  11.596  1.4002  2.2031  0.3832
 2907TIP3   OH230135   4.281   0.179  16.231  0.1207 -0.8298 -0.6025
 2907TIP3    H130136   4.318   0.127  16.303  0.9329  1.4307  0.6612
 2907TIP3    H230137   4.352   0.182  16.166  0.6522 -0.0359 -0.0011
 2908TIP3   OH230138   5.957   0.179  15.406  0.7063 -0.5340 -0.7879
 2908TIP3    H130139   5.942   0.268  15.437  0.6235 -0.4960 -0.9379
 2908TIP3    H230140   6.024   0.144  15.465 -1.1724 -1.2773  0.9507
 2909TIP3   OH230141   1.351   2.572  15.872  0.6057  0.6153 -0.2228
 2909TIP3    H130142   1.404   2.594  15.795 -0.5584  1.4688 -0.7836
 2909TIP3    H230143   1.333   2.656  15.914 -0.4949  0.3507 -0.1592
 2910TIP3   OH230144   6.144   4.148  12.859  0.1706 -0.4181 -0.4532
 2910TIP3    H130145   6.089   4.079  12.822  0.6105 -1.3791  0.6635
 2910TIP3    H230146   6.221   4.103  12.893  0.3240  0.5765  0.5637
 2911TIP3   OH230147   1.795   4.386  13.733  0.1570  0.2499 -0.6022
 2911TIP3    H130148   1.854   4.413  13.802  3.2112  0.1996 -3.0711
 2911TIP3    H230149   1.793   4.460  13.672 -1.6841 -0.0917 -1.0110
 2912TIP3   OH230150   5.971   6.492  15.074  0.1048 -0.0467  0.1294
 2912TIP3    H130151   6.034   6.525  15.139 -0.5210  0.4321  0.4883
 2912TIP3    H230152   5.987   6.397  15.072  1.8726  0.2423 -0.8757
 2913TIP3   OH230153   4.935   1.110  15.086 -0.1254  0.2455  0.4911
 2913TIP3    H130154   5.006   1.160  15.047  0.4080 -1.3253 -0.6004
 2913TIP3    H230155   4.857   1.165  15.074  0.3175  0.4841 -1.3625
 2914TIP3   OH230156   1.488   6.452   0.323 -0.1470 -0.6819  0.6419
 2914TIP3    H130157   1.492   6.506   0.244  0.3655 -0.8919  0.5212
 2914TIP3    H230158   1.471   6.364   0.290  0.5293 -0.8493  0.7310
 2915TIP3   OH230159   5.017   0.096  15.678  0.0098  0.1418 -0.0883
 2915TIP3    H130160   5.070   0.033  15.727  0.2203 -0.8447 -1.5675
 2915TIP3    H230161   4.927   0.063  15.688 -0.2621  1.3838  1.7720
 2916TIP3   OH230162   1.588   0.785   1.283  0.2583 -0.4302  0.9103
 2916TIP3    H130163   1.655   0.723   1.256  0.2414  0.9812 -2.6526
 2916TIP3    H230164   1.598   0.859   1.223 -3.1385  0.7099  1.6307
 2917TIP3   OH230165   4.286   6.236   5.952  0.2854 -0.3264  0.3259
 2917TIP3    H130166   4.271   6.229   5.858  1.2301 -0.6260  0.1932
 2917TIP3    H230167   4.291   6.146   5.983  1.4298 -0.2262  0.4282
 2918TIP3   OH230168   5.461   0.547   3.207 -0.0486 -0.3527  0.3458
 2918TIP3    H130169   5.503   0.502   3.134 -0.4590 -0.6232  0.2726
 2918TIP3    H230170   5.371   0.514   3.207 -0.6759  1.2940 -0.3943
 2919TIP3   OH230171   3.570   3.998   2.677 -0.6118 -0.0953 -0.2015
 2919TIP3    H130172   3.655   4.014   2.719  0.5465 -2.3301 -1.5962
 2919TIP3    H230173   3.514   4.068   2.709  1.5351  0.9478  1.4017
 2920TIP3   OH230174   3.356   6.300  11.600  0.1235  0.2888 -0.2237
 2920TIP3    H130175   3.300   6.227  11.573 -0.4160  1.0612 -1.1963
 2920TIP3    H230176   3.385   6.276  11.688 -1.0882 -0.4889 -0.0262
 2921TIP3   OH230177   5.572   3.040  10.846  0.0954 -0.1406  0.2928
 2921TIP3    H130178   5.590   2.954  10.807  0.6618  0.1314 -0.0561
 2921TIP3    H230179   5.536   3.020  10.932  1.2004 -0.7300  0.6369
 2922TIP3   OH230180   3.643   2.627  14.987  0.3007 -0.6396 -0.3167
 2922TIP3    H130181   3.608   2.596  15.071  0.2624  0.4205  0.0580
 2922TIP3    H230182   3.721   2.574  14.974 -1.1748 -2.7503 -0.9651
 2923TIP3   OH230183   1.325   6.466   1.512  0.6013  0.0922  0.2447
 2923TIP3    H130184   1.256   6.460   1.578 -0.2799 -0.1031 -0.6819
 2923TIP3    H230185   1.279   6.478   1.429  1.7091  0.7034 -0.2978
 2924TIP3   OH230186   6.016   0.696  12.890 -0.4365 -0.4789  0.4653
 2924TIP3    H130187   6.003   0.617  12.837  1.1149  0.3701 -1.2381
 2924TIP3    H230188   5.950   0.758  12.859  0.4128 -0.0135 -0.4386
 2925TIP3   OH230189   4.921   0.009   0.292  0.1550 -0.2773  0.8825
 2925TIP3    H130190   4.980  -0.063   0.268  1.9886  1.5418 -0.2117
 2925TIP3    H230191   4.858  -0.031   0.352 -0.2348 -3.3146 -1.4157
 2926TIP3   OH230192   5.393   4.311  12.134  0.6420 -0.2906 -0.8615
 2926TIP3    H130193   5.371   4.382  12.073  1.0035  0.6041  0.0495
 2926TIP3    H230194   5.416   4.355  12.216  1.3014 -1.4367 -0.4167
 2927TIP3   OH230195   3.341   6.618  11.901 -0.2081  0.2445 -0.0256
 2927TIP3    H130196   3.299   6.551  11.847 -0.2021  0.1495  0.0884
 2927TIP3    H230197   3.382   6.569  11.972  0.4569  0.2946 -0.3636
 2928TIP3   OH230198   1.502   6.112   5.235 -0.0219 -0.3358 -0.2884
 2928TIP3    H130199   1.447   6.133   5.159 -0.8460  0.9803  0.6476
 2928TIP3    H230200   1.573   6.176   5.231 -0.7169  0.5268  0.6887
 2929TIP3   OH230201   3.689   1.065  13.030 -0.4834 -0.7509 -0.0922
 2929TIP3    H130202   3.696   1.157  13.054 -2.8279 -0.7216  0.6010
 2929TIP3    H230203   3.779   1.034  13.029  0.4668  1.8485 -1.6033
 2930TIP3   OH230204   6.197   3.505  13.770  0.0916  0.2096 -0.5311
 2930TIP3    H130205   6.271   3.552  13.808  1.2943 -1.5892 -0.5850
 2930TIP3    H230206   6.125   3.567  13.773  0.9095  1.0856  1.9983
 2931TIP3   OH230207   5.713   4.620  11.580  0.1931  0.0689  0.2631
 2931TIP3    H130208   5.639   4.681  11.573  0.2330  0.4719  2.8039
 2931TIP3    H230209   5.785   4.674  11.611  0.9698 -0.7504 -0.1087
 2932TIP3   OH230210   4.716   0.952  14.881  0.4650  0.4261  0.3431
 2932TIP3    H130211   4.747   0.997  14.803  1.1801  1.8508  1.4278
 2932TIP3    H230212   4.738   0.860  14.867 -0.0529  0.5612 -1.4327
 2933TIP3   OH230213   5.894   4.859   5.386  0.4089  0.0448 -0.0937
 2933TIP3    H130214   5.870   4.769   5.365 -0.1331  0.0002  0.6819
 2933TIP3    H230215   5.932   4.853   5.473 -2.0274  0.9096  1.0868
 2934TIP3   OH230216   0.225   5.934  11.959 -0.0113  0.2499  0.1076
 2934TIP3    H130217   0.222   5.922  12.054  0.3511  0.4326  0.1394
 2934TIP3    H230218   0.304   5.888  11.931  0.0814  0.5120 -0.0604
 2935TIP3   OH230219   3.970   4.645  13.183 -0.3198 -0.3966 -0.5991
 2935TIP3    H130220   4.028   4.718  13.159 -0.9224 -0.1336 -1.2548
 2935TIP3    H230221   3.897   4.687  13.228  0.1243 -0.7548  0.4602
 2936TIP3   OH230222   2.478   1.759   5.687 -0.0589 -0.4191 -0.7802
 2936TIP3    H130223   2.394   1.759   5.732  0.0874 -0.8950 -0.5022
 2936TIP3    H230224   2.458   1.734   5.597 -0.1197 -1.3169 -0.5236
 2937TIP3   OH230225   2.610   3.092  15.620 -0.2259 -0.2921  0.5463
 2937TIP3    H130226   2.577   3.081  15.531 -1.4467 -1.3789  1.1056
 2937TIP3    H230227   2.533   3.077  15.675  0.5307  0.3154  1.7865
 2938TIP3   OH230228   0.124   4.051   3.424 -0.2305  0.1715  0.1989
 2938TIP3    H130229   0.185   4.026   3.356 -1.0082  0.3507 -0.5685
 2938TIP3    H230230   0.090   4.136   3.397  1.2297  1.3809  2.0163
 2939TIP3   OH230231   6.439   2.768  13.183 -0.1948  0.2349  0.0942
 2939TIP3    H130232   6.498   2.771  13.107 -0.8416  0.3186 -0.4101
 2939TIP3    H230233   6.479   2.828  13.247  1.6203 -1.6491  0.7570
 2940TIP3   OH230234   6.365   1.093   0.462 -0.1243  0.0162 -0.2177
 2940TIP3    H130235   6.417   1.139   0.397 -1.5028 -0.1681 -1.4784
 2940TIP3    H230236   6.399   1.003   0.462 -0.6427 -0.1876 -1.2717
 2941TIP3   OH230237   5.313   3.854  17.020  0.2784 -0.2098 -0.3958
 2941TIP3    H130238   5.387   3.912  17.041 -0.7488  1.2346 -0.6977
 2941TIP3    H230239   5.354   3.775  16.987  1.7070  0.5119 -0.4137
 2942TIP3   OH230240   2.354   4.009  14.336 -0.3248 -0.4230  0.0935
 2942TIP3    H130241   2.410   3.935  14.359 -0.2775 -0.5176 -0.3211
 2942TIP3    H230242   2.415   4.078  14.308 -0.2945  0.1912  1.6251
 2943TIP3   OH230243   3.092   2.723   0.092 -0.1900 -0.2215  0.1544
 2943TIP3    H130244   3.178   2.684   0.105 -0.1410 -0.8704 -1.9870
 2943TIP3    H230245   3.109   2.817   0.085  0.3752 -0.3794 -0.5676
 2944TIP3   OH230246   3.955   1.901   5.829 -0.1526  0.2596 -0.0645
 2944TIP3    H130247   3.863   1.889   5.854  0.1787  0.2477  1.1666
 2944TIP3    H230248   3.951   1.927   5.737 -1.4197  0.7232  0.1064
 2945TIP3   OH230249   6.051   5.793   1.954  0.3790 -0.1799  0.0678
 2945TIP3    H130250   5.991   5.765   2.023  0.7861 -1.3854 -0.0647
 2945TIP3    H230251   6.135   5.755   1.978  0.4379 -0.9443 -1.2929
 2946TIP3   OH230252   6.170   1.788   3.079  0.4933  0.3843 -0.1919
 2946TIP3    H130253   6.092   1.745   3.115 -0.5681  1.4447 -1.1613
 2946TIP3    H230254   6.233   1.718   3.067 -0.7393 -0.6931 -0.4840
 2947TIP3   OH230255   3.081   3.435   5.401 -0.3492 -0.1017 -0.0683
 2947TIP3    H130256   3.098   3.352   5.356  1.2490 -0.7478  1.6984
 2947TIP3    H230257   3.104   3.502   5.336 -0.8393 -1.0109 -1.2096
 2948TIP3   OH230258   0.110   5.524   5.307  0.5115  0.0454 -0.2986
 2948TIP3    H130259   0.068   5.447   5.344  0.6748 -0.7609 -1.7401
 2948TIP3    H230260   0.138   5.576   5.383 -2.2135  0.1470  0.6977
 2949TIP3   OH230261   5.550   3.856  14.012  0.4813 -0.2323 -0.8861
 2949TIP3    H130262   5.502   3.901  13.943  0.0766  0.5530 -0.1050
 2949TIP3    H230263   5.642   3.880  13.998  0.3092  0.5684 -0.6840
 2950TIP3   OH230264   2.986   0.056  14.886 -0.1533  0.1491 -0.0419
 2950TIP3    H130265   3.025  -0.031  14.888 -1.7504 -0.5786  0.3775
 2950TIP3    H230266   3.036   0.106  14.951  1.3462 -0.1734 -0.9142
 2951TIP3   OH230267   5.276   0.080  10.779 -0.0315 -0.0778 -0.2014
 2951TIP3    H130268   5.306   0.114  10.863  0.9485  0.3755 -0.7266
 2951TIP3    H230269   5.304   0.146  10.715  1.9590 -1.9054 -1.2440
 2952TIP3   OH230270   6.308   1.681   0.636  0.3574 -0.3167  0.5676
 2952TIP3    H130271   6.355   1.748   0.686 -0.1438  0.1002  0.4868
 2952TIP3    H230272   6.305   1.605   0.694  0.3132 -0.0337  0.9354
 2953TIP3   OH230273   6.507   3.583   3.866 -0.3482 -0.4717 -0.0431
 2953TIP3    H130274   6.578   3.570   3.802  0.7335 -0.5030  1.1373
 2953TIP3    H230275   6.430   3.545   3.824 -0.0372  0.9981 -2.0370
 2954TIP3   OH230276   4.913   3.625  14.179 -0.0943 -0.2459  0.3225
 2954TIP3    H130277   4.939   3.664  14.096 -0.0115  0.6571  0.7639
 2954TIP3    H230278   4.817   3.632  14.180 -0.1198 -0.5513  0.1624
 2955TIP3   OH230279   6.672   2.957  12.578 -0.0355 -0.1346 -0.1602
 2955TIP3    H130280   6.702   2.884  12.524 -0.9108 -0.1750 -0.6111
 2955TIP3    H230281   6.580   2.936  12.597  0.4905 -0.5463  2.0634
 2956TIP3   OH230282   4.921   0.954  15.846  0.1920 -0.1782 -0.7935
 2956TIP3    H130283   4.841   0.969  15.897 -0.4054 -0.4741 -1.6293
 2956TIP3    H230284   4.892   0.904  15.770  1.5364 -2.3527  0.0686
 2957TIP3   OH230285   1.418   1.613  15.942  0.0987  0.1630 -0.1202
 2957TIP3    H130286   1.325   1.606  15.964 -0.2803  1.1062 -1.3740
 2957TIP3    H230287   1.420   1.614  15.847  1.4335 -0.2532 -0.1006
 2958TIP3   OH230288   0.576   5.616   1.148  0.3982 -0.0485 -0.2157
 2958TIP3    H130289   0.609   5.624   1.058  0.6006  0.6424 -0.0871
 2958TIP3    H230290   0.604   5.529   1.176  0.3807 -0.2473 -0.8020
 2959TIP3   OH230291   5.667   5.901  13.315 -0.0569  0.0564  0.3927
 2959TIP3    H130292   5.656   5.989  13.350  1.4580 -0.3171  1.8628
 2959TIP3    H230293   5.751   5.904  13.268 -1.0754 -0.0137 -1.4697
 2960TIP3   OH230294   2.590   2.861  14.592  0.5203 -0.2273  0.1802
 2960TIP3    H130295   2.636   2.851  14.508  1.0395 -3.1568  0.7676
 2960TIP3    H230296   2.498   2.844  14.571  0.5288 -0.1066  0.0444
 2961TIP3   OH230297   2.683   1.123  16.762  0.0417  0.3629  0.2753
 2961TIP3    H130298   2.641   1.071  16.694  2.4011  0.5381 -1.3746
 2961TIP3    H230299   2.610   1.166  16.807 -1.8511 -3.0524  0.6640
 2962TIP3   OH230300   3.583   0.508   5.003 -0.0074  0.3808  0.1641
 2962TIP3    H130301   3.492   0.513   4.973  0.0368  0.4999  0.0473
 2962TIP3    H230302   3.587   0.426   5.052 -0.0739  0.1621 -0.1868
 2963TIP3   OH230303   0.077   0.303  13.904 -0.2564 -0.0844 -0.3142
 2963TIP3    H130304   0.014   0.373  13.885 -0.4043 -0.1667 -0.1273
 2963TIP3    H230305   0.041   0.258  13.980  1.1689  1.2410  1.1500
 2964TIP3   OH230306   5.604   3.068   0.768 -0.4399 -0.7645 -0.0307
 2964TIP3    H130307   5.574   3.008   0.836 -0.4280  0.6221  1.2089
 2964TIP3    H230308   5.698   3.080   0.786 -0.3181 -0.8175 -0.6200
 2965TIP3   OH230309   2.144   5.886  14.961  0.3020  0.1859 -0.0668
 2965TIP3    H130310   2.237   5.864  14.953  0.4386  0.6093  0.3172
 2965TIP3    H230311   2.101   5.802  14.977  0.5262 -0.1070 -0.9962
 2966TIP3   OH230312   0.308   4.143   3.936  0.4358  0.4232 -0.7223
 2966TIP3    H130313   0.380   4.139   3.873 -1.4574  1.9342 -3.1116
 2966TIP3    H230314   0.311   4.232   3.970  0.3934  0.1387  0.0228
 2967TIP3   OH230315   3.528   0.007  16.806  0.0686 -0.6354  0.0432
 2967TIP3    H130316   3.605   0.003  16.748  0.1518  1.0994 -0.0089
 2967TIP3    H230317   3.557  -0.033  16.887  1.0313 -0.0231  0.0099
 2968TIP3   OH230318   0.119   3.700  16.441 -0.3769  0.4494 -0.2480
 2968TIP3    H130319   0.080   3.649  16.512  0.1001 -0.0811 -0.3602
 2968TIP3    H230320   0.074   3.671  16.362 -1.3557  1.5013 -0.0920
 2969TIP3   OH230321   5.666   6.591  13.301 -0.6571  0.5515 -0.3894
 2969TIP3    H130322   5.700   6.501  13.292 -1.4238  0.4176 -2.0692
 2969TIP3    H230323   5.741   6.641  13.334  0.6443 -0.1514 -2.1491
 2970TIP3   OH230324   1.716   6.667   4.857 -0.0748  0.2449 -0.2837
 2970TIP3    H130325   1.791   6.652   4.800  0.0215 -0.1657 -0.0484
 2970TIP3    H230326   1.732   6.754   4.895  0.7568 -0.2463  0.5024
 2971TIP3   OH230327   6.503   3.453   1.060 -0.0919 -0.5645  0.3267
 2971TIP3    H130328   6.566   3.383   1.048 -0.5333 -0.9077 -0.0083
 2971TIP3    H230329   6.447   3.450   0.982 -0.0876  0.1851  0.2849
 2972TIP3   OH230330   0.296   4.721   2.984 -0.2417 -0.0523  0.3614
 2972TIP3    H130331   0.285   4.786   2.914 -0.5902  0.9727  1.3501
 2972TIP3    H230332   0.350   4.765   3.050  0.7100 -1.2709  0.4073
 2973TIP3   OH230333   5.404   6.643  13.876  0.2763  0.2016 -0.7074
 2973TIP3    H130334   5.462   6.719  13.886 -0.0339  0.5719 -1.6451
 2973TIP3    H230335   5.457   6.568  13.903 -0.3387  1.0528  3.1650
 2974TIP3   OH230336   2.655   5.013   0.109  0.1360 -0.5416 -0.6287
 2974TIP3    H130337   2.666   5.102   0.076 -0.2025 -1.5591 -3.6722
 2974TIP3    H230338   2.562   5.008   0.133  0.0698 -0.1739 -0.8032
 2975TIP3   OH230339   1.813   0.996  13.922  0.0223  0.4258 -0.5496
 2975TIP3    H130340   1.749   1.040  13.979  0.1082  0.0176 -0.1404
 2975TIP3    H230341   1.881   0.966  13.981  0.4606  0.6153 -0.9562
 2976TIP3   OH230342   6.513   0.939   0.979  0.0967 -0.7195 -0.5815
 2976TIP3    H130343   6.585   0.939   1.042  0.8868 -2.2313 -1.4663
 2976TIP3    H230344   6.555   0.948   0.893 -0.9352  0.7923 -0.9724
 2977TIP3   OH230345   2.068   2.131  14.172  0.6164  0.0256  0.2316
 2977TIP3    H130346   2.058   2.056  14.114 -0.1144 -0.1762  0.6161
 2977TIP3    H230347   2.053   2.096  14.260  0.0523  0.6630  0.3902
 2978TIP3   OH230348   0.894   4.332  13.948 -0.4910 -0.1306  0.1917
 2978TIP3    H130349   0.885   4.419  13.987  0.8387 -0.2408  0.7708
 2978TIP3    H230350   0.809   4.315  13.908 -0.8119  1.3730  0.2021
 2979TIP3   OH230351   4.066   4.530   3.955 -0.2229 -1.0781  0.1190
 2979TIP3    H130352   4.114   4.578   4.023 -0.1247  0.1505 -0.7987
 2979TIP3    H230353   3.975   4.555   3.969 -0.2531 -1.1591  0.0647
 2980TIP3   OH230354   5.276   0.845  14.281  0.0554  0.1344  0.1156
 2980TIP3    H130355   5.228   0.780  14.332 -2.2129  0.3143 -1.7176
 2980TIP3    H230356   5.367   0.815  14.284 -0.3105 -0.9022  2.6029
 2981TIP3   OH230357   4.279   5.972  12.179  0.1309 -0.2428 -0.1218
 2981TIP3    H130358   4.243   5.953  12.092  1.3371  2.9571 -1.3927
 2981TIP3    H230359   4.228   6.046  12.210  0.3699 -0.7532  1.5186
 2982TIP3   OH230360   0.445   4.930   5.341 -0.1172 -0.2116  0.6660
 2982TIP3    H130361   0.351   4.945   5.354 -0.1707 -1.4465  1.8279
 2982TIP3    H230362   0.481   4.929   5.430  1.2410  1.6579  0.1650
 2983TIP3   OH230363   2.524   0.060  12.211  0.1674  0.1558 -0.3884
 2983TIP3    H130364   2.541   0.154  12.218  2.1173 -0.0415 -1.8403
 2983TIP3    H230365   2.468   0.040  12.285 -2.2055  2.8866 -1.3325
 2984TIP3   OH230366   5.214   0.458   5.628 -0.1658 -0.1865 -0.8709
 2984TIP3    H130367   5.123   0.429   5.631 -0.2395  0.1021 -0.2322
 2984TIP3    H230368   5.265   0.381   5.653 -0.2327 -0.3560 -1.2577
 2985TIP3   OH230369   6.600   1.182  10.700 -0.0171  0.1316  0.0630
 2985TIP3    H130370   6.515   1.194  10.659  0.3107  0.2538 -0.5962
 2985TIP3    H230371   6.596   1.095  10.739 -0.4078  0.0974 -0.0495
 2986TIP3   OH230372   3.005   5.778  16.945  0.3540  0.4144  0.3418
 2986TIP3    H130373   2.926   5.728  16.964 -0.1964  0.4751 -1.6422
 2986TIP3    H230374   2.995   5.860  16.992 -1.9151  1.4271 -1.8465
 2987TIP3   OH230375   5.348   4.509  16.293 -0.1546 -0.7501  0.0938
 2987TIP3    H130376   5.316   4.592  16.328  1.9565  0.5650 -1.0294
 2987TIP3    H230377   5.356   4.452  16.370 -1.9113 -0.0694  0.8213
 2988TIP3   OH230378   6.079   3.048   4.903 -0.5976  0.1223 -0.4899
 2988TIP3    H130379   6.147   3.021   4.965 -0.8195 -0.6795 -0.5919
 2988TIP3    H230380   6.058   3.138   4.929  2.3634  1.3618 -2.1289
 2989TIP3   OH230381   5.422   6.562  17.186  0.0344 -0.6810 -0.0867
 2989TIP3    H130382   5.406   6.552  17.280 -2.8347 -0.7303 -0.5276
 2989TIP3    H230383   5.335   6.573  17.148  1.2883  1.4642 -2.5109
 2990TIP3   OH230384   1.856   5.838  13.844 -0.0866  0.2393 -0.1704
 2990TIP3    H130385   1.877   5.798  13.927  1.0263 -1.2255 -1.1426
 2990TIP3    H230386   1.940   5.866  13.808 -0.5355  0.7007 -0.8960
 2991TIP3   OH230387   5.772   0.825  16.073  0.9010  0.4096 -0.2219
 2991TIP3    H130388   5.867   0.834  16.072  0.9180  0.1365 -0.8700
 2991TIP3    H230389   5.739   0.912  16.097  1.4345 -0.3082  3.4449
 2992TIP3   OH230390   3.182   0.307  16.906  0.2215  0.2712 -0.2449
 2992TIP3    H130391   3.196   0.234  16.845 -0.9984  1.2598 -1.7272
 2992TIP3    H230392   3.139   0.266  16.981  0.1720 -0.6594 -0.7625
 2993TIP3   OH230393   3.123   4.923   3.660 -0.6367 -0.1317  0.3013
 2993TIP3    H130394   3.185   4.984   3.700  2.1331 -2.0568 -0.9083
 2993TIP3    H230395   3.120   4.849   3.721 -0.2301 -0.8956 -0.5973
 2994TIP3   OH230396   5.028   0.202  12.175 -0.3422  0.4225  0.2282
 2994TIP3    H130397   5.061   0.113  12.162  1.9906  1.4485 -1.3525
 2994TIP3    H230398   4.955   0.210  12.114 -0.8328 -0.5300  0.6771
 2995TIP3   OH230399   2.581   3.334  14.664 -0.1401 -0.4381 -0.4140
 2995TIP3    H130400   2.629   3.379  14.734 -1.0424 -0.2006  0.0617
 2995TIP3    H230401   2.647   3.279  14.621  0.6589  0.2539 -0.0829
 2996TIP3   OH230402   1.675   1.977   2.647  0.1556  0.3763 -0.6298
 2996TIP3    H130403   1.687   2.041   2.718  1.2064  0.6097 -0.9999
 2996TIP3    H230404   1.670   2.031   2.568 -3.1238  0.2646 -0.5665
 2997TIP3   OH230405   6.392   2.645  11.370  0.5557  0.4472  0.7516
 2997TIP3    H130406   6.480   2.631  11.405  1.6405  0.5370 -1.8074
 2997TIP3    H230407   6.363   2.728  11.410  1.4982  0.2551  1.8496
 2998TIP3   OH230408   5.351   2.599  12.312 -0.1893 -0.2127  0.2718
 2998TIP3    H130409   5.303   2.679  12.293  0.1744  0.3269  1.5780
 2998TIP3    H230410   5.352   2.551  12.229 -2.9974 -0.2704  0.2495
 2999TIP3   OH230411   0.959   3.627  12.087  0.9571  0.6644 -0.0684
 2999TIP3    H130412   0.985   3.645  11.997 -1.9723 -0.4520 -1.2071
 2999TIP3    H230413   0.882   3.681  12.101  1.3109  0.7209  1.7395
 3000TIP3   OH230414   3.999   6.160   5.668  0.0683  0.1379 -0.0864
 3000TIP3    H130415   3.989   6.230   5.732 -0.9509 -0.3992  0.3625
 3000TIP3    H230416   3.911   6.147   5.633 -0.2297 -2.4329  1.4716
 3001TIP3   OH230417   3.677   4.371  16.776 -0.0221 -0.4583 -0.3116
 3001TIP3    H130418   3.657   4.283  16.744 -1.0559 -0.3949  0.1510
 3001TIP3    H230419   3.605   4.426  16.744  0.1087  0.0314  0.2194
 3002TIP3   OH230420   3.397   4.357  12.793 -0.5714 -0.4976  0.2707
 3002TIP3    H130421   3.430   4.428  12.736 -0.9218  0.4606  1.2399
 3002TIP3    H230422   3.343   4.304  12.735 -0.5887  0.2384 -0.4082
 3003TIP3   OH230423   5.989   3.213   4.131 -0.3634 -0.2897 -0.7607
 3003TIP3    H130424   5.950   3.272   4.066 -0.1532  1.5078  0.6910
 3003TIP3    H230425   6.081   3.209   4.106 -0.5208 -0.5842 -1.2980
 3004TIP3   OH230426   3.578   5.609  12.480 -0.3468 -0.0333  0.2544
 3004TIP3    H130427   3.632   5.688  12.475 -0.5176  0.1893  1.6294
 3004TIP3    H230428   3.546   5.596  12.391  0.8636  0.6172 -0.2846
 3005TIP3   OH230429   6.523   0.599   4.648  0.1654 -0.0404  0.0020
 3005TIP3    H130430   6.472   0.660   4.701  0.7187 -0.8402  1.5022
 3005TIP3    H230431   6.610   0.598   4.690  0.0481 -2.1371  0.2470
 3006TIP3   OH230432   1.451   0.112   3.281 -0.4522  0.1728 -0.5929
 3006TIP3    H130433   1.429   0.058   3.205 -0.9265 -1.2768  0.5486
 3006TIP3    H230434   1.461   0.049   3.352 -1.6349  1.6545  0.9124
 3007TIP3   OH230435   2.184   6.664   3.785  0.4351  0.2682  0.1380
 3007TIP3    H130436   2.264   6.616   3.761  0.7884  1.0000 -0.1670
 3007TIP3    H230437   2.113   6.615   3.744  0.8921  0.6203 -1.1156
 3008TIP3   OH230438   5.890   4.325  12.645  0.3294 -0.2214 -0.1230
 3008TIP3    H130439   5.912   4.299  12.735 -0.6572 -0.4849  0.0448
 3008TIP3    H230440   5.819   4.266  12.619  3.5698 -3.1937 -2.7000
 3009TIP3   OH230441   6.540   0.332   2.215  0.1615 -0.0631 -0.3608
 3009TIP3    H130442   6.559   0.399   2.150  1.0127 -0.2288 -0.2836
 3009TIP3    H230443   6.451   0.304   2.195 -0.7809  2.1520  0.5436
 3010TIP3   OH230444   3.020   4.033  17.224  1.1109  0.3428  0.4155
 3010TIP3    H130445   2.946   4.050  17.165 -0.7992  0.4926  2.7904
 3010TIP3    H230446   3.045   3.942  17.204 -0.5536 -0.1538  0.4630
 3011TIP3   OH230447   1.263   5.908   4.711 -0.6469  0.3677 -0.0872
 3011TIP3    H130448   1.283   5.909   4.804 -3.3516 -0.6659  0.5457
 3011TIP3    H230449   1.206   5.832   4.699 -1.8439  1.5546 -2.2342
 3012TIP3   OH230450   3.971   5.208  15.150 -0.1199 -0.3151  0.5196
 3012TIP3    H130451   3.976   5.148  15.077  2.4229 -0.5520  0.8517
 3012TIP3    H230452   4.027   5.170  15.218  1.7789  2.4940  0.6413
 3013TIP3   OH230453   1.357   1.527  14.936  0.4663  0.2899 -0.3405
 3013TIP3    H130454   1.284   1.553  14.880 -0.3885 -2.4137 -0.5473
 3013TIP3    H230455   1.425   1.498  14.876  0.1512 -1.1011 -0.0322
 3014TIP3   OH230456   0.287   4.410   0.912 -0.5237  0.0636 -0.3701
 3014TIP3    H130457   0.212   4.354   0.891 -1.3941  1.4076 -0.9056
 3014TIP3    H230458   0.363   4.358   0.887 -1.2517 -1.3522  0.2418
 3015TIP3   OH230459   0.741   6.280  16.143  0.0235 -0.3292  0.1547
 3015TIP3    H130460   0.688   6.315  16.215 -0.0050 -0.8628  0.3988
 3015TIP3    H230461   0.831   6.286  16.175  0.0348 -0.3013  0.1183
 3016TIP3   OH230462   4.054   2.332   1.870 -0.6515  0.1137 -0.0196
 3016TIP3    H130463   3.968   2.355   1.907 -1.3542  3.2770 -3.3842
 3016TIP3    H230464   4.102   2.415   1.867  1.5621 -1.1620 -0.6421
 3017TIP3   OH230465   0.489   4.229   0.915  0.4601  0.2625 -0.0736
 3017TIP3    H130466   0.491   4.171   0.991  2.1390 -1.4564 -1.3977
 3017TIP3    H230467   0.579   4.260   0.907  0.4288 -0.0344 -1.7091
 3018TIP3   OH230468   4.167   5.483   3.409 -0.1381 -0.3592 -0.2162
 3018TIP3    H130469   4.226   5.421   3.366  1.3463 -0.8689  2.4421
 3018TIP3    H230470   4.116   5.430   3.469 -0.9421  0.5775 -0.0572
 3019TIP3   OH230471   6.785   2.359  14.878 -0.0338  0.3869 -0.2669
 3019TIP3    H130472   6.827   2.278  14.850 -0.5955 -0.3064  0.8923
 3019TIP3    H230473   6.806   2.422  14.809  2.5794 -0.0494  0.1077
 3020TIP3   OH230474   3.926   3.351  17.168 -0.3322  0.2683 -0.3647
 3020TIP3    H130475   3.893   3.397  17.091  0.8359  2.1768  0.2399
 3020TIP3    H230476   4.010   3.314  17.139 -0.6922 -0.4526 -0.4944
 3021TIP3   OH230477   4.503   2.650   4.931  0.2739  0.2089  0.1366
 3021TIP3    H130478   4.578   2.607   4.971 -0.5288  0.4089  1.9008
 3021TIP3    H230479   4.446   2.673   5.005 -1.9451 -0.7609 -1.2179
 3022TIP3   OH230480   2.444   4.532   3.958  0.6026 -0.1382  0.1318
 3022TIP3    H130481   2.423   4.619   3.926  1.3150  0.2112  0.5983
 3022TIP3    H230482   2.464   4.544   4.051  1.0452 -0.7432  0.1215
 3023TIP3   OH230483   0.078   2.507  15.087 -0.4541 -0.7509  0.2697
 3023TIP3    H130484   0.066   2.460  15.005  0.0834 -1.2354  0.4635
 3023TIP3    H230485   0.130   2.447  15.141  0.4218  0.1397  0.4375
 3024TIP3   OH230486   6.571   1.930  12.319  0.3847 -0.1437  0.3244
 3024TIP3    H130487   6.535   2.014  12.290  2.5196  0.5030 -0.6342
 3024TIP3    H230488   6.587   1.882  12.237  0.8116 -0.7687  0.7714
 3025TIP3   OH230489   5.791   5.610  14.719 -0.2253 -0.0276 -0.1586
 3025TIP3    H130490   5.838   5.533  14.750  0.9647  1.1646  1.0830
 3025TIP3    H230491   5.856   5.680  14.721 -1.5250  1.2115 -0.4172
 3026TIP3   OH230492   1.881   1.155   1.077 -0.3976 -1.0324 -0.9335
 3026TIP3    H130493   1.835   1.208   1.012  0.9884 -0.3841 -1.3851
 3026TIP3    H230494   1.873   1.065   1.044 -2.5317 -1.1319 -0.2864
 3027TIP3   OH230495   4.001   4.243   5.034 -0.4171  0.1199 -0.2885
 3027TIP3    H130496   3.916   4.286   5.041 -0.7808 -0.5047 -0.8219
 3027TIP3    H230497   4.060   4.311   5.003 -1.2309 -0.0426 -2.2635
 3028TIP3   OH230498   5.163   1.069  13.081 -0.4330 -0.0962  0.2963
 3028TIP3    H130499   5.103   1.085  13.153 -1.2450  0.1507 -0.4313
 3028TIP3    H230500   5.109   1.076  13.002 -0.0162 -2.4479 -0.2448
 3029TIP3   OH230501   5.438   1.599  10.813 -0.5569 -0.7210  0.4299
 3029TIP3    H130502   5.423   1.513  10.852 -0.2742 -1.2721 -0.6297
 3029TIP3    H230503   5.523   1.591  10.770 -0.5631  0.0598  0.2620
 3030TIP3   OH230504   1.875   4.945   4.510  0.1614  0.1033  0.5331
 3030TIP3    H130505   1.911   4.870   4.462  0.5492  0.6981 -0.1035
 3030TIP3    H230506   1.804   4.907   4.562 -0.6638 -0.4462 -0.9722
 3031TIP3   OH230507   1.975   6.614  16.056  0.2659 -0.1671 -0.6462
 3031TIP3    H130508   1.923   6.693  16.071  0.0879 -0.0784 -1.7134
 3031TIP3    H230509   1.910   6.543  16.055  0.2002 -0.1029 -1.5658
 3032TIP3   OH230510   5.079   1.805   4.816  0.5780 -0.3345 -0.5828
 3032TIP3    H130511   5.152   1.809   4.879  0.1436  2.3457 -0.1911
 3032TIP3    H230512   5.107   1.861   4.744 -0.2353 -0.9721 -1.3991
 3033TIP3   OH230513   0.381   1.508  17.109 -0.2891 -0.3505  0.5525
 3033TIP3    H130514   0.332   1.585  17.080  0.1687  0.1471  1.0961
 3033TIP3    H230515   0.340   1.435  17.062 -1.0871  0.1478  0.4621
 3034TIP3   OH230516   1.384   5.761  11.879  0.4136 -0.1642 -0.6115
 3034TIP3    H130517   1.425   5.790  11.798  1.0793 -1.4253 -0.7324
 3034TIP3    H230518   1.357   5.671  11.862 -1.7332  0.3916 -0.2830
 3035TIP3   OH230519   5.385   4.627   4.115  0.2668  0.2153  0.3938
 3035TIP3    H130520   5.305   4.663   4.076  1.1509  1.4812 -0.3016
 3035TIP3    H230521   5.391   4.669   4.201 -1.0773 -1.7193  1.4821
 3036TIP3   OH230522   4.233   3.705   0.727  0.1884  0.3867  0.1923
 3036TIP3    H130523   4.266   3.665   0.808 -0.3280  0.3528  0.3851
 3036TIP3    H230524   4.311   3.712   0.671  0.1783 -1.5839 -0.1255
 3037TIP3   OH230525   4.848   3.747  12.031 -0.3502 -0.1469  0.0530
 3037TIP3    H130526   4.883   3.834  12.014 -0.3750 -0.0505  0.4898
 3037TIP3    H230527   4.764   3.745  11.986  1.4767 -1.3841 -3.4904
 3038TIP3   OH230528   2.707   0.376  14.392  0.2502  0.6355  0.0215
 3038TIP3    H130529   2.653   0.406  14.318  2.4020  0.4714 -1.6702
 3038TIP3    H230530   2.738   0.456  14.433 -0.5301  0.7277  0.4376
 3039TIP3   OH230531   3.689   2.105   4.048  0.1116  0.1317 -0.0841
 3039TIP3    H130532   3.706   2.191   4.087 -0.3114  0.9798 -1.7299
 3039TIP3    H230533   3.647   2.124   3.964 -1.2322 -1.7137  0.1242
 3040TIP3   OH230534   5.568   1.181  17.101 -0.0304  0.2499  0.6508
 3040TIP3    H130535   5.546   1.272  17.083 -1.3459 -0.2337 -0.3189
 3040TIP3    H230536   5.617   1.152  17.025 -1.4767 -0.4479 -0.0395
 3041TIP3   OH230537   0.962   0.832   0.373  0.2230 -0.7374 -0.5065
 3041TIP3    H130538   0.874   0.841   0.409  0.7417 -1.1620  0.9101
 3041TIP3    H230539   1.018   0.879   0.435  0.9899 -0.4885 -1.3877
 3042TIP3   OH230540   2.839   4.375  13.308 -0.5142  0.1969 -0.0403
 3042TIP3    H130541   2.907   4.431  13.270  1.9206 -0.9170  2.4641
 3042TIP3    H230542   2.803   4.427  13.380 -0.6178 -0.1458  0.1569
 3043TIP3   OH230543   2.238   0.367   6.060  0.1252 -0.4490 -0.0480
 3043TIP3    H130544   2.328   0.338   6.042 -0.5232 -3.1905  0.9632
 3043TIP3    H230545   2.249   0.457   6.091  2.4416 -0.4366 -0.7556
 3044TIP3   OH230546   2.641   3.036  16.660  0.3303 -0.5622  0.7405
 3044TIP3    H130547   2.585   3.047  16.737 -0.3716 -0.4064  0.2174
 3044TIP3    H230548   2.720   3.086  16.680 -0.5479  0.9056  0.6670
 3045TIP3   OH230549   2.758   5.289   5.695 -0.5060  0.8589  0.2441
 3045TIP3    H130550   2.755   5.225   5.766  0.1718  2.5460  1.8300
 3045TIP3    H230551   2.666   5.310   5.679 -0.6850  0.1672  0.3367
 3046TIP3   OH230552   2.163   0.500   0.913 -0.2123  0.4126 -0.0710
 3046TIP3    H130553   2.070   0.487   0.892  0.1246  0.1232 -1.4870
 3046TIP3    H230554   2.209   0.461   0.839  1.0231  1.4475  0.1395
 3047TIP3   OH230555   4.190   5.574   5.001 -0.0890 -0.2165  0.3612
 3047TIP3    H130556   4.278   5.567   5.039  0.7751 -1.6196 -1.8371
 3047TIP3    H230557   4.176   5.669   4.991  1.6131 -0.0143 -0.2536
 3048TIP3   OH230558   4.551   5.587  15.175  0.0559 -0.1448  0.7589
 3048TIP3    H130559   4.585   5.670  15.207  0.4501  0.4198 -1.0749
 3048TIP3    H230560   4.458   5.590  15.195  0.1300  0.5700  1.0078
 3049TIP3   OH230561   0.059   1.710   2.331  0.6112 -0.4788 -0.5348
 3049TIP3    H130562  -0.002   1.638   2.347  1.3988 -1.2719 -1.0344
 3049TIP3    H230563   0.008   1.789   2.347 -0.2079 -1.1507  0.2521
 3050TIP3   OH230564   5.570   3.583   5.634  0.1202 -0.0429 -0.5410
 3050TIP3    H130565   5.567   3.610   5.542 -0.0870 -1.7052 -1.0314
 3050TIP3    H230566   5.629   3.508   5.635 -0.9396 -0.8879  0.4461
 3051TIP3   OH230567   2.931   3.754   5.957 -0.0953 -0.1761 -0.0020
 3051TIP3    H130568   2.944   3.808   5.879 -1.8639  1.6773  0.9097
 3051TIP3    H230569   2.879   3.680   5.927  1.3883 -0.7940 -1.0648
 3052TIP3   OH230570   0.026   5.283  10.950 -0.2226 -0.1802 -0.4077
 3052TIP3    H130571   0.117   5.307  10.937 -0.8532  2.1289 -0.8002
 3052TIP3    H230572   0.006   5.309  11.040 -0.6204 -0.2185 -0.4814
 3053TIP3   OH230573   1.751   3.511  14.632  0.6857 -0.4697  0.4391
 3053TIP3    H130574   1.716   3.444  14.691 -0.6095  0.6052  0.9104
 3053TIP3    H230575   1.738   3.593  14.678  3.4916  0.0177  0.4435
 3054TIP3   OH230576   3.930   4.199   5.901 -0.8161 -0.6683  0.2141
 3054TIP3    H130577   3.877   4.152   5.967 -0.6002 -0.4481  0.5471
 3054TIP3    H230578   3.866   4.253   5.855 -0.6528  0.8137  1.6810
 3055TIP3   OH230579   5.211   0.144  14.763  0.4933  0.1755 -0.2148
 3055TIP3    H130580   5.261   0.177  14.838  0.6000  0.9046 -0.5973
 3055TIP3    H230581   5.119   0.148  14.791  0.5807 -0.2302  0.1321
 3056TIP3   OH230582   6.395   5.941   3.531 -0.4785 -0.1833  0.3565
 3056TIP3    H130583   6.355   5.984   3.605 -0.7237  1.1634 -0.5471
 3056TIP3    H230584   6.439   5.865   3.568  0.0893  0.9259  1.9793
 3057TIP3   OH230585   2.089   4.832  17.129  0.2741  0.2400  0.9654
 3057TIP3    H130586   2.023   4.878  17.180 -0.9043 -0.3968  0.0398
 3057TIP3    H230587   2.039   4.774  17.071  1.7018 -1.3073  1.2609
 3058TIP3   OH230588   0.266   4.943   3.753 -0.2463 -0.4375 -0.3932
 3058TIP3    H130589   0.190   4.940   3.811 -0.5466 -0.0631 -0.7662
 3058TIP3    H230590   0.338   4.971   3.809 -0.1666 -1.7647  0.1854
 3059TIP3   OH230591   2.354   0.933   5.997  0.4588  0.3383  0.7154
 3059TIP3    H130592   2.414   0.995   5.955 -0.0237  1.1376  1.2254
 3059TIP3    H230593   2.412   0.875   6.047  1.1091 -0.9983 -1.4794
 3060TIP3   OH230594   4.852   4.019   2.593  0.7038 -0.1801 -0.1809
 3060TIP3    H130595   4.780   3.957   2.602  0.8424 -0.6488 -2.0906
 3060TIP3    H230596   4.829   4.091   2.653  0.7171 -2.1755  2.3243
 3061TIP3   OH230597   3.983   3.927  12.863 -0.0791 -0.6774  0.3118
 3061TIP3    H130598   4.020   3.955  12.947 -1.0414  2.4834 -0.2453
 3061TIP3    H230599   4.059   3.903  12.810  0.6010 -1.7658  1.7419
 3062TIP3   OH230600   6.216   2.607   1.344  0.1925 -0.0888 -0.5424
 3062TIP3    H130601   6.140   2.551   1.362  0.8659 -0.7538  0.2912
 3062TIP3    H230602   6.276   2.551   1.294  1.4290 -0.5528  1.4039
 3063TIP3   OH230603   0.459   4.631  15.848  0.2182  0.1823 -0.1590
 3063TIP3    H130604   0.506   4.712  15.832  0.3167  0.5322  1.8400
 3063TIP3    H230605   0.495   4.569  15.784  1.8568  1.0287 -0.0684
 3064TIP3   OH230606   0.219   6.496   1.008  0.1373  0.2885 -0.0677
 3064TIP3    H130607   0.125   6.500   0.990  0.0580 -0.8053  0.0248
 3064TIP3    H230608   0.249   6.420   0.958  1.2428  1.4778 -1.2246
 3065TIP3   OH230609   6.495   0.053  13.745 -0.8682  0.1478 -0.8259
 3065TIP3    H130610   6.430   0.084  13.809 -0.8718 -0.9973 -0.2570
 3065TIP3    H230611   6.534   0.133  13.711 -2.2354  0.8470 -0.8201
 3066TIP3   OH230612   0.033   2.740   5.705  0.2221  0.1971  0.1646
 3066TIP3    H130613   0.127   2.758   5.701  0.6115 -1.8269 -0.8721
 3066TIP3    H230614   0.027   2.652   5.743 -1.3954  1.2275  2.3966
 3067TIP3   OH230615   3.481   5.420  16.746  0.3038  0.1143  0.0580
 3067TIP3    H130616   3.397   5.385  16.777 -0.1692  0.0052 -1.3147
 3067TIP3    H230617   3.485   5.508  16.782  0.8187 -0.7874  2.3210
 3068TIP3   OH230618   6.178   0.846   2.596 -0.5385  0.8733  0.0601
 3068TIP3    H130619   6.124   0.769   2.611  1.0850 -0.0997  1.0040
 3068TIP3    H230620   6.268   0.816   2.609  0.2463  2.4623 -1.5081
 3069TIP3   OH230621   0.320   4.571  10.672 -0.5617 -0.3781  0.2538
 3069TIP3    H130622   0.251   4.550  10.735 -1.8506 -0.9020 -1.2965
 3069TIP3    H230623   0.311   4.666  10.658 -1.4220 -0.5510 -0.4380
 3070TIP3   OH230624   2.340   4.393  14.867 -0.7226 -0.5008 -0.6170
 3070TIP3    H130625   2.306   4.398  14.778  2.0692 -1.3337 -1.7752
 3070TIP3    H230626   2.421   4.443  14.865  0.0995 -1.7278  1.0968
 3071TIP3   OH230627   6.745   4.870   2.772  0.6520  0.4437 -0.0008
 3071TIP3    H130628   6.769   4.924   2.696  3.4200 -1.3166 -0.4421
 3071TIP3    H230629   6.800   4.903   2.843  0.2612  0.1014  0.4580
 3072TIP3   OH230630   3.842   1.308   0.091  0.2466 -0.2774 -0.3918
 3072TIP3    H130631   3.781   1.315   0.017  0.7153  0.0044 -0.7551
 3072TIP3    H230632   3.802   1.358   0.161 -0.1030 -0.3780 -0.5205
 3073TIP3   OH230633   5.114   3.441  14.979  0.7713  0.0578 -0.0685
 3073TIP3    H130634   5.021   3.426  14.963  0.5311  0.6750  0.7483
 3073TIP3    H230635   5.158   3.365  14.939 -0.2588 -1.6165  1.8617
 3074TIP3   OH230636   2.460   4.592   4.217 -0.6490 -0.2934 -0.0326
 3074TIP3    H130637   2.514   4.637   4.281 -1.0397  0.0272  0.0778
 3074TIP3    H230638   2.381   4.567   4.265 -1.0442  0.1493 -0.4317
 3075TIP3   OH230639   3.683   0.095  10.837 -0.2102 -0.1463 -0.2593
 3075TIP3    H130640   3.749   0.045  10.789 -0.3201  0.2731 -0.8424
 3075TIP3    H230641   3.644   0.153  10.772 -0.9964 -0.2285  0.1353
 3076TIP3   OH230642   1.831   3.316   4.177  0.3035 -0.2470  0.0421
 3076TIP3    H130643   1.849   3.397   4.226 -0.4630  0.4563 -0.8202
 3076TIP3    H230644   1.914   3.268   4.179  0.0461 -0.7105  2.8785
 3077TIP3   OH230645   0.022   1.592  12.003  0.9757  0.1032  0.1840
 3077TIP3    H130646  -0.002   1.530  11.934 -1.1393 -0.4254  1.3282
 3077TIP3    H230647   0.115   1.608  11.990  0.7467 -0.4372 -2.4176
 3078TIP3   OH230648   2.707   1.458   4.016 -0.0841 -0.6231  0.4304
 3078TIP3    H130649   2.615   1.443   3.994 -0.5262  0.7070  1.3276
 3078TIP3    H230650   2.746   1.494   3.937  0.3133 -3.6845 -0.8271
 3079TIP3   OH230651   5.407   0.236   2.510 -0.3299  0.0152  0.0066
 3079TIP3    H130652   5.429   0.312   2.455  4.3868 -0.3106  1.2235
 3079TIP3    H230653   5.416   0.161   2.451 -1.5051  0.1358 -0.3274
 3080TIP3   OH230654   0.844   1.695   3.324 -0.1701  0.1999  0.1737
 3080TIP3    H130655   0.891   1.708   3.406 -0.7249  1.5305  0.3028
 3080TIP3    H230656   0.897   1.633   3.275  0.2537 -0.4715  1.4685
 3081TIP3   OH230657   1.813   6.252   4.888  0.5243  0.2213 -0.0942
 3081TIP3    H130658   1.876   6.236   4.817  0.1239  1.2931 -0.6986
 3081TIP3    H230659   1.864   6.239   4.968  1.6734  1.5938 -0.5796
 3082TIP3   OH230660   2.018   2.329   4.030  0.1832 -0.0139 -0.0969
 3082TIP3    H130661   2.109   2.342   4.057  0.8516 -0.3659 -2.0892
 3082TIP3    H230662   1.991   2.250   4.076  0.2486  1.1256  1.9788
 3083TIP3   OH230663   2.048   1.530  14.442 -0.3099  0.3189 -0.0321
 3083TIP3    H130664   2.112   1.461  14.462 -0.8544 -0.1937 -0.0525
 3083TIP3    H230665   1.990   1.491  14.377 -1.1231  0.5146  0.5736
 3084TIP3   OH230666   4.864   5.979   1.827  0.2229  0.0282  0.3844
 3084TIP3    H130667   4.778   5.940   1.839  0.3876  0.0772  1.8522
 3084TIP3    H230668   4.908   5.921   1.765 -0.6357 -0.3552  0.1253
 3085TIP3   OH230669   0.076   2.706   2.758  0.4792 -0.2510  0.5893
 3085TIP3    H130670   0.094   2.702   2.664  2.2303 -2.8195  0.9943
 3085TIP3    H230671  -0.020   2.704   2.764  0.3755 -1.3902 -1.1258
 3086TIP3   OH230672   0.029   2.755   2.474  0.2978 -0.3242 -0.1279
 3086TIP3    H130673  -0.063   2.765   2.450  0.1279 -0.8032  0.3236
 3086TIP3    H230674   0.075   2.816   2.417 -0.2236 -0.6271 -0.8832
 3087TIP3   OH230675   2.547   2.432   5.388  0.0005 -0.1599  0.0238
 3087TIP3    H130676   2.565   2.489   5.463 -1.2878 -0.8736  0.8874
 3087TIP3    H230677   2.604   2.356   5.402 -1.4066 -1.0267  1.1431
 3088TIP3   OH230678   1.323   3.913  13.322 -0.1200 -0.5624  0.2296
 3088TIP3    H130679   1.384   3.887  13.391 -0.8955 -1.4236  0.5959
 3088TIP3    H230680   1.248   3.949  13.368 -0.4229 -0.6586 -0.1842
 3089TIP3   OH230681   0.714   1.607   5.852 -0.7370 -0.0568 -0.3251
 3089TIP3    H130682   0.687   1.526   5.895 -0.0751 -0.9254 -1.5363
 3089TIP3    H230683   0.633   1.641   5.812 -0.4447 -1.7163 -2.4081
 3090TIP3   OH230684   6.576   6.050   0.495  0.0613 -0.1049 -0.2163
 3090TIP3    H130685   6.543   6.001   0.420  1.0289 -2.6995  0.9547
 3090TIP3    H230686   6.504   6.107   0.521 -1.2130 -1.0943 -1.5007
 3091TIP3   OH230687   5.373   1.862   2.456  0.2379  0.2272  0.3792
 3091TIP3    H130688   5.281   1.857   2.433  0.5070  0.1753 -0.7540
 3091TIP3    H230689   5.375   1.897   2.545 -0.8356  1.2176  0.0180
 3092TIP3   OH230690   0.573   3.701   4.815 -0.4905 -0.2942  0.4416
 3092TIP3    H130691   0.538   3.671   4.899 -3.5601 -0.6269 -0.9057
 3092TIP3    H230692   0.542   3.792   4.808  0.0815 -0.1468 -0.1636
 3093TIP3   OH230693   5.798   4.583  13.002  0.0138 -0.2608  0.1465
 3093TIP3    H130694   5.766   4.522  12.936 -0.7184  1.9424 -1.5864
 3093TIP3    H230695   5.786   4.669  12.963  1.0897  1.0082  2.5173
 3094TIP3   OH230696   4.093   3.537   1.978  0.2026  0.6766 -0.3237
 3094TIP3    H130697   4.011   3.502   2.013  0.2144 -0.4998 -1.4281
 3094TIP3    H230698   4.067   3.579   1.896  0.6700  0.4757 -0.5741
 3095TIP3   OH230699   5.786   0.984  13.809 -0.3013  0.0584 -0.3473
 3095TIP3    H130700   5.854   1.011  13.870 -1.0132  0.6787  0.1953
 3095TIP3    H230701   5.830   0.973  13.725  0.8387 -1.5484  0.4324
 3096TIP3   OH230702   3.011   0.507  11.613  0.1474  0.2213  0.2057
 3096TIP3    H130703   2.918   0.531  11.606 -1.8621 -5.8647  2.3126
 3096TIP3    H230704   3.034   0.529  11.703  0.9191  1.9719 -0.3928
 3097TIP3   OH230705   1.940   3.636   0.584  0.2851 -0.5688 -0.3394
 3097TIP3    H130706   1.994   3.625   0.663  1.1076 -0.8081 -0.9234
 3097TIP3    H230707   1.989   3.591   0.515 -0.5284 -0.5369 -0.9471
 3098TIP3   OH230708   0.213   4.621  15.412 -0.0698  0.7745 -0.1767
 3098TIP3    H130709   0.119   4.620  15.427  0.1635  1.2089  1.3903
 3098TIP3    H230710   0.234   4.714  15.399  0.3758  0.8526  1.0678
 3099TIP3   OH230711   5.868   5.871  14.565  0.5713 -0.2616 -0.8627
 3099TIP3    H130712   5.773   5.886  14.571  0.5750 -0.1924 -0.9796
 3099TIP3    H230713   5.907   5.951  14.599  0.5890 -0.7099  0.1933
 3100TIP3   OH230714   6.780   5.429   4.838 -0.0207 -0.1998  0.2300
 3100TIP3    H130715   6.820   5.485   4.904  1.5481  1.5743 -2.1364
 3100TIP3    H230716   6.686   5.441   4.850  0.2515  0.6761  1.6062
 3101TIP3   OH230717   5.020   4.825   5.565 -0.1116  0.5077  0.3575
 3101TIP3    H130718   4.936   4.787   5.538  1.0166 -2.1222  0.3977
 3101TIP3    H230719   5.084   4.786   5.507  1.1668  2.1427  0.6345
 3102TIP3   OH230720   6.467   2.409   5.187 -0.0667  0.7021  0.0678
 3102TIP3    H130721   6.504   2.357   5.258  1.6133  0.7231 -0.7602
 3102TIP3    H230722   6.425   2.345   5.130 -0.3823  0.5578  0.4590
 3103TIP3   OH230723   3.178   5.201   5.249 -0.5194  0.0350 -0.3246
 3103TIP3    H130724   3.228   5.146   5.190  2.7873  2.0105  0.5398
 3103TIP3    H230725   3.143   5.271   5.193  2.2152  1.6384 -0.1310
 3104TIP3   OH230726   1.385   6.407   3.304  0.2290 -0.2816 -0.4551
 3104TIP3    H130727   1.468   6.449   3.329  0.1470 -0.6282  0.4255
 3104TIP3    H230728   1.333   6.407   3.385 -0.9468  0.6552 -1.1994
 3105TIP3   OH230729   3.348   6.167  12.966  0.4079  0.3770  0.5364
 3105TIP3    H130730   3.429   6.174  13.016  1.7800  2.0345 -1.8216
 3105TIP3    H230731   3.317   6.078  12.982  1.8527  0.2206  2.6935
 3106TIP3   OH230732   6.600   5.536  11.424 -0.2595 -0.9335 -0.7530
 3106TIP3    H130733   6.678   5.539  11.479 -0.7685 -0.1478 -0.0461
 3106TIP3    H230734   6.592   5.624  11.389 -1.0080 -0.9143 -0.5463
 3107TIP3   OH230735   3.345   5.306   1.444 -0.7835  0.3286  0.7817
 3107TIP3    H130736   3.366   5.383   1.496  0.2677  0.2569  0.4670
 3107TIP3    H230737   3.269   5.333   1.392 -1.5916  0.5198  2.0501
 3108TIP3   OH230738   1.521   0.786  11.565 -0.1012 -0.3799  0.4546
 3108TIP3    H130739   1.561   0.872  11.558 -0.5503 -0.1288  0.9657
 3108TIP3    H230740   1.590   0.725  11.537  0.2991  0.1248  0.3439
 3109TIP3   OH230741   2.419   4.371   2.466  0.2258  0.2680 -0.3064
 3109TIP3    H130742   2.468   4.440   2.511  0.0412 -0.0955  0.4564
 3109TIP3    H230743   2.332   4.373   2.506  0.3434 -0.6789  0.0108
 3110TIP3   OH230744   6.637   5.312  16.615  0.2071 -0.5564  0.5044
 3110TIP3    H130745   6.621   5.240  16.676  0.6199 -1.6059 -0.6069
 3110TIP3    H230746   6.564   5.306  16.553  0.9068 -0.7793 -0.2952
 3111TIP3   OH230747   6.297   6.200   3.106  0.5132  0.0514  0.1883
 3111TIP3    H130748   6.311   6.222   3.198 -0.1530 -1.0723  0.5646
 3111TIP3    H230749   6.202   6.204   3.094  0.6557  1.1951 -0.7168
 3112TIP3   OH230750   1.850   3.769   2.159 -0.0021 -0.0205  0.2357
 3112TIP3    H130751   1.907   3.778   2.083  1.2833  0.7424  1.2631
 3112TIP3    H230752   1.779   3.712   2.130  0.9675 -0.4796 -1.2510
 3113TIP3   OH230753   1.136   2.690  10.776 -0.0420 -0.3310 -0.1369
 3113TIP3    H130754   1.051   2.697  10.819 -0.3836 -0.6175 -0.7573
 3113TIP3    H230755   1.153   2.779  10.744 -0.1825 -0.3044 -0.1415
 3114TIP3   OH230756   3.806   3.903   3.547 -0.0478  0.0311 -0.7619
 3114TIP3    H130757   3.721   3.876   3.584  0.1357 -1.2728 -1.2684
 3114TIP3    H230758   3.782   3.966   3.478 -0.4663  1.3899  0.5974
 3115TIP3   OH230759   1.100   0.171  10.710 -0.2543 -0.4352 -0.4466
 3115TIP3    H130760   1.033   0.167  10.641  0.1046  0.7162 -0.8597
 3115TIP3    H230761   1.133   0.260  10.707 -0.3808 -0.3084  1.3779
 3116TIP3   OH230762   0.401   4.044  16.566  0.0143 -0.3635  0.6891
 3116TIP3    H130763   0.381   4.056  16.474 -0.1640 -0.2504  0.7418
 3116TIP3    H230764   0.399   4.132  16.603  0.3317 -0.3822  0.7531
 3117TIP3   OH230765   5.395   0.087  15.887  0.0116  0.4723  0.3799
 3117TIP3    H130766   5.310   0.072  15.844  0.3234  0.0777 -0.1075
 3117TIP3    H230767   5.405   0.012  15.946  0.2365  0.2770  0.0930
 3118TIP3   OH230768   2.981   2.273   5.117  0.6813  0.0218 -0.0419
 3118TIP3    H130769   2.930   2.353   5.127  1.4324  0.4290  0.5959
 3118TIP3    H230770   2.940   2.210   5.176  0.1143 -0.0585 -0.5158
 3119TIP3   OH230771   1.282   4.249  15.682  0.1689 -0.2681  0.1979
 3119TIP3    H130772   1.266   4.179  15.745 -1.6958  0.7802  0.9135
 3119TIP3    H230773   1.228   4.227  15.607  0.6509 -0.3314 -0.1294
 3120TIP3   OH230774   6.097   3.535   5.203 -0.2590  0.3613 -0.0995
 3120TIP3    H130775   6.176   3.535   5.257  0.8571  0.4840 -1.7121
 3120TIP3    H230776   6.031   3.577   5.258  0.4675 -0.8132  1.7161
 3121TIP3   OH230777   2.749   1.963   4.671 -0.4812 -0.0489 -0.0012
 3121TIP3    H130778   2.726   2.046   4.713 -1.4119  1.0976 -2.6344
 3121TIP3    H230779   2.842   1.950   4.691 -0.9124  0.3460  2.4639
 3122TIP3   OH230780   5.837   1.334   5.758  0.4271  0.0116  0.1633
 3122TIP3    H130781   5.844   1.326   5.663  0.6061  0.8793  0.0994
 3122TIP3    H230782   5.846   1.244   5.790 -1.3870 -0.5295 -0.7444
 3123TIP3   OH230783   5.140   5.187   2.928 -0.1828  0.5952 -0.4495
 3123TIP3    H130784   5.227   5.217   2.900 -0.2144  1.3638  0.2660
 3123TIP3    H230785   5.111   5.254   2.990  0.0264 -1.2686  1.6845
 3124TIP3   OH230786   3.538   5.275   5.861  0.3641 -0.0761 -0.5725
 3124TIP3    H130787   3.450   5.293   5.828  0.1586 -1.8684 -1.0675
 3124TIP3    H230788   3.525   5.210   5.930  1.0047  2.1019  1.6724
 3125TIP3   OH230789   1.550   1.734  13.542  0.0683  0.1603 -0.0757
 3125TIP3    H130790   1.475   1.794  13.535 -1.4530 -1.7513 -0.6070
 3125TIP3    H230791   1.566   1.727  13.636 -0.2758  0.7665  0.0326
 3126TIP3   OH230792   3.491   6.678   3.340  0.3489 -0.3404  0.4374
 3126TIP3    H130793   3.485   6.734   3.262  1.3474 -0.9540 -0.0989
 3126TIP3    H230794   3.401   6.655   3.360 -0.0266  0.8923  0.2489
 3127TIP3   OH230795   2.404   4.762  17.068 -0.2684  0.5331 -0.3841
 3127TIP3    H130796   2.467   4.695  17.094 -0.7587 -0.2128 -1.1197
 3127TIP3    H230797   2.319   4.724  17.088 -0.5743  0.6613 -1.4611
 3128TIP3   OH230798   3.691   4.492  14.127  1.0563  0.1304 -0.4363
 3128TIP3    H130799   3.731   4.472  14.212 -0.5955  0.0677  0.3455
 3128TIP3    H230800   3.658   4.581  14.137  1.3168  0.3091 -1.1945
 3129TIP3   OH230801   6.370   2.880  17.219 -0.1950  0.1004  0.2201
 3129TIP3    H130802   6.294   2.825  17.240 -0.5108  0.7783  0.8765
 3129TIP3    H230803   6.340   2.969  17.235  0.6617  0.3937  0.2245
 3130TIP3   OH230804   1.525   3.998   3.292 -0.1867 -0.2182 -0.2058
 3130TIP3    H130805   1.524   3.969   3.201 -0.0790 -0.6453 -0.0690
 3130TIP3    H230806   1.586   3.938   3.335  0.5045  0.5851 -0.0554
 3131TIP3   OH230807   4.960   1.118   3.515 -0.0460 -0.4503 -0.2029
 3131TIP3    H130808   4.974   1.123   3.609  0.4337 -3.8229 -0.0368
 3131TIP3    H230809   4.868   1.096   3.505  0.1598 -1.2087 -0.4703
 3132TIP3   OH230810   5.525   5.223  12.972  0.3538  0.0592 -0.5431
 3132TIP3    H130811   5.619   5.208  12.975  0.2674 -0.6325 -1.0281
 3132TIP3    H230812   5.515   5.318  12.979  1.0654  0.1017 -0.0852
 3133TIP3   OH230813   2.280   6.134  16.815 -0.1370  0.8569 -0.1249
 3133TIP3    H130814   2.267   6.199  16.746  0.2451  2.2866  1.1113
 3133TIP3    H230815   2.300   6.186  16.893  3.5235 -0.8702  0.1590
 3134TIP3   OH230816   2.113   3.777  15.701 -0.0986  0.2124  0.1796
 3134TIP3    H130817   2.047   3.797  15.635 -1.4352  1.1944  1.7608
 3134TIP3    H230818   2.174   3.718  15.657 -0.0607  2.0678 -2.4157
 3135TIP3   OH230819   4.111   3.412  11.396  0.1535 -0.1240 -0.1862
 3135TIP3    H130820   4.060   3.406  11.315 -0.6258  0.9608  0.2066
 3135TIP3    H230821   4.091   3.331  11.443 -0.7039 -0.0058 -0.3364
 3136TIP3   OH230822   0.441   2.592  12.203 -0.5236  0.2206 -0.2724
 3136TIP3    H130823   0.453   2.685  12.183 -1.0864  0.5568  0.9329
 3136TIP3    H230824   0.354   2.587  12.244 -0.5541 -0.8554 -0.4514
 3137TIP3   OH230825   6.449   1.174  12.768  0.0956  0.5246  0.1694
 3137TIP3    H130826   6.544   1.181  12.755  0.1778  0.5149  0.7437
 3137TIP3    H230827   6.440   1.117  12.845 -0.3538  1.1260  0.5689
 3138TIP3   OH230828   6.570   5.910   3.960 -0.2970 -0.2013 -0.0072
 3138TIP3    H130829   6.619   5.976   4.010 -0.2812 -0.5527  0.4500
 3138TIP3    H230830   6.478   5.932   3.975 -0.3343 -1.3041  1.5737
 3139TIP3   OH230831   6.390   5.426  17.216  0.2532  0.4219  0.0638
 3139TIP3    H130832   6.334   5.483  17.164 -1.0375  1.1634  2.1994
 3139TIP3    H230833   6.360   5.338  17.195  0.4684  0.6415 -1.2255
 3140TIP3   OH230834   6.245   5.657  16.557 -0.5566 -0.0295 -0.3583
 3140TIP3    H130835   6.305   5.596  16.514 -0.1372  0.6952 -0.8265
 3140TIP3    H230836   6.261   5.741  16.512 -2.0086  0.1419 -0.5700
 3141TIP3   OH230837   3.078   5.064  14.813 -0.3012 -0.5275 -0.2347
 3141TIP3    H130838   3.009   5.052  14.747 -0.3261  1.1047 -0.5275
 3141TIP3    H230839   3.126   5.140  14.782  0.2160 -0.2723  1.2078
 3142TIP3   OH230840   6.103   6.583   0.910 -0.8274  0.0269  0.0604
 3142TIP3    H130841   6.139   6.510   0.960 -0.1989 -0.3048 -0.8554
 3142TIP3    H230842   6.070   6.644   0.976  2.3494  0.8186  1.0328
 3143TIP3   OH230843   3.055   3.200  11.813 -0.0904 -0.2244  0.2799
 3143TIP3    H130844   3.144   3.192  11.777 -0.4172 -0.6672 -0.4341
 3143TIP3    H230845   3.042   3.295  11.822  0.1359 -0.1202 -0.4245
 3144TIP3   OH230846   1.013   5.547   3.265  0.1769  0.1752 -0.1375
 3144TIP3    H130847   0.994   5.636   3.296 -2.3119 -0.6943  0.9043
 3144TIP3    H230848   1.029   5.497   3.345  0.0030 -0.6816 -0.6346
 3145TIP3   OH230849   3.481   1.359   0.595 -0.3863  0.1038  0.0828
 3145TIP3    H130850   3.562   1.352   0.647  0.2228 -0.7231 -0.9557
 3145TIP3    H230851   3.413   1.323   0.652  0.1866 -0.3042  0.5100
 3146TIP3   OH230852   0.612   1.094  16.218 -0.1825 -0.2849 -0.0904
 3146TIP3    H130853   0.555   1.018  16.210  0.0274 -0.4696  0.1263
 3146TIP3    H230854   0.696   1.064  16.183 -0.5736  0.3919 -1.6198
 3147TIP3   OH230855   4.930   1.083   0.403 -0.2770 -0.6175 -0.2688
 3147TIP3    H130856   4.870   1.046   0.339  1.0223 -1.2452 -1.1513
 3147TIP3    H230857   4.874   1.132   0.464 -1.6659 -1.2625 -1.0165
 3148TIP3   OH230858   4.846   2.983   4.733 -0.4446  0.3861 -0.0087
 3148TIP3    H130859   4.862   2.911   4.672  0.0558  0.5126 -0.0318
 3148TIP3    H230860   4.754   2.975   4.756 -0.7484  0.5963 -1.1265
 3149TIP3   OH230861   2.660   5.151  11.466  0.3083  0.2103 -0.3349
 3149TIP3    H130862   2.625   5.205  11.538 -1.2365 -0.9273 -0.2190
 3149TIP3    H230863   2.724   5.094  11.508  0.2006  0.2994 -0.0474
 3150TIP3   OH230864   4.982   5.978   3.296 -0.1784 -0.1009 -0.3996
 3150TIP3    H130865   4.925   5.912   3.258  0.7722 -0.7894 -0.6423
 3150TIP3    H230866   4.954   5.985   3.388 -0.6625 -0.3975 -0.5232
 3151TIP3   OH230867   5.640   6.418  17.055  0.5881 -0.6216 -0.2238
 3151TIP3    H130868   5.553   6.450  17.080  1.1044 -0.4173  1.3935
 3151TIP3    H230869   5.673   6.376  17.134  2.0387 -0.5405 -0.7742
 3152TIP3   OH230870   5.767   2.878  12.021 -0.0483  0.5723 -0.1541
 3152TIP3    H130871   5.774   2.810  11.955  1.7206  1.3277 -0.7610
 3152TIP3    H230872   5.690   2.929  11.996 -0.9080 -0.6917 -0.1437
 3153TIP3   OH230873   2.106   1.306  17.048  0.0348 -0.3754 -0.4376
 3153TIP3    H130874   2.135   1.374  16.987  0.4620  0.8338  1.0818
 3153TIP3    H230875   2.125   1.223  17.003  2.6079  0.4388 -0.9390
 3154TIP3   OH230876   5.689   6.722  14.304 -0.5887  0.0647 -0.0224
 3154TIP3    H130877   5.600   6.705  14.333 -0.3431  0.3866  0.9420
 3154TIP3    H230878   5.738   6.643  14.327 -1.3569 -1.6295 -3.8291
 3155TIP3   OH230879   6.556   6.481   3.844 -0.5456 -0.5055 -0.2152
 3155TIP3    H130880   6.520   6.393   3.839 -0.0492 -0.9321  2.8367
 3155TIP3    H230881   6.636   6.472   3.897 -1.9826  2.1717  2.5480
 3156TIP3   OH230882   4.243   5.102  11.687  0.0763 -0.1425 -0.0801
 3156TIP3    H130883   4.271   5.021  11.643  0.4201  0.8124 -1.6393
 3156TIP3    H230884   4.238   5.167  11.617  0.3599  1.3373  1.2564
 3157TIP3   OH230885   2.852   6.353  10.839 -0.3416  0.7430 -0.3544
 3157TIP3    H130886   2.826   6.263  10.861 -2.0387  1.7326  1.7652
 3157TIP3    H230887   2.772   6.393  10.806 -0.1169  2.1213  0.7624
 3158TIP3   OH230888   4.298   0.778   3.683  0.0612 -0.4591  0.0840
 3158TIP3    H130889   4.323   0.869   3.695 -1.3748 -0.1597  1.0288
 3158TIP3    H230890   4.284   0.745   3.772 -1.0889 -1.0986 -0.3104
 3159TIP3   OH230891   3.331   6.545   5.890  0.0218 -0.6117 -0.4899
 3159TIP3    H130892   3.368   6.462   5.921 -1.2484  0.1138  3.2418
 3159TIP3    H230893   3.405   6.604   5.885  0.6638 -1.4798 -1.5173
 3160TIP3   OH230894   4.713   5.805  13.382  0.4769  0.1330 -0.0827
 3160TIP3    H130895   4.663   5.879  13.348 -1.4400 -2.0654 -2.2445
 3160TIP3    H230896   4.796   5.843  13.409 -0.6910  3.1629 -0.5232
 3161TIP3   OH230897   1.128   1.516  13.746 -0.1534  0.2451  0.1723
 3161TIP3    H130898   1.039   1.515  13.782  0.5298  0.1807  1.8872
 3161TIP3    H230899   1.147   1.609  13.731 -1.1198  0.1556 -1.7951
 3162TIP3   OH230900   4.973   4.433  14.057 -0.1099 -0.7319  0.7145
 3162TIP3    H130901   4.951   4.379  14.133  1.8155 -1.9902  0.4343
 3162TIP3    H230902   5.015   4.373  13.996  0.5920  0.7429 -0.3082
 3163TIP3   OH230903   0.769   4.685   2.078  0.2407 -0.0965  0.3537
 3163TIP3    H130904   0.825   4.608   2.063 -1.4276 -1.8155  2.5876
 3163TIP3    H230905   0.689   4.666   2.029  0.6845  1.2585 -0.8992
 3164TIP3   OH230906   6.457   0.514   5.449  0.3562 -0.4100 -0.0462
 3164TIP3    H130907   6.429   0.598   5.485 -0.1289 -1.2450  1.5990
 3164TIP3    H230908   6.376   0.465   5.436  0.7995 -1.7557  1.9815
 3165TIP3   OH230909   4.398   2.341  13.196  0.3783 -0.6483  0.3678
 3165TIP3    H130910   4.474   2.400  13.191  1.1141 -1.4540  1.6760
 3165TIP3    H230911   4.415   2.288  13.274 -1.3341 -1.1217  0.4238
 3166TIP3   OH230912   6.058   1.887   3.534  0.6763  0.3969 -0.4904
 3166TIP3    H130913   5.965   1.867   3.548  1.3462 -2.2844  0.4866
 3166TIP3    H230914   6.086   1.929   3.615  0.3160  1.2528 -0.8048
 3167TIP3   OH230915   1.835   1.366  17.193  0.1554 -0.6604  0.2094
 3167TIP3    H130916   1.824   1.461  17.187 -0.2254 -0.5628  2.1235
 3167TIP3    H230917   1.915   1.348  17.144 -0.3250  0.5194 -1.0440
 3168TIP3   OH230918   3.897   4.867  12.200 -0.5510  0.2929  1.2366
 3168TIP3    H130919   3.847   4.856  12.281 -0.0319 -0.3216  1.4815
 3168TIP3    H230920   3.936   4.781  12.184 -4.0150 -0.7990 -1.9264
 3169TIP3   OH230921   0.411   6.205  12.619  0.0799 -0.2239 -0.4980
 3169TIP3    H130922   0.402   6.245  12.532 -1.0463  1.0051  0.1683
 3169TIP3    H230923   0.349   6.131  12.617  1.4194 -1.3543 -1.3734
 3170TIP3   OH230924   3.251   1.458  13.419 -0.3217 -0.0544  0.8799
 3170TIP3    H130925   3.163   1.493  13.404 -0.4052  0.0826  1.6782
 3170TIP3    H230926   3.273   1.486  13.508  0.0652 -1.0558  1.1052
 3171TIP3   OH230927   5.530   5.083   4.905  0.3156  0.4495  0.2014
 3171TIP3    H130928   5.450   5.116   4.944  1.2080  1.9818  0.7779
 3171TIP3    H230929   5.547   5.001   4.952 -2.3742 -1.3785 -1.8510
 3172TIP3   OH230930   5.767   0.347  14.528 -0.7063  0.3761 -0.1753
 3172TIP3    H130931   5.747   0.335  14.435  0.0514  0.0760 -0.3050
 3172TIP3    H230932   5.756   0.442  14.542  0.8297  0.6832 -0.9796
 3173TIP3   OH230933   1.958   3.073  14.576  0.4599 -0.1037 -0.2308
 3173TIP3    H130934   1.906   3.048  14.652 -0.6615  0.5364 -0.7629
 3173TIP3    H230935   1.966   3.168  14.582  3.0458 -0.3557  0.7533
 3174TIP3   OH230936   5.801   2.236   1.165  0.4673  0.4584  0.4489
 3174TIP3    H130937   5.849   2.186   1.232 -0.5769  0.9716  1.6090
 3174TIP3    H230938   5.864   2.300   1.133  0.5189  1.2592  2.1069
 3175TIP3   OH230939   2.074   6.053   1.764 -0.3309 -0.3821 -0.0477
 3175TIP3    H130940   2.050   6.136   1.806  1.9353  0.2709  0.0350
 3175TIP3    H230941   2.029   6.055   1.680 -0.8759  0.6066  0.2581
 3176TIP3   OH230942   1.871   3.770  16.844  0.0247 -0.6627 -0.2267
 3176TIP3    H130943   1.944   3.778  16.784 -1.7187 -0.7843 -2.4366
 3176TIP3    H230944   1.910   3.774  16.931  2.7893 -2.3072 -1.3534
 3177TIP3   OH230945   0.750   2.919  13.684 -0.1517 -0.0935 -0.0096
 3177TIP3    H130946   0.702   2.836  13.681 -0.8745  0.2496  1.5778
 3177TIP3    H230947   0.839   2.897  13.656 -0.5741 -1.2361 -0.4638
 3178TIP3   OH230948   4.018   2.618  11.230  0.0666  0.2880  0.1940
 3178TIP3    H130949   3.939   2.656  11.191  1.1669  3.0225  0.5354
 3178TIP3    H230950   4.049   2.555  11.164 -1.7831 -0.0170 -0.4065
 3179TIP3   OH230951   5.073   2.573   3.138 -0.5915 -0.2163  0.3946
 3179TIP3    H130952   5.047   2.635   3.070 -0.5334 -1.1085 -0.4511
 3179TIP3    H230953   5.130   2.624   3.196 -1.3457  0.7814  0.2708
 3180TIP3   OH230954   6.632   4.634  11.275 -0.1322 -0.1943 -0.3625
 3180TIP3    H130955   6.546   4.594  11.269 -1.2738  1.8969  1.5320
 3180TIP3    H230956   6.619   4.724  11.246  1.6111 -0.0639 -0.8265
 3181TIP3   OH230957   1.309   4.283  14.928 -0.7128 -0.5280 -0.1788
 3181TIP3    H130958   1.388   4.248  14.968 -0.2338 -1.1806 -1.6793
 3181TIP3    H230959   1.268   4.208  14.884 -1.7948 -0.0543 -0.0163
 3182TIP3   OH230960   1.770   5.971  11.914  0.2057 -0.0858  0.3022
 3182TIP3    H130961   1.746   6.062  11.933 -0.7962 -0.5072  1.1435
 3182TIP3    H230962   1.735   5.922  11.989 -0.0866 -1.2798 -0.6073
 3183TIP3   OH230963   1.210   2.844   1.584  0.2660 -0.2097 -0.0309
 3183TIP3    H130964   1.215   2.837   1.679  1.8464 -0.2309 -0.1133
 3183TIP3    H230965   1.195   2.937   1.567  2.3321  0.1801  0.1623
 3184TIP3   OH230966   5.139   6.010  16.357 -0.2477 -0.1444 -0.7060
 3184TIP3    H130967   5.178   5.978  16.275  0.1271  0.4016 -0.7444
 3184TIP3    H230968   5.060   5.957  16.368  0.1682 -0.8260 -0.9597
 3185TIP3   OH230969   0.967   1.303  15.300 -0.3946 -0.4672  0.1678
 3185TIP3    H130970   1.001   1.371  15.242 -1.8372  1.4264  1.4920
 3185TIP3    H230971   0.888   1.271  15.255 -0.7650  0.0626  0.4356
 3186TIP3   OH230972   5.986   1.347  10.821 -0.0170  0.1448  0.2160
 3186TIP3    H130973   6.028   1.386  10.744 -0.3559 -0.3710 -0.2342
 3186TIP3    H230974   5.905   1.309  10.787 -2.8516  4.4535  1.6926
 3187TIP3   OH230975   1.726   2.233   2.476  0.5891  0.1355  0.3518
 3187TIP3    H130976   1.667   2.223   2.401 -0.5457 -0.4264  1.3163
 3187TIP3    H230977   1.812   2.244   2.436 -0.1414  0.9084 -1.0724
 3188TIP3   OH230978   1.956   1.060   5.811 -0.2641  0.0684  0.4185
 3188TIP3    H130979   1.872   1.081   5.853 -0.6082  1.9752 -1.1692
 3188TIP3    H230980   1.998   1.145   5.798  2.0491 -0.8875  1.4247
 3189TIP3   OH230981   0.475   2.731  15.580  0.0059 -0.2880  0.0566
 3189TIP3    H130982   0.530   2.769  15.648  0.0427 -0.0762 -0.0904
 3189TIP3    H230983   0.519   2.650  15.555  0.6451  0.2510 -0.5878
 3190TIP3   OH230984   1.270   1.091   6.484 -0.2989  0.1606  0.0928
 3190TIP3    H130985   1.233   1.096   6.572  0.3199 -1.4905  0.4550
 3190TIP3    H230986   1.361   1.064   6.497  0.2302  1.4104 -0.9660
 3191TIP3   OH230987   3.760   1.031   5.789 -0.1254 -0.5745 -0.3697
 3191TIP3    H130988   3.787   0.979   5.865  0.0787  0.1308  0.0492
 3191TIP3    H230989   3.718   0.968   5.730 -0.8324 -1.0221  0.5996
 3192TIP3   OH230990   4.980   6.368   2.660  0.1873  0.0655  0.4621
 3192TIP3    H130991   4.985   6.275   2.638 -0.6342 -0.0870  0.9199
 3192TIP3    H230992   4.961   6.369   2.753  0.2835  0.7009  0.4728
 3193TIP3   OH230993   1.365   2.072   1.998 -0.1890 -0.2309  0.0217
 3193TIP3    H130994   1.279   2.113   2.003 -0.0521  0.2196 -1.1337
 3193TIP3    H230995   1.351   1.982   2.027 -0.8098  0.1748  0.9815
 3194TIP3   OH230996   4.900   0.457  13.140  0.6593  0.8054  0.2661
 3194TIP3    H130997   4.934   0.509  13.213  0.1736  1.3903  0.0769
 3194TIP3    H230998   4.834   0.401  13.180  1.6493 -0.1555  0.5907
 3195TIP3   OH230999   4.034   0.369   2.246  0.1334  0.6635  0.4310
 3195TIP3    H131000   4.102   0.436   2.237 -0.4579  1.0944 -0.8788
 3195TIP3    H231001   3.989   0.369   2.162 -1.7384  0.6397  1.4250
 3196TIP3   OH231002   6.261   0.435   3.842  0.3653  0.0244 -0.0931
 3196TIP3    H131003   6.208   0.447   3.763  0.7183 -0.4062 -0.4001
 3196TIP3    H231004   6.228   0.354   3.881 -0.9129  1.0923  1.0913
 3197TIP3   OH231005   5.186   0.628  14.456  0.4636  0.2372  0.1213
 3197TIP3    H131006   5.186   0.689  14.529 -0.5881  1.0633 -0.5680
 3197TIP3    H231007   5.177   0.542  14.497 -1.0614  0.7657  0.9174
 3198TIP3   OH231008   6.111   2.964  13.477  0.2649  0.5518 -0.4331
 3198TIP3    H131009   6.108   3.031  13.410 -1.4194 -0.1099 -1.0756
 3198TIP3    H231010   6.118   2.882  13.428  0.6814  0.1635  0.2700
 3199TIP3   OH231011   3.822   5.655   3.603  0.6345 -0.0842 -0.6944
 3199TIP3    H131012   3.841   5.733   3.551  0.4714  0.5210  0.1524
 3199TIP3    H231013   3.739   5.674   3.647  1.7734  0.2513  1.3911
 3200TIP3   OH231014   4.328   3.457   5.214 -0.2463 -0.6559  0.2933
 3200TIP3    H131015   4.414   3.416   5.220  0.9030  1.8186  0.9287
 3200TIP3    H231016   4.292   3.450   5.302 -0.5744 -1.3926  0.1055
 3201TIP3   OH231017   6.704   6.517   5.714  0.2706  0.2287  0.8906
 3201TIP3    H131018   6.658   6.471   5.643 -2.1698  0.0693  2.5218
 3201TIP3    H231019   6.635   6.539   5.776  2.1064  2.0558  2.3252
 3202TIP3   OH231020   6.295   4.042  12.472  0.8719  0.6350  0.7788
 3202TIP3    H131021   6.270   4.086  12.553 -0.0262 -1.0236  1.4354
 3202TIP3    H231022   6.288   4.110  12.405  2.0237  2.1338  2.1382
 3203TIP3   OH231023   6.524   1.457   1.989 -0.0902  0.1713 -0.5656
 3203TIP3    H131024   6.509   1.500   1.904 -0.1659 -1.0700 -1.1955
 3203TIP3    H231025   6.462   1.384   1.989  0.3446 -0.1946  0.3038
 3204TIP3   OH231026   2.872   2.278   2.380  0.1559 -0.3720  0.3986
 3204TIP3    H131027   2.891   2.189   2.409 -0.6344 -0.1446  1.6858
 3204TIP3    H231028   2.938   2.332   2.423 -0.6283 -0.1071  1.2966
 3205TIP3   OH231029   2.904   3.536  10.801 -0.0180 -0.0517 -0.4783
 3205TIP3    H131030   2.826   3.575  10.762 -1.1320 -1.2960  0.4849
 3205TIP3    H231031   2.892   3.442  10.791  2.0419 -0.2410 -1.6195
 3206TIP3   OH231032   1.365   3.984  13.964 -0.2548  0.1914  0.4735
 3206TIP3    H131033   1.344   4.059  14.020 -0.9655  0.5720 -0.2851
 3206TIP3    H231034   1.459   3.973  13.971 -0.4555 -0.4254  2.5804
 3207TIP3   OH231035   0.969   3.792  15.098 -0.3119  0.1016 -0.2365
 3207TIP3    H131036   1.020   3.719  15.063 -0.1463  0.2202 -0.2479
 3207TIP3    H231037   0.983   3.788  15.193 -0.2135  0.1839 -0.2475
 3208TIP3   OH231038   2.896   4.341  15.172 -0.0454  0.0872 -0.3352
 3208TIP3    H131039   2.943   4.265  15.137 -1.4172 -0.5740 -0.8025
 3208TIP3    H231040   2.866   4.313  15.259 -0.1214  0.2779 -0.2995
 3209TIP3   OH231041   0.453   1.949  13.297 -0.2487 -0.3880  0.4706
 3209TIP3    H131042   0.432   1.986  13.211 -0.8722 -0.9139  0.3901
 3209TIP3    H231043   0.398   1.997  13.358  0.2275  0.0160  0.5834
 3210TIP3   OH231044   3.530   0.932  16.736 -0.6257  0.0788 -0.1954
 3210TIP3    H131045   3.578   0.924  16.818 -1.8889  2.1283  0.7868
 3210TIP3    H231046   3.442   0.900  16.757 -0.5402 -0.8369 -1.1781
 3211TIP3   OH231047   5.267   6.249  14.145  0.4340 -0.1048  0.0474
 3211TIP3    H131048   5.273   6.328  14.198 -1.5259 -1.6909  2.8120
 3211TIP3    H231049   5.354   6.238  14.107  1.7262  1.5057  2.4280
 3212TIP3   OH231050   0.951   0.948   1.741  0.1009 -0.6964 -0.5389
 3212TIP3    H131051   1.045   0.942   1.756  0.0182 -1.4201 -0.3220
 3212TIP3    H231052   0.931   1.041   1.751  0.6145 -0.6904  0.4632
 3213TIP3   OH231053   0.037   3.924  13.233 -0.7227 -0.2902 -0.5144
 3213TIP3    H131054   0.070   3.845  13.277 -1.0101  1.5196  3.1277
 3213TIP3    H231055  -0.058   3.915  13.238 -0.8131  1.7203  2.8354
 3214TIP3   OH231056   2.876   5.944  13.720  0.1316 -0.2098 -0.2245
 3214TIP3    H131057   2.958   5.972  13.760 -2.1136  2.5457  2.8024
 3214TIP3    H231058   2.839   5.882  13.782 -1.1456  0.3533 -0.4056
 3215TIP3   OH231059   0.103   3.295  14.330 -0.4401 -0.0420  0.3268
 3215TIP3    H131060   0.124   3.251  14.248  1.5813  2.3336 -0.4888
 3215TIP3    H231061   0.109   3.226  14.396  0.3447 -1.4642 -1.1864
 3216TIP3   OH231062   4.324   2.871  12.971 -0.0738  0.4391  0.0261
 3216TIP3    H131063   4.420   2.865  12.968 -0.1437  0.0047 -2.0997
 3216TIP3    H231064   4.296   2.790  13.015  0.4536 -0.2033 -0.8139
 3217TIP3   OH231065   5.714   6.208   1.308 -0.4427 -0.6299 -0.1580
 3217TIP3    H131066   5.793   6.254   1.336 -1.0357 -1.6270  3.4462
 3217TIP3    H231067   5.662   6.273   1.261  2.7879 -0.1600 -3.2271
 3218TIP3   OH231068   6.308   1.446   4.920 -0.3501  0.0465 -0.4144
 3218TIP3    H131069   6.308   1.388   4.997 -0.4070  1.7505  0.8912
 3218TIP3    H231070   6.248   1.404   4.859 -3.5454  0.7962  2.1049
 3219TIP3   OH231071   5.545   3.260  16.087 -0.0344 -0.3106 -0.6804
 3219TIP3    H131072   5.511   3.238  16.000  0.7316 -0.1180 -1.0310
 3219TIP3    H231073   5.639   3.270  16.074  0.4188 -2.5112  0.5953
 3220TIP3   OH231074   6.456   5.506  11.655 -0.1345 -0.0969 -0.0368
 3220TIP3    H131075   6.374   5.463  11.635 -0.1751 -0.8770  1.7851
 3220TIP3    H231076   6.492   5.529  11.569 -2.1712  0.1559 -0.8535
 3221TIP3   OH231077   0.090   4.492  10.802  0.0865 -0.3593 -0.5832
 3221TIP3    H131078   0.046   4.538  10.731 -0.8373  0.3549  0.4300
 3221TIP3    H231079   0.025   4.488  10.872  1.1152 -0.6718  0.3715
 3222TIP3   OH231080   5.385   4.203   0.474  0.3835 -0.0540  0.0447
 3222TIP3    H131081   5.381   4.281   0.418  1.2125  0.0031  0.0591
 3222TIP3    H231082   5.393   4.237   0.563  0.1891 -0.1505  0.0984
 3223TIP3   OH231083   1.528   2.299   3.749 -0.3971  0.0902 -0.2386
 3223TIP3    H131084   1.467   2.331   3.815 -0.5886  0.5698 -0.6473
 3223TIP3    H231085   1.543   2.374   3.691  1.6023  0.3795  0.6093
 3224TIP3   OH231086   2.637   1.667   1.499 -0.2732  0.1886 -0.2552
 3224TIP3    H131087   2.595   1.749   1.527 -0.1370 -0.1135  0.8931
 3224TIP3    H231088   2.570   1.622   1.448 -0.5895  0.7018 -0.2963
 3225TIP3   OH231089   3.100   3.399   2.054 -0.0252 -0.4020 -0.0857
 3225TIP3    H131090   3.132   3.443   1.976 -1.3301  0.6586 -0.0315
 3225TIP3    H231091   3.018   3.443   2.076  0.2696 -0.7416  1.8312
 3226TIP3   OH231092   1.205   5.375   5.300 -0.2747  0.4319  0.2297
 3226TIP3    H131093   1.271   5.352   5.234  0.1131  1.2016  0.3477
 3226TIP3    H231094   1.123   5.380   5.250  0.1140  1.5955 -0.3183
 3227TIP3   OH231095   5.324   3.059   1.474 -0.4618 -0.2875  0.0227
 3227TIP3    H131096   5.371   3.102   1.402 -1.2279 -0.9576 -0.8913
 3227TIP3    H231097   5.240   3.105   1.478 -0.3115 -0.0699  0.6769
 3228TIP3   OH231098   3.336   3.711   6.425  0.0375 -0.2459  0.1005
 3228TIP3    H131099   3.352   3.663   6.344 -1.7179  0.0202 -0.4093
 3228TIP3    H231100   3.283   3.786   6.399  2.0300  1.5417  1.0298
 3229TIP3   OH231101   2.551   0.930  16.003 -0.0041 -0.2784  0.1964
 3229TIP3    H131102   2.494   1.007  16.003  0.7770  0.3078  1.2038
 3229TIP3    H231103   2.593   0.932  16.089  0.2681 -1.6507  0.0958
 3230TIP3   OH231104   4.926   5.126   1.411 -0.0386 -0.4315 -0.1168
 3230TIP3    H131105   4.963   5.065   1.348 -0.9286  1.1505 -2.2403
 3230TIP3    H231106   4.857   5.076   1.454 -0.5357 -1.0468 -1.5792
 3231TIP3   OH231107   2.245   4.679  13.962  0.0699  0.3825 -0.7446
 3231TIP3    H131108   2.152   4.675  13.983  0.6384  1.1550  2.0732
 3231TIP3    H231109   2.248   4.663  13.867 -2.8658 -0.0937 -0.8224
 3232TIP3   OH231110   5.459   1.229   2.694 -0.4498  0.3166 -0.4029
 3232TIP3    H131111   5.367   1.248   2.711 -0.7907  0.0341 -1.8325
 3232TIP3    H231112   5.481   1.283   2.619 -0.2244 -1.5919 -1.7598
 3233TIP3   OH231113   6.585   0.367   5.145 -0.0383 -0.1088 -0.0382
 3233TIP3    H131114   6.583   0.334   5.235  2.6074  0.8017  0.4069
 3233TIP3    H231115   6.522   0.312   5.098 -0.7682 -1.2188  2.1549
 3234TIP3   OH231116   4.477   5.954   2.664  0.0126 -0.2176 -0.0922
 3234TIP3    H131117   4.454   6.046   2.650  0.0992 -0.2553 -0.4824
 3234TIP3    H231118   4.429   5.906   2.596 -0.7457 -0.5579  0.6643
 3235TIP3   OH231119   3.627   0.282   1.901  0.2878  0.6029 -1.1505
 3235TIP3    H131120   3.661   0.193   1.893 -1.5028 -0.2931  0.5254
 3235TIP3    H231121   3.539   0.278   1.863 -0.3817  1.2434  0.2566
 3236TIP3   OH231122   4.506   2.465   5.543 -0.3959  0.2576 -0.1233
 3236TIP3    H131123   4.511   2.557   5.567 -0.2537  0.3064 -0.3401
 3236TIP3    H231124   4.547   2.418   5.617  2.5883  0.5919 -1.5146
 3237TIP3   OH231125   1.206   2.707   4.508  0.1585  1.0474  0.3664
 3237TIP3    H131126   1.263   2.735   4.436  0.4681  1.5439  0.7998
 3237TIP3    H231127   1.128   2.672   4.465  0.7864  0.3792 -0.2277
 3238TIP3   OH231128   6.735   1.411  15.414 -0.1858  0.2135  0.3964
 3238TIP3    H131129   6.766   1.339  15.468 -1.9536  0.1380  1.3421
 3238TIP3    H231130   6.715   1.481  15.475 -0.3044  0.8440 -0.3506
 3239TIP3   OH231131   1.530   3.291  13.567 -0.6149  0.8417 -0.3485
 3239TIP3    H131132   1.537   3.384  13.585  0.3977  0.7003  0.0102
 3239TIP3    H231133   1.615   3.255  13.593 -0.8279 -0.0997 -0.9316
 3240TIP3   OH231134   3.464   4.214   2.983  0.2436  0.1986 -0.7358
 3240TIP3    H131135   3.415   4.203   2.902 -0.4748  0.8966 -0.4054
 3240TIP3    H231136   3.555   4.221   2.956  0.1849 -1.2067 -1.3518
 3241TIP3   OH231137   3.150   5.178   4.407  0.0700  0.0306  0.0424
 3241TIP3    H131138   3.240   5.173   4.439  0.1565 -0.8588 -0.3113
 3241TIP3    H231139   3.144   5.263   4.363  0.9891 -0.2802 -0.6881
 3242TIP3   OH231140   0.021   4.701   5.803  0.3929  0.7438 -0.0654
 3242TIP3    H131141   0.065   4.743   5.877  1.2737 -0.1310 -0.0843
 3242TIP3    H231142  -0.054   4.656   5.842  0.6398  0.5955  0.2334
 3243TIP3   OH231143   4.917   2.631   0.545 -0.2179  0.7041  0.3550
 3243TIP3    H131144   4.857   2.618   0.618 -2.0350 -1.3364 -1.4165
 3243TIP3    H231145   4.863   2.670   0.476  1.2298  1.7008 -0.2436
 3244TIP3   OH231146   5.863   2.247   4.193  0.4069  0.6589  0.0717
 3244TIP3    H131147   5.833   2.338   4.191  1.3704  0.9577 -1.3937
 3244TIP3    H231148   5.874   2.224   4.101 -0.6724 -1.2334  0.3976
 3245TIP3   OH231149   2.722   4.333  15.501 -0.0045 -0.0647  0.5445
 3245TIP3    H131150   2.788   4.397  15.474 -0.0169 -0.6060 -0.8068
 3245TIP3    H231151   2.656   4.385  15.547  1.7043  0.3863  2.6160
 3246TIP3   OH231152   4.351   2.784   5.149  0.4679 -0.3482 -0.6524
 3246TIP3    H131153   4.299   2.733   5.211 -2.0908  1.5917 -1.1032
 3246TIP3    H231154   4.420   2.824   5.202 -0.8018  0.0908  0.6887
 3247TIP3   OH231155   0.465   5.860   0.892 -0.0252 -0.6066  0.2378
 3247TIP3    H131156   0.517   5.936   0.864  0.1171 -1.3779 -1.6432
 3247TIP3    H231157   0.527   5.787   0.890 -0.7173 -1.1850 -0.1561
 3248TIP3   OH231158   3.695   1.793   3.654  0.0193 -0.0414 -0.5184
 3248TIP3    H131159   3.622   1.854   3.662 -1.5369 -2.0223  1.0798
 3248TIP3    H231160   3.679   1.746   3.572 -1.2810 -1.3764  0.4613
 3249TIP3   OH231161   4.996   0.546  16.510 -0.0288 -0.3854 -0.1892
 3249TIP3    H131162   5.071   0.495  16.481 -0.8178 -0.7607 -1.5756
 3249TIP3    H231163   5.033   0.632  16.533  1.0847 -1.1207  0.8571
 3250TIP3   OH231164   1.282   0.277   1.768  0.2402 -0.5414 -0.2681
 3250TIP3    H131165   1.275   0.186   1.739  0.8810  0.0082 -2.2486
 3250TIP3    H231166   1.218   0.324   1.715  1.4533  0.4961 -0.8439
 3251TIP3   OH231167   4.708   0.364   4.772  0.2898  0.3011 -0.5220
 3251TIP3    H131168   4.782   0.350   4.830  0.0384 -1.3127 -0.5606
 3251TIP3    H231169   4.699   0.459   4.766 -0.0699  0.4884  2.5686
 3252TIP3   OH231170   0.642   1.831  11.810 -0.0122 -0.8373  0.2855
 3252TIP3    H131171   0.568   1.810  11.867 -0.1924 -1.4223 -0.1520
 3252TIP3    H231172   0.669   1.746  11.774  0.4432 -0.5417 -0.0726
 3253TIP3   OH231173   1.414   6.411  15.463  0.2144 -0.1255  0.7358
 3253TIP3    H131174   1.425   6.484  15.524 -2.1499 -0.8692  2.1215
 3253TIP3    H231175   1.419   6.452  15.376  1.1551  1.3260  1.4499
 3254TIP3   OH231176   3.061   1.082   3.093 -0.5851  0.2519  0.4551
 3254TIP3    H131177   3.035   1.133   3.169 -1.4695  0.4246  0.0352
 3254TIP3    H231178   3.078   1.147   3.025 -0.3626  0.0626  0.3271
 3255TIP3   OH231179   3.752   5.693  16.520  0.6885  0.0871  0.4219
 3255TIP3    H131180   3.814   5.710  16.591  1.5727  0.4704 -0.4285
 3255TIP3    H231181   3.768   5.764  16.458  0.3624 -0.5999 -0.4449
 3256TIP3   OH231182   5.672   5.666   5.718 -0.1003  0.1183  0.2945
 3256TIP3    H131183   5.637   5.699   5.800 -0.7669  0.0233  0.0524
 3256TIP3    H231184   5.652   5.572   5.719 -0.7385  0.2393 -0.2826
 3257TIP3   OH231185   5.344   3.460  15.125 -0.3094 -0.5778 -0.0520
 3257TIP3    H131186   5.424   3.435  15.079 -0.6827 -0.3425 -0.8384
 3257TIP3    H231187   5.278   3.466  15.056 -0.6919  0.5500  0.4091
 3258TIP3   OH231188   2.667   6.402  15.901  0.2562  0.1150 -0.5835
 3258TIP3    H131189   2.720   6.449  15.965 -1.3895 -0.7033  1.4681
 3258TIP3    H231190   2.701   6.313  15.901 -0.3469 -0.1213 -0.1285
 3259TIP3   OH231191   5.123   0.268  17.143 -0.2647  0.3293 -0.1955
 3259TIP3    H131192   5.060   0.239  17.209  0.5929 -0.1896  0.4168
 3259TIP3    H231193   5.128   0.362  17.155  0.6202  0.1245  1.1671
 3260TIP3   OH231194   6.527   4.659  16.234  0.1369  0.1550 -0.1327
 3260TIP3    H131195   6.583   4.591  16.197 -0.3933 -0.5679  0.3716
 3260TIP3    H231196   6.459   4.611  16.282 -1.6498  0.9693 -1.7727
 3261TIP3   OH231197   6.755   0.143  16.237  0.5749  0.8790 -0.0938
 3261TIP3    H131198   6.747   0.134  16.142  0.4756  1.4443 -0.1407
 3261TIP3    H231199   6.665   0.142  16.270  0.6597 -0.7390  0.1340
 3262TIP3   OH231200   2.706   3.295  11.572  0.3920 -0.6151 -0.0890
 3262TIP3    H131201   2.612   3.276  11.564  0.2156  0.5271 -0.8211
 3262TIP3    H231202   2.716   3.384  11.537  1.5270 -0.1791  1.3147
 3263TIP3   OH231203   5.308   2.810   1.250  0.3313 -0.1248 -0.3180
 3263TIP3    H131204   5.362   2.889   1.252  0.5493 -0.2765 -0.2090
 3263TIP3    H231205   5.332   2.767   1.168 -0.3638  0.3259 -0.7603
 3264TIP3   OH231206   0.104   3.457  17.091  0.2908 -0.0226 -0.2053
 3264TIP3    H131207   0.153   3.462  17.009 -0.3018 -0.0499 -0.5649
 3264TIP3    H231208   0.015   3.434  17.064  0.2707 -0.7922  0.5113
 3265TIP3   OH231209   3.873   4.709   1.030 -0.0026 -0.9724 -0.6009
 3265TIP3    H131210   3.947   4.709   1.091 -0.2749 -1.6646 -0.2683
 3265TIP3    H231211   3.803   4.753   1.079  0.2870  0.0036 -1.0462
 3266TIP3   OH231212   6.535   6.763  13.234 -0.2592  0.2838 -0.0045
 3266TIP3    H131213   6.613   6.709  13.247 -0.5919  0.1530  1.5132
 3266TIP3    H231214   6.545   6.799  13.146  1.1938 -0.2438 -0.0636
 3267TIP3   OH231215   1.068   2.030   0.266 -0.3133 -0.1956  0.1311
 3267TIP3    H131216   1.132   1.984   0.321 -0.2098  1.2625  1.2585
 3267TIP3    H231217   0.996   1.968   0.256  0.0803 -0.8239  1.1153
 3268TIP3   OH231218   0.652   1.047  10.623 -0.6448  0.6850  0.1183
 3268TIP3    H131219   0.687   0.977  10.678 -0.0335  0.9293  0.0479
 3268TIP3    H231220   0.641   1.007  10.537  1.3783  1.1220 -0.3816
 3269TIP3   OH231221   1.917   1.108   6.314  0.1992 -0.2194  0.3135
 3269TIP3    H131222   1.914   1.127   6.408 -0.9293  0.0984  0.2144
 3269TIP3    H231223   1.840   1.151   6.278  0.2485 -0.9273 -0.6613
 3270TIP3   OH231224   0.070   0.740   2.104  0.4974 -0.7580  0.1374
 3270TIP3    H131225   0.099   0.827   2.077 -0.1499  0.0386  1.9495
 3270TIP3    H231226   0.148   0.700   2.143  0.9718 -1.2563 -1.3009
 3271TIP3   OH231227   1.207   5.549  11.764 -0.4468 -0.2645  0.1454
 3271TIP3    H131228   1.138   5.614  11.773 -0.1111 -0.0152  0.9149
 3271TIP3    H231229   1.220   5.541  11.669 -0.6187  0.6467  0.0429
 3272TIP3   OH231230   2.598   2.805  16.892  0.4809 -0.0397 -0.1609
 3272TIP3    H131231   2.665   2.737  16.887  0.1983 -0.3360  0.0992
 3272TIP3    H231232   2.550   2.797  16.810 -0.1032 -0.7234  0.2460
 3273TIP3   OH231233   4.246   5.360   2.980  0.2435 -0.1039 -0.1351
 3273TIP3    H131234   4.245   5.451   3.008  2.1513 -0.7983  2.4286
 3273TIP3    H231235   4.315   5.355   2.914 -0.3587  0.4243 -0.8133
 3274TIP3   OH231236   5.364   4.671  11.240  0.4391 -0.4818 -0.3718
 3274TIP3    H131237   5.394   4.762  11.237 -2.3283  0.4857  0.0728
 3274TIP3    H231238   5.381   4.638  11.152  0.7488  0.6954 -0.7671
 3275TIP3   OH231239   4.381   5.553   2.772  0.7545 -0.5232 -0.6530
 3275TIP3    H131240   4.450   5.580   2.832 -0.1182 -1.9998  1.0742
 3275TIP3    H231241   4.383   5.457   2.775 -1.1749 -0.5878 -0.7963
 3276TIP3   OH231242   2.986   0.706  16.712  0.3255 -0.1744  0.6971
 3276TIP3    H131243   2.929   0.775  16.745 -0.5205 -0.4754 -0.1108
 3276TIP3    H231244   2.931   0.657  16.651  2.0404  0.8512 -1.7901
 3277TIP3   OH231245   5.117   0.460  12.186  0.5617  0.0192  0.1520
 3277TIP3    H131246   5.076   0.493  12.266  0.1260  1.5488 -0.6880
 3277TIP3    H231247   5.065   0.384  12.162 -1.5477  1.6454 -0.6258
 3278TIP3   OH231248   6.745   1.377   5.385  0.5405 -0.0268  0.3314
 3278TIP3    H131249   6.700   1.389   5.302  2.7415  1.6699 -0.6810
 3278TIP3    H231250   6.698   1.433   5.446  1.0627  1.4859 -0.6291
 3279TIP3   OH231251   4.277   2.470   6.281  0.1155 -0.1608  0.1875
 3279TIP3    H131252   4.233   2.471   6.196  0.7268  2.0659 -0.1467
 3279TIP3    H231253   4.207   2.460   6.345 -0.2672 -2.9313 -0.5772
 3280TIP3   OH231254   2.590   2.181  11.198 -0.0971  0.4431 -0.0578
 3280TIP3    H131255   2.570   2.115  11.263 -0.2531 -1.2267 -1.7595
 3280TIP3    H231256   2.670   2.149  11.155 -0.1179  1.4018 -0.8440
 3281TIP3   OH231257   0.499   6.040   4.497  0.1472  0.8651  0.2715
 3281TIP3    H131258   0.533   6.106   4.558 -0.7434  0.9412  0.6875
 3281TIP3    H231259   0.455   6.091   4.429  0.3582  0.7392  0.0403
 3282TIP3   OH231260   4.201   3.955   2.621  0.0748 -0.5539  0.2156
 3282TIP3    H131261   4.193   3.880   2.562  0.1757  0.0255 -0.5459
 3282TIP3    H231262   4.230   4.026   2.564  0.1647  0.0112  0.9722
 3283TIP3   OH231263   0.355   6.681  16.812 -0.0288  0.5173 -0.0047
 3283TIP3    H131264   0.274   6.661  16.765  0.0813  0.8368 -0.3259
 3283TIP3    H231265   0.365   6.776  16.805 -1.0100  0.8346  2.2698
 3284TIP3   OH231266   2.381   0.730  16.994 -0.0909  0.0325  0.7505
 3284TIP3    H131267   2.347   0.797  16.935 -0.7891  0.0275  1.1505
 3284TIP3    H231268   2.311   0.665  17.000 -0.6075  0.7504  2.7196
 3285TIP3   OH231269   0.626   5.925   5.055  0.4812 -0.4957 -0.0867
 3285TIP3    H131270   0.650   5.990   4.988  1.2840 -0.7377 -0.0325
 3285TIP3    H231271   0.611   5.845   5.005  0.1268 -0.4349 -0.0807
 3286TIP3   OH231272   5.400   6.618   2.070  0.3156 -0.0129  0.7735
 3286TIP3    H131273   5.330   6.553   2.069  0.9008 -0.6607 -0.8724
 3286TIP3    H231274   5.389   6.665   2.152 -0.8078 -1.4531  1.4642
 3287TIP3   OH231275   2.971   2.836  15.700 -0.1898  0.1837  0.0793
 3287TIP3    H131276   2.936   2.833  15.789 -0.7096  2.3997 -0.0137
 3287TIP3    H231277   3.036   2.766  15.697 -0.5718 -0.2741  2.0346
 3288TIP3   OH231278   4.838   4.910   4.947  0.6477 -0.1305  0.3059
 3288TIP3    H131279   4.814   4.825   4.982 -0.0935  0.0277  0.1780
 3288TIP3    H231280   4.758   4.944   4.907  1.5726 -0.5562 -2.0352
 3289TIP3   OH231281   5.732   3.643   2.643  0.2958  0.1199 -0.1380
 3289TIP3    H131282   5.773   3.595   2.715 -2.4690 -3.9689 -1.1354
 3289TIP3    H231283   5.671   3.704   2.685  1.2417  0.2670  1.0433
 3290TIP3   OH231284   4.984   2.227   6.346 -0.1286  0.3948 -0.3150
 3290TIP3    H131285   5.051   2.162   6.326  1.1236  1.9276 -1.2134
 3290TIP3    H231286   4.929   2.186   6.413  1.0491 -1.3019 -0.3770
 3291TIP3   OH231287   5.801   4.154  14.749  0.3719 -0.2283  0.4958
 3291TIP3    H131288   5.723   4.175  14.800  0.7094 -0.0115  0.9274
 3291TIP3    H231289   5.768   4.105  14.674 -0.2702  0.6293  0.2063
 3292TIP3   OH231290   1.674   5.767  16.961 -0.1255 -0.1102 -0.4439
 3292TIP3    H131291   1.609   5.831  16.990 -1.4278 -0.8164 -1.7493
 3292TIP3    H231292   1.630   5.682  16.970  2.3246 -1.1089  3.3994
 3293TIP3   OH231293   0.807   6.681   4.666 -0.5639  0.0720  0.4221
 3293TIP3    H131294   0.785   6.592   4.694 -2.5251  0.2282 -0.5760
 3293TIP3    H231295   0.878   6.669   4.603 -1.2086 -0.8400 -0.1388
 3294TIP3   OH231296   2.089   3.177   4.744  0.4288  0.3007 -0.4306
 3294TIP3    H131297   2.061   3.101   4.692  1.5940 -0.4857  0.0701
 3294TIP3    H231298   2.095   3.248   4.680 -1.1082  0.0827 -0.8242
 3295TIP3   OH231299   4.940   0.326  16.324 -0.1521 -0.3313 -0.3674
 3295TIP3    H131300   5.008   0.279  16.371 -1.3073 -2.2777 -0.5739
 3295TIP3    H231301   4.980   0.351  16.241  1.0813  0.8218  0.5567
 3296TIP3   OH231302   2.707   1.047  15.442 -0.1303 -0.1961 -0.0294
 3296TIP3    H131303   2.739   1.097  15.367 -0.8608 -1.4973 -1.2467
 3296TIP3    H231304   2.719   0.955  15.416 -0.2634 -0.6577  1.4998
 3297TIP3   OH231305   6.452   0.061  15.529 -0.2749  0.1746  0.1819
 3297TIP3    H131306   6.370   0.110  15.532  0.3336  1.1670  0.6921
 3297TIP3    H231307   6.504   0.102  15.460  0.8681  1.2831  1.6744
 3298TIP3   OH231308   4.778   5.645  11.480 -0.0100  0.6222  0.0349
 3298TIP3    H131309   4.800   5.662  11.388 -1.0784 -0.6295 -0.4664
 3298TIP3    H231310   4.713   5.575  11.477  0.3633  0.1695  1.7858
 3299TIP3   OH231311   3.178   3.408  12.740 -0.4468 -1.2941  0.5488
 3299TIP3    H131312   3.225   3.479  12.784 -0.9270  0.3172 -1.4436
 3299TIP3    H231313   3.197   3.330  12.792  1.9516 -0.1234  1.4803
 3300TIP3   OH231314   5.107   1.137  14.660  0.3175 -0.1012 -0.5687
 3300TIP3    H131315   5.089   1.201  14.728 -0.9866 -0.7304 -0.3079
 3300TIP3    H231316   5.162   1.184  14.597  0.3773  0.8982  0.2113
 3301TIP3   OH231317   4.118   3.831  12.125  0.0304  0.2934  0.2435
 3301TIP3    H131318   4.057   3.806  12.056  1.9790 -1.9283 -0.7557
 3301TIP3    H231319   4.077   3.800  12.206 -1.8963  2.2219  0.0453
 3302TIP3   OH231320   0.854   4.855  16.328 -0.6298  0.6262  0.1956
 3302TIP3    H131321   0.948   4.868  16.311 -0.7163  0.3431 -0.5440
 3302TIP3    H231322   0.812   4.880  16.246 -1.1991  0.7134  0.5167
 3303TIP3   OH231323   2.202   0.443   4.817 -0.2353 -0.3566 -0.1764
 3303TIP3    H131324   2.178   0.518   4.762  0.8408  1.7460  2.1216
 3303TIP3    H231325   2.254   0.387   4.759 -1.4947  0.3735 -2.0829
 3304TIP3   OH231326   3.828   3.176  12.203 -0.2901  0.1947  0.1905
 3304TIP3    H131327   3.895   3.140  12.144  0.9289 -1.0181  2.2465
 3304TIP3    H231328   3.780   3.099  12.233 -0.7314  0.7697  0.9701
 3305TIP3   OH231329   1.293   5.468   4.228 -0.6878  0.4276 -0.0726
 3305TIP3    H131330   1.366   5.454   4.168 -0.7292 -0.2906  0.0308
 3305TIP3    H231331   1.332   5.507   4.306 -0.7197  1.8613 -0.7769
 3306TIP3   OH231332   2.866   5.150  14.580  0.0834  0.5039  0.1013
 3306TIP3    H131333   2.814   5.198  14.515  1.9640  2.7501  0.1858
 3306TIP3    H231334   2.857   5.202  14.660  0.4562 -0.4586  0.7758
 3307TIP3   OH231335   5.973   5.902  16.436 -0.1145  0.0021  0.0570
 3307TIP3    H131336   6.064   5.900  16.405 -0.3627  2.5791 -0.9454
 3307TIP3    H231337   5.949   5.995  16.434 -3.1032 -0.7402 -0.6269
 3308TIP3   OH231338   4.802   6.181  13.519 -0.5750 -0.3701 -0.4719
 3308TIP3    H131339   4.794   6.149  13.609 -0.5592  2.2190  0.4910
 3308TIP3    H231340   4.712   6.197  13.491 -0.5220 -0.1746 -0.5354
 3309TIP3   OH231341   2.471   6.483  12.728 -0.1749 -0.1627  0.2996
 3309TIP3    H131342   2.436   6.479  12.638 -1.0425  0.5965  0.5983
 3309TIP3    H231343   2.471   6.392  12.757  0.7512 -0.5056 -0.7071
 3310TIP3   OH231344   6.699   0.792  16.183 -0.0365 -0.2213  0.2990
 3310TIP3    H131345   6.751   0.849  16.127  0.0164 -0.7958 -0.2357
 3310TIP3    H231346   6.761   0.761  16.250  0.0570 -0.0641  0.2830
 3311TIP3   OH231347   1.664   4.621   5.831  0.9732 -0.0952 -0.1664
 3311TIP3    H131348   1.692   4.555   5.894  1.6328  2.0495  1.8446
 3311TIP3    H231349   1.742   4.675   5.818  0.1216  0.9418 -0.9321
 3312TIP3   OH231350   1.134   3.480   0.201 -0.6192  0.1128 -0.0517
 3312TIP3    H131351   1.197   3.451   0.135 -1.9395  0.2519 -1.4064
 3312TIP3    H231352   1.068   3.529   0.151 -2.0732 -0.4554  1.2727
 3313TIP3   OH231353   3.840   1.444   2.388 -0.1747  0.6897  0.3322
 3313TIP3    H131354   3.854   1.408   2.475  2.0024  0.3332 -0.1537
 3313TIP3    H231355   3.813   1.369   2.335  1.8881  0.2129 -0.0874
 3314TIP3   OH231356   2.398   2.024  13.226 -0.5913 -0.0371  0.9061
 3314TIP3    H131357   2.367   1.933  13.227  0.6078 -0.5237 -1.7988
 3314TIP3    H231358   2.350   2.065  13.154  1.1915  0.5743  0.0260
 3315TIP3   OH231359   5.247   2.714  16.683 -0.2750 -0.3359 -0.4365
 3315TIP3    H131360   5.329   2.693  16.637 -1.5172 -1.5079 -2.1687
 3315TIP3    H231361   5.223   2.801  16.650 -0.1099 -0.2953 -0.4499
 3316TIP3   OH231362   5.151   3.515  11.842  0.5199  1.0963 -0.1030
 3316TIP3    H131363   5.082   3.473  11.790  0.3940  0.4087  0.5932
 3316TIP3    H231364   5.230   3.505  11.789  0.2538  1.0797 -0.5024
 3317TIP3   OH231365   0.088   4.413   2.911  0.2464  0.6366 -0.1085
 3317TIP3    H131366   0.149   4.362   2.964  0.5866  1.0087 -0.1410
 3317TIP3    H231367   0.123   4.502   2.912 -2.2578  1.7068  2.9237
 3318TIP3   OH231368   0.670   3.896  14.635  0.1869  0.0987  0.0181
 3318TIP3    H131369   0.690   3.897  14.729 -1.3363  0.9514  0.3603
 3318TIP3    H231370   0.657   3.803  14.615  2.0581 -0.2498  0.2824
 3319TIP3   OH231371   4.114   6.154   4.269  0.6897 -0.4345  0.1307
 3319TIP3    H131372   4.043   6.125   4.211  2.2243 -2.3093 -0.8604
 3319TIP3    H231373   4.157   6.224   4.221 -1.1641  1.5335  1.2379
 3320TIP3   OH231374   6.081   3.906  16.459  0.2998 -0.2378  0.0273
 3320TIP3    H131375   6.089   3.987  16.510 -2.8961 -0.6278  1.3043
 3320TIP3    H231376   6.110   3.837  16.519  1.3168 -0.2240 -0.4425
 3321TIP3   OH231377   5.564   5.212  14.996 -0.0235  0.5941 -0.3028
 3321TIP3    H131378   5.559   5.264  14.916  0.0254 -0.0674 -0.7426
 3321TIP3    H231379   5.536   5.124  14.969  2.1031 -0.1781 -0.0817
 3322TIP3   OH231380   1.977   0.180   5.364  0.4248  0.3137 -0.3506
 3322TIP3    H131381   1.951   0.111   5.303 -1.3902 -0.9708  1.8192
 3322TIP3    H231382   2.054   0.146   5.408  0.3959  0.2960 -0.3141
 3323TIP3   OH231383   2.396   4.532   4.596  0.0213 -0.5446 -0.0530
 3323TIP3    H131384   2.447   4.610   4.615 -2.0474  0.7867  0.1755
 3323TIP3    H231385   2.444   4.488   4.526  1.3627  0.7432  0.0381
 3324TIP3   OH231386   5.236   0.035   3.723  0.5121  0.0895 -0.1956
 3324TIP3    H131387   5.202   0.121   3.748  0.6199 -0.2905  1.3127
 3324TIP3    H231388   5.331   0.045   3.727  0.5184 -0.6924  2.1333
 3325TIP3   OH231389   0.060   3.811   3.876  0.1589 -0.2152 -0.2652
 3325TIP3    H131390   0.020   3.896   3.855 -0.0415  0.0275  1.0585
 3325TIP3    H231391   0.152   3.832   3.894  0.0575 -0.2365  0.2916
 3326TIP3   OH231392   1.189   2.208  15.781 -0.0158 -0.2052 -0.6329
 3326TIP3    H131393   1.268   2.155  15.780  1.0116  1.1709  2.6205
 3326TIP3    H231394   1.124   2.154  15.826 -0.1941 -0.3626 -1.0815
 3327TIP3   OH231395   2.132   6.094  17.126  0.3787 -0.6187 -0.0629
 3327TIP3    H131396   2.038   6.109  17.112  0.0959 -2.9062 -0.8068
 3327TIP3    H231397   2.161   6.170  17.177 -1.8193  0.2471 -0.0457
 3328TIP3   OH231398   2.993   4.752   5.400 -0.0221 -0.6690  0.2841
 3328TIP3    H131399   3.025   4.839   5.422 -0.6449  0.0132 -1.4262
 3328TIP3    H231400   3.012   4.742   5.306 -2.2857 -1.3238 -0.1320
 3329TIP3   OH231401   5.380   2.450  13.923 -0.5528 -0.4926  0.1843
 3329TIP3    H131402   5.441   2.471  13.852 -0.8825 -1.5671 -0.4195
 3329TIP3    H231403   5.424   2.382  13.974 -0.2290  0.4168  1.1473
 3330TIP3   OH231404   1.849   2.951   2.733 -0.3045 -0.0643  0.0576
 3330TIP3    H131405   1.839   2.964   2.639  0.4364 -0.7171 -0.1137
 3330TIP3    H231406   1.891   2.866   2.741 -2.4998 -1.0847  1.0671
 3331TIP3   OH231407   5.258   0.866   4.152 -0.0835 -0.5373  0.1938
 3331TIP3    H131408   5.263   0.961   4.155  0.8900 -0.5882  0.2821
 3331TIP3    H231409   5.164   0.847   4.159 -0.1729  0.3640  1.9224
 3332TIP3   OH231410   6.038   2.255  10.820 -0.0934 -0.1714 -0.3751
 3332TIP3    H131411   6.107   2.286  10.761 -1.0756  0.8857 -1.0114
 3332TIP3    H231412   6.080   2.190  10.875  1.9390  1.9886  0.6856
 3333TIP3   OH231413   4.625   0.069  12.207 -0.1811 -0.1789 -0.3685
 3333TIP3    H131414   4.682   0.105  12.139  0.7051  0.1480  0.5265
 3333TIP3    H231415   4.685   0.039  12.275 -1.0870  0.2300  0.6221
 3334TIP3   OH231416   2.541   4.565  17.213  0.0986 -0.0998  0.3097
 3334TIP3    H131417   2.600   4.505  17.168 -1.1425  0.8371 -2.6762
 3334TIP3    H231418   2.544   4.537  17.305  4.4945 -0.5508  0.1161
 3335TIP3   OH231419   5.442   5.689  16.681  0.1721 -0.2298  0.1826
 3335TIP3    H131420   5.419   5.601  16.652 -2.6869 -0.1480  1.9625
 3335TIP3    H231421   5.532   5.702  16.652 -0.8809 -1.9651 -4.2052
 3336TIP3   OH231422   0.259   2.410  12.025  0.1987  0.5423 -0.1595
 3336TIP3    H131423   0.229   2.319  12.026 -0.3615  0.7229  1.2338
 3336TIP3    H231424   0.323   2.413  11.954 -1.5730 -0.3445 -1.8374
 3337TIP3   OH231425   0.724   0.159  10.839  0.1504 -0.1247 -0.8197
 3337TIP3    H131426   0.812   0.169  10.803  0.0932 -1.1663 -1.2500
 3337TIP3    H231427   0.675   0.116  10.769 -0.4363 -0.4957 -0.1759
 3338TIP3   OH231428   1.713   6.294   5.227  0.1264  0.1620  0.5180
 3338TIP3    H131429   1.731   6.333   5.313  2.4447  2.4717 -0.9088
 3338TIP3    H231430   1.800   6.278   5.190 -0.8397 -0.3425 -1.5790
 3339TIP3   OH231431   3.000   3.337   0.020  0.4837 -0.1652  0.0195
 3339TIP3    H131432   2.951   3.354  -0.061  0.2653  2.1174  0.5936
 3339TIP3    H231433   3.046   3.255   0.003  0.4902  0.3014 -2.4573
 3340TIP3   OH231434   4.999   4.914   1.256  0.3486 -0.7792  0.4578
 3340TIP3    H131435   5.024   4.899   1.165  3.7948  0.7318  1.0522
 3340TIP3    H231436   5.022   4.832   1.300  1.3601 -0.5115  0.4412
 3341TIP3   OH231437   2.257   3.610  15.552 -0.1517 -0.4838 -0.0822
 3341TIP3    H131438   2.254   3.518  15.526 -0.5255 -0.3606 -0.4842
 3341TIP3    H231439   2.347   3.637  15.538 -0.3090 -0.4650 -1.0957
 3342TIP3   OH231440   3.754   1.262  11.606  0.2939  0.7048  0.1577
 3342TIP3    H131441   3.785   1.307  11.527 -0.1579 -0.1777 -0.5314
 3342TIP3    H231442   3.831   1.255  11.662  1.2220 -1.0201 -1.3220
 3343TIP3   OH231443   0.819   6.252   1.347  0.3259  0.0849  0.2944
 3343TIP3    H131444   0.805   6.187   1.278 -1.1390  0.2461  0.4100
 3343TIP3    H231445   0.736   6.254   1.395  0.1639  2.3385  0.0193
 3344TIP3   OH231446   4.518   5.907   4.614 -0.3817 -0.1919 -0.1652
 3344TIP3    H131447   4.458   5.959   4.668 -0.8559 -0.5504 -0.3363
 3344TIP3    H231448   4.530   5.825   4.663  0.7828  0.2780  0.3589
 3345TIP3   OH231449   0.342   0.387   5.543 -0.0408 -0.0875 -0.0088
 3345TIP3    H131450   0.276   0.454   5.522 -1.0788 -1.2670 -0.5970
 3345TIP3    H231451   0.424   0.423   5.509 -0.5719  0.9055 -0.2703
 3346TIP3   OH231452   6.638   4.356  14.945  0.0216  0.6334 -0.2870
 3346TIP3    H131453   6.720   4.386  14.904  0.5217 -0.1163  0.1375
 3346TIP3    H231454   6.581   4.336  14.871  0.9915 -0.8879 -0.6488
 3347TIP3   OH231455   0.158   3.492  12.640 -0.0962  0.7630  0.1242
 3347TIP3    H131456   0.236   3.543  12.661  0.8462 -0.5966 -0.0013
 3347TIP3    H231457   0.192   3.411  12.602 -1.6050  0.7407 -1.2411
 3348TIP3   OH231458   5.254   3.222  14.829  0.0350 -0.6680  0.9516
 3348TIP3    H131459   5.238   3.127  14.836  0.3711 -0.6554  1.9849
 3348TIP3    H231460   5.339   3.235  14.870 -0.7767  0.3099  2.3709
 3349TIP3   OH231461   3.807   1.793  13.647  0.0887  0.4426  0.0086
 3349TIP3    H131462   3.786   1.822  13.736 -0.0887 -1.1098  0.5005
 3349TIP3    H231463   3.863   1.717  13.659 -1.7803 -1.1935 -1.1351
 3350TIP3   OH231464   0.789   5.179  16.697  0.3133  0.1020 -0.4714
 3350TIP3    H131465   0.726   5.130  16.644  1.2445 -1.0752 -0.4977
 3350TIP3    H231466   0.867   5.185  16.643 -0.6803  4.1262 -1.6316
 3351TIP3   OH231467   1.418   4.806  13.201  0.0473 -0.3189  0.3422
 3351TIP3    H131468   1.472   4.727  13.199  1.4417  0.6403 -0.8464
 3351TIP3    H231469   1.399   4.825  13.109 -1.4686 -0.0502  0.6971
 3352TIP3   OH231470   1.198   2.390  11.811  0.6727 -0.1601  0.7583
 3352TIP3    H131471   1.166   2.474  11.845 -0.1895  0.4502 -1.4788
 3352TIP3    H231472   1.134   2.326  11.843 -0.1478  0.4113  0.2950
 3353TIP3   OH231473   0.913   4.448  15.656 -0.0889 -0.6565  0.0158
 3353TIP3    H131474   0.842   4.489  15.705 -0.2335 -1.7370  0.7393
 3353TIP3    H231475   0.938   4.372  15.710  0.9297 -0.8543 -0.7254
 3354TIP3   OH231476   5.631   4.485   1.091  0.3865  0.1738  0.3319
 3354TIP3    H131477   5.628   4.474   0.996 -0.0194 -1.1398  0.4835
 3354TIP3    H231478   5.721   4.460   1.114  0.3140 -0.0752  0.3517
 3355TIP3   OH231479   6.135   3.140  10.613 -0.7916  0.1526 -0.2927
 3355TIP3    H131480   6.217   3.157  10.566  0.0102  0.3740  1.1544
 3355TIP3    H231481   6.067   3.175  10.556  0.2594  1.5264 -0.7408
 3356TIP3   OH231482   0.579   0.573   6.182 -0.3388 -0.1602  0.2369
 3356TIP3    H131483   0.625   0.609   6.258  2.3675 -1.7595 -0.6058
 3356TIP3    H231484   0.603   0.630   6.109  2.9303 -2.8081 -0.8424
 3357TIP3   OH231485   6.632   3.615  12.776  0.4853 -0.8123 -0.5535
 3357TIP3    H131486   6.550   3.576  12.747  0.1802 -0.3718 -0.2984
 3357TIP3    H231487   6.658   3.673  12.705  0.2732 -0.5112 -0.3851
 3358TIP3   OH231488   5.052   6.336  14.710  0.0225  0.3359 -0.1518
 3358TIP3    H131489   4.993   6.348  14.784  1.3829 -4.2951  1.8495
 3358TIP3    H231490   5.020   6.257  14.667  2.2092  0.2129 -1.6104
 3359TIP3   OH231491   5.275   4.297   3.052 -0.5615  0.2331  0.5353
 3359TIP3    H131492   5.231   4.256   2.978  1.0271  0.4619 -0.5667
 3359TIP3    H231493   5.215   4.285   3.126 -1.9403 -0.4310 -0.6766
 3360TIP3   OH231494   3.269   6.468   2.786 -0.7448  1.0902  0.4386
 3360TIP3    H131495   3.177   6.469   2.811 -0.8068  0.5075  0.2409
 3360TIP3    H231496   3.311   6.417   2.856 -1.3089 -2.8139 -1.9397
 3361TIP3   OH231497   4.205   3.080  13.387  0.2328 -0.0740 -0.4880
 3361TIP3    H131498   4.112   3.086  13.363 -0.7035  0.5114  3.0229
 3361TIP3    H231499   4.208   3.009  13.451  2.1239  0.2208 -0.2409
 3362TIP3   OH231500   2.494   3.176   2.107 -0.5415 -0.3069 -0.0329
 3362TIP3    H131501   2.543   3.119   2.048  0.9276  0.2779  0.6151
 3362TIP3    H231502   2.475   3.254   2.055 -1.5344 -0.8701 -0.5439
 3363TIP3   OH231503   5.367   6.625   0.268 -0.2173  0.4740 -0.0822
 3363TIP3    H131504   5.381   6.715   0.240  2.2498  0.4505  0.8691
 3363TIP3    H231505   5.418   6.617   0.349  0.9420 -2.1977 -0.9932
 3364TIP3   OH231506   5.585   0.086  13.580 -0.0584 -0.4024  0.6729
 3364TIP3    H131507   5.530   0.013  13.551  1.7549 -1.8063  0.7001
 3364TIP3    H231508   5.662   0.044  13.619  0.9578  1.5321  0.7799
 3365TIP3   OH231509   2.736   2.999   2.392 -0.1556  0.2005  0.5187
 3365TIP3    H131510   2.750   3.076   2.446 -0.1235  0.4818  0.1131
 3365TIP3    H231511   2.756   3.028   2.303  0.2969 -0.3980  0.4225
 3366TIP3   OH231512   2.174   1.802  14.391 -0.2390  0.0427 -0.7363
 3366TIP3    H131513   2.180   1.771  14.301 -1.1633  0.9373 -1.1080
 3366TIP3    H231514   2.147   1.725  14.441 -0.9023 -0.1658 -1.4051
 3367TIP3   OH231515   5.659   0.478  11.776  0.5054 -0.0477  0.1074
 3367TIP3    H131516   5.663   0.547  11.842  3.1485  0.4995 -0.5456
 3367TIP3    H231517   5.693   0.400  11.820 -1.5016 -0.7044  0.5399
 3368TIP3   OH231518   4.946   4.805  15.790 -0.0727  0.2767 -0.2447
 3368TIP3    H131519   4.853   4.810  15.811 -0.1113  0.2388 -0.4062
 3368TIP3    H231520   4.969   4.893  15.761 -0.3007  0.0230 -1.2085
 3369TIP3   OH231521   4.641   5.934  14.807 -0.5018  0.1374  0.0247
 3369TIP3    H131522   4.551   5.901  14.797 -0.6045  0.5474 -0.4169
 3369TIP3    H231523   4.630   6.026  14.832 -0.2505 -0.7253  3.5273
 3370TIP3   OH231524   0.862   6.224  14.610  0.2571  0.0258  0.2313
 3370TIP3    H131525   0.909   6.295  14.655  0.1220  0.9300 -1.0137
 3370TIP3    H231526   0.772   6.231  14.644 -0.0349  1.2127 -0.7113
 3371TIP3   OH231527   6.018   6.700   5.587  0.4969 -0.1205  0.1538
 3371TIP3    H131528   6.091   6.734   5.637  1.3047 -1.4463 -0.0998
 3371TIP3    H231529   6.045   6.709   5.495 -0.9026  2.1462 -0.0792
 3372TIP3   OH231530   4.535   3.365   5.691 -0.9507  0.2148  0.3641
 3372TIP3    H131531   4.524   3.337   5.600 -0.6877  0.4734  0.2528
 3372TIP3    H231532   4.608   3.312   5.724 -0.2608  0.9750  0.0644
 3373TIP3   OH231533   5.993   5.666  13.843 -0.1869 -0.5943 -0.2620
 3373TIP3    H131534   6.075   5.663  13.795 -0.0727 -0.4956 -0.0752
 3373TIP3    H231535   5.929   5.623  13.786  0.5847 -3.2200  0.7899
 3374TIP3   OH231536   0.666   5.923   2.896  0.7934  0.3880  0.3735
 3374TIP3    H131537   0.642   5.951   2.808 -1.1734  1.2534  1.1665
 3374TIP3    H231538   0.720   5.995   2.931  0.2257  0.7740  0.4579
 3375TIP3   OH231539   4.226   1.668   4.528 -0.2831 -0.8792 -0.6438
 3375TIP3    H131540   4.226   1.657   4.433  0.1927  0.7186 -0.8508
 3375TIP3    H231541   4.147   1.623   4.558 -0.9465 -0.5688 -1.9174
 3376TIP3   OH231542   1.951   2.054   2.600 -0.7867 -0.3843  0.1069
 3376TIP3    H131543   1.978   2.104   2.524 -0.6096 -0.4036  0.1573
 3376TIP3    H231544   1.898   1.983   2.565 -0.5889 -0.4740 -0.0095
 3377TIP3   OH231545   6.706   4.377  11.405  0.6979  0.0083  0.0488
 3377TIP3    H131546   6.717   4.450  11.345  1.2152 -2.6428 -3.2066
 3377TIP3    H231547   6.613   4.354  11.398  0.7756 -0.3531  0.1696
 3378TIP3   OH231548   1.766   2.489  13.799 -0.0497 -0.6750  0.2318
 3378TIP3    H131549   1.772   2.443  13.882 -1.2118 -0.3348  0.5178
 3378TIP3    H231550   1.740   2.422  13.736 -0.1493 -0.7400  0.3414
 3379TIP3   OH231551   2.468   6.492  11.663  0.2091  0.1900  0.7416
 3379TIP3    H131552   2.453   6.407  11.623  1.9821  0.4165 -0.4564
 3379TIP3    H231553   2.533   6.476  11.731  2.1595  0.9142 -0.9070
 3380TIP3   OH231554   5.383   1.191  13.690  0.8275  0.0199  0.1835
 3380TIP3    H131555   5.400   1.097  13.683 -0.7109 -0.2574  0.0848
 3380TIP3    H231556   5.381   1.208  13.784 -1.1230 -0.4736  0.2469
 3381TIP3   OH231557   6.281   6.540  10.668  0.4907 -0.1457  0.3902
 3381TIP3    H131558   6.359   6.565  10.618  1.1682  1.2843  2.1114
 3381TIP3    H231559   6.309   6.543  10.759 -1.2127 -0.9831  0.9551
 3382TIP3   OH231560   4.047   2.679   1.940 -0.4334  0.4150  0.4406
 3382TIP3    H131561   4.126   2.733   1.943 -1.1862  1.5679 -0.0065
 3382TIP3    H231562   4.002   2.698   2.022 -0.2020 -0.3133  0.7379
 3383TIP3   OH231563   1.095   5.587   4.993  0.1760 -0.8419  0.3726
 3383TIP3    H131564   1.171   5.626   5.036  1.5641 -2.9203 -0.1545
 3383TIP3    H231565   1.125   5.567   4.905 -2.2136  2.0013 -1.1882
 3384TIP3   OH231566   2.559   2.720   5.810  0.1039 -0.2401 -0.3986
 3384TIP3    H131567   2.567   2.625   5.816 -2.0376 -0.5458 -1.7322
 3384TIP3    H231568   2.484   2.734   5.752  0.2072  2.2640  0.0137
 3385TIP3   OH231569   4.895   2.938  14.112  0.2055  0.5461  0.8076
 3385TIP3    H131570   4.984   2.912  14.135 -0.0609  1.2986  2.8123
 3385TIP3    H231571   4.873   2.883  14.037  1.1220 -2.0951  2.3788
 3386TIP3   OH231572   4.674   3.180  15.382  0.4364  0.1136 -0.0032
 3386TIP3    H131573   4.608   3.174  15.313  0.7804 -0.0664 -0.3185
 3386TIP3    H231574   4.719   3.262  15.364  1.4560 -0.6123 -0.8335
 3387TIP3   OH231575   4.943   5.299   2.724  0.0362 -0.2339 -0.1349
 3387TIP3    H131576   5.015   5.290   2.786  0.1323 -1.1775 -0.3764
 3387TIP3    H231577   4.880   5.356   2.768  0.8703  0.4819  0.1306
 3388TIP3   OH231578   1.323   6.694   3.848 -0.1853 -0.0721 -0.2273
 3388TIP3    H131579   1.320   6.760   3.778  1.3130 -1.2577 -1.4523
 3388TIP3    H231580   1.388   6.728   3.910 -0.1758  0.0946 -0.3265
 3389TIP3   OH231581   1.734   5.698  12.771 -0.3317 -0.0564 -0.6313
 3389TIP3    H131582   1.654   5.718  12.821 -0.2242 -0.5367 -0.2695
 3389TIP3    H231583   1.802   5.687  12.837  0.4513  2.1496 -1.0117
 3390TIP3   OH231584   6.065   0.611   2.715  0.2750  0.0012  1.0016
 3390TIP3    H131585   6.109   0.569   2.641 -3.1304  0.6213 -1.5109
 3390TIP3    H231586   6.012   0.541   2.755  0.2559  0.2223  1.3657
 3391TIP3   OH231587   2.121   5.079   1.141 -0.2771  0.8897 -0.2859
 3391TIP3    H131588   2.154   5.162   1.176 -0.7457 -0.7488  4.4728
 3391TIP3    H231589   2.200   5.025   1.131 -0.4118  0.3186  1.4590
 3392TIP3   OH231590   5.270   5.131  16.338 -0.8313 -0.1743 -0.1818
 3392TIP3    H131591   5.267   5.047  16.293  1.2339 -0.2240 -0.2925
 3392TIP3    H231592   5.180   5.147  16.367 -1.1388 -2.6927  0.3513
 3393TIP3   OH231593   1.896   5.652   0.527  0.0205  0.0054 -0.4499
 3393TIP3    H131594   1.879   5.743   0.554  0.7803 -0.0249  0.1433
 3393TIP3    H231595   1.947   5.615   0.598  3.1703  0.2983 -2.4502
 3394TIP3   OH231596   3.050   2.888  11.799  0.3821 -0.6837 -0.1547
 3394TIP3    H131597   3.069   2.970  11.846 -0.7694 -0.6677  0.3010
 3394TIP3    H231598   3.015   2.830  11.866 -0.6545 -0.8834 -0.8604
 3395TIP3   OH231599   6.405   3.946   4.556 -0.0939 -0.1476 -0.6344
 3395TIP3    H131600   6.357   4.013   4.605  3.3633  2.0859 -0.0959
 3395TIP3    H231601   6.446   3.892   4.624  0.4425 -0.2589 -1.0412
 3396TIP3   OH231602   5.644   6.647   2.295 -0.1003 -0.7799  0.5324
 3396TIP3    H131603   5.665   6.558   2.322  1.0897 -0.2650  1.3341
 3396TIP3    H231604   5.653   6.646   2.200  1.2987 -1.1544  0.6586
 3397TIP3   OH231605   2.160   4.800  12.534 -0.3702 -0.2855  0.5752
 3397TIP3    H131606   2.251   4.771  12.537 -0.3632 -0.2769  0.4113
 3397TIP3    H231607   2.160   4.882  12.584 -0.1425  0.1200 -0.0833
 3398TIP3   OH231608   4.682   2.608  11.928 -0.0254 -0.1795  0.6157
 3398TIP3    H131609   4.759   2.619  11.983 -1.1344  0.4618  2.0753
 3398TIP3    H231610   4.611   2.588  11.989 -1.0409 -0.6437 -0.6868
 3399TIP3   OH231611   0.099   3.717  14.433  0.4853  0.0956 -0.5679
 3399TIP3    H131612   0.010   3.690  14.411  0.8037 -0.4331 -1.2418
 3399TIP3    H231613   0.153   3.640  14.414  1.0520  0.3245  0.0803
 3400TIP3   OH231614   2.313   0.738  16.366 -0.2682  0.2492 -0.2610
 3400TIP3    H131615   2.276   0.721  16.453 -1.5714 -1.9216 -1.1869
 3400TIP3    H231616   2.259   0.808  16.330 -0.5928  0.2150  0.1552
 3401TIP3   OH231617   1.790   5.865   3.006  0.0560  0.2831  0.1322
 3401TIP3    H131618   1.768   5.802   3.074  0.9820  0.5419  0.6758
 3401TIP3    H231619   1.836   5.814   2.939  1.1362  0.4416  0.7446
 3402TIP3   OH231620   4.289   1.995  14.996 -0.5285  0.1391  0.8913
 3402TIP3    H131621   4.379   1.967  15.015 -0.2454  0.8683  0.6264
 3402TIP3    H231622   4.250   1.921  14.950  0.0164 -0.0837  0.7844
 3403TIP3   OH231623   0.141   2.163  12.049 -0.2617  0.3600  0.2245
 3403TIP3    H131624   0.159   2.084  12.100  1.2624  1.0615  0.8154
 3403TIP3    H231625   0.086   2.133  11.977 -0.9877 -0.9605  1.3041
 3404TIP3   OH231626   1.953   6.280  12.310 -0.0569  0.1947 -0.6979
 3404TIP3    H131627   2.003   6.199  12.299 -1.0686 -0.4544 -0.6467
 3404TIP3    H231628   1.982   6.315  12.394 -2.2548 -2.0749  1.0956
 3405TIP3   OH231629   2.222   6.297   2.149 -0.0774 -0.1041  0.8600
 3405TIP3    H131630   2.193   6.388   2.145 -2.5878 -0.8866  0.2591
 3405TIP3    H231631   2.242   6.274   2.058  2.8191  0.4979  1.2933
 3406TIP3   OH231632   6.120   6.249  13.125 -0.6544  0.3322 -0.0536
 3406TIP3    H131633   6.139   6.156  13.112 -0.7898  0.5657 -2.0798
 3406TIP3    H231634   6.171   6.273  13.202 -0.8659 -1.4947  0.6925
 3407TIP3   OH231635   0.704   4.401   1.905  0.3346  0.0471 -0.1901
 3407TIP3    H131636   0.796   4.426   1.898  0.3428 -0.1558 -0.9106
 3407TIP3    H231637   0.703   4.307   1.889 -0.1674  0.3112 -1.8611
 3408TIP3   OH231638   4.979   5.712  11.287  0.3779  0.1248 -0.4791
 3408TIP3    H131639   5.023   5.685  11.207  2.6263 -0.2769  0.8355
 3408TIP3    H231640   5.049   5.715  11.353 -1.4793 -0.0327  1.5654
 3409TIP3   OH231641   1.029   2.283   6.694  0.1715  0.0687 -0.1264
 3409TIP3    H131642   0.965   2.215   6.713  1.2516 -1.1224 -0.6416
 3409TIP3    H231643   1.027   2.341   6.770 -1.5601  0.0894 -0.1845
 3410TIP3   OH231644   1.863   3.362   3.231 -0.7013  0.0925 -0.1695
 3410TIP3    H131645   1.946   3.368   3.279  0.3796  0.3135 -2.0302
 3410TIP3    H231646   1.882   3.301   3.160 -1.9158  0.7523 -1.0646
 3411TIP3   OH231647   5.977   5.176  14.401  0.1786 -0.3129  0.5169
 3411TIP3    H131648   6.000   5.253  14.454  1.8426 -0.9877  0.8278
 3411TIP3    H231649   6.053   5.162  14.345 -0.2382 -1.5350  0.2293
 3412TIP3   OH231650   1.910   5.454   0.068  0.3711 -0.3454 -0.4765
 3412TIP3    H131651   1.818   5.427   0.076  0.0259  0.8886 -0.1736
 3412TIP3    H231652   1.922   5.471  -0.025 -0.6299  2.5697 -0.1391
 3413TIP3   OH231653   0.796   2.692  16.268  0.3049 -0.1108  0.2877
 3413TIP3    H131654   0.832   2.731  16.347 -0.0443 -0.6907  0.7306
 3413TIP3    H231655   0.872   2.672  16.213  0.6365 -1.0187  1.0718
 3414TIP3   OH231656   5.318   3.795   1.750 -0.2194 -0.0697 -0.3557
 3414TIP3    H131657   5.259   3.732   1.792  0.0527  0.9600  1.5651
 3414TIP3    H231658   5.387   3.811   1.814 -1.0199  3.2736 -0.2515
 3415TIP3   OH231659   4.562   1.305  10.869  0.9012 -0.2434 -0.1496
 3415TIP3    H131660   4.580   1.319  10.776 -0.1475  0.5694 -0.2317
 3415TIP3    H231661   4.550   1.393  10.905 -3.9858 -0.6983 -0.3097
 3416TIP3   OH231662   1.607   6.669   3.929  0.4071  0.3789  0.2309
 3416TIP3    H131663   1.651   6.587   3.904  1.0511  0.7608  0.0957
 3416TIP3    H231664   1.674   6.736   3.918  0.3675  0.7105  1.9283
 3417TIP3   OH231665   6.424   0.521   2.416  0.7756 -0.0087 -0.2420
 3417TIP3    H131666   6.460   0.433   2.428  0.4109 -0.0744  0.3873
 3417TIP3    H231667   6.462   0.551   2.333 -1.3873 -1.8992 -2.0016
 3418TIP3   OH231668   1.504   1.291   4.939 -0.6198  0.2384  0.4106
 3418TIP3    H131669   1.584   1.244   4.959 -0.0201  0.7296 -0.8004
 3418TIP3    H231670   1.449   1.227   4.894 -0.1474  0.4424 -0.4626
 3419TIP3   OH231671   5.277   0.623  12.837  0.2251  0.4914 -0.7398
 3419TIP3    H131672   5.234   0.706  12.860 -0.2233  0.6831 -2.1945
 3419TIP3    H231673   5.277   0.623  12.741  1.6922 -0.4445 -0.7433
 3420TIP3   OH231674   6.627   2.530   3.840 -0.0434  0.1597  0.1146
 3420TIP3    H131675   6.561   2.465   3.864  0.9913 -1.2068 -0.7404
 3420TIP3    H231676   6.661   2.561   3.924  0.2552 -1.2170  0.5166
 3421TIP3   OH231677   5.854   6.475  11.379 -0.0459 -0.3382 -0.1156
 3421TIP3    H131678   5.911   6.436  11.312  1.6551 -1.1193  1.7128
 3421TIP3    H231679   5.899   6.556  11.404 -1.9409  1.2277 -1.6292
 3422TIP3   OH231680   0.301   2.610   4.162  0.0638  0.1910  0.2473
 3422TIP3    H131681   0.341   2.523   4.161 -2.5887 -1.0617 -0.1036
 3422TIP3    H231682   0.285   2.631   4.070 -2.1088 -0.3209  0.4804
 3423TIP3   OH231683   1.644   1.383  12.005 -0.3763 -1.2012 -0.3879
 3423TIP3    H131684   1.586   1.318  12.046 -1.9932  0.5706  0.1864
 3423TIP3    H231685   1.666   1.443  12.076 -1.2074  0.4926 -1.5472
 3424TIP3   OH231686   4.073   4.101   1.581  0.2332 -0.4029  0.0299
 3424TIP3    H131687   4.013   4.138   1.645  2.1676  5.2884 -1.1365
 3424TIP3    H231688   4.020   4.091   1.502 -0.1102  0.7968  0.1025
 3425TIP3   OH231689   1.847   5.276   1.642 -0.3193  0.2485 -0.3101
 3425TIP3    H131690   1.802   5.294   1.725 -0.1650  0.2417 -0.2248
 3425TIP3    H231691   1.868   5.183   1.646  1.1125  0.5909  0.3451
 3426TIP3   OH231692   1.059   0.535  15.839  0.2209 -0.1414  0.4081
 3426TIP3    H131693   1.109   0.513  15.917 -0.3702 -0.9881  0.5551
 3426TIP3    H231694   1.009   0.456  15.819 -0.4771  0.4316 -0.1782
 3427TIP3   OH231695   3.459   1.991  13.976 -0.5780  0.4270  0.2208
 3427TIP3    H131696   3.489   2.027  14.060  0.7234 -3.3902  1.4783
 3427TIP3    H231697   3.523   2.022  13.913  0.9373 -0.2476  1.3986
 3428TIP3   OH231698   1.581   1.379  12.357  0.0276 -0.0860  0.0890
 3428TIP3    H131699   1.500   1.414  12.322  0.2233 -1.1952 -1.5013
 3428TIP3    H231700   1.604   1.307  12.299  2.8943  1.1002 -0.3322
 3429TIP3   OH231701   5.602   3.527  13.510  0.0123  0.6200 -0.0118
 3429TIP3    H131702   5.575   3.518  13.601 -1.0899  1.6887 -0.2284
 3429TIP3    H231703   5.535   3.479  13.460  0.8251 -0.2969 -0.2446
 3430TIP3   OH231704   0.293   0.229   5.774 -0.3297 -0.0952  0.0334
 3430TIP3    H131705   0.296   0.297   5.707  1.1511 -0.4752 -0.3114
 3430TIP3    H231706   0.202   0.200   5.775 -1.2761  2.7964  1.1467
 3431TIP3   OH231707   4.643   6.256   3.005  0.1899  0.4674 -0.1744
 3431TIP3    H131708   4.696   6.204   2.945  1.5699  1.6315 -0.0136
 3431TIP3    H231709   4.594   6.316   2.949 -0.3070 -0.0231 -0.2692
 3432TIP3   OH231710   0.984   0.346   2.385 -0.1042 -0.4215  0.3932
 3432TIP3    H131711   0.943   0.301   2.459 -0.5696  0.3862  0.6387
 3432TIP3    H231712   1.077   0.325   2.392 -0.4645 -2.2007 -0.1137
 3433TIP3   OH231713   4.674   2.173   3.901  0.6848  0.2797  0.4082
 3433TIP3    H131714   4.593   2.216   3.874 -1.3535 -1.6065  3.1831
 3433TIP3    H231715   4.674   2.090   3.852  1.4248  0.6552 -0.2470
 3434TIP3   OH231716   5.214   4.675   0.211  0.3691  0.4862  0.1062
 3434TIP3    H131717   5.309   4.690   0.215  0.2659  0.7110  2.4669
 3434TIP3    H231718   5.190   4.698   0.121  2.0569  3.4857  0.3517
 3435TIP3   OH231719   6.568   1.788  13.043 -0.0297 -0.1334 -0.5267
 3435TIP3    H131720   6.652   1.827  13.022 -1.2450  2.4837 -0.6795
 3435TIP3    H231721   6.550   1.816  13.132  0.0625 -2.1637  0.1495
 3436TIP3   OH231722   0.939   2.721   0.116 -0.1106  0.6652  0.3683
 3436TIP3    H131723   0.866   2.660   0.111  1.4410 -1.1300 -1.2328
 3436TIP3    H231724   0.898   2.806   0.133 -2.6513 -0.1309 -1.4521
 3437TIP3   OH231725   5.231   2.071   4.208 -0.4920 -0.6018 -0.0019
 3437TIP3    H131726   5.225   2.029   4.123 -1.2285  1.3618 -0.9459
 3437TIP3    H231727   5.242   1.999   4.270 -2.0433 -2.2039 -1.5350
 3438TIP3   OH231728   3.234   3.656  16.892  0.0794 -0.2165  0.2377
 3438TIP3    H131729   3.234   3.639  16.798  1.2615  1.4123 -0.0765
 3438TIP3    H231730   3.316   3.703  16.907  0.1944 -1.0161  2.1866
 3439TIP3   OH231731   5.433   4.400  11.425 -0.0656 -0.1869 -0.1476
 3439TIP3    H131732   5.398   4.488  11.437 -0.0920 -0.2851  0.4939
 3439TIP3    H231733   5.427   4.385  11.331  0.2208  0.6153 -0.3002
 3440TIP3   OH231734   2.264   1.285  12.857  0.0618  0.0037 -0.4510
 3440TIP3    H131735   2.290   1.366  12.814 -1.1243  0.9595  0.6229
 3440TIP3    H231736   2.301   1.216  12.801 -0.5210  1.2253 -2.3916
 3441TIP3   OH231737   6.533   1.624  16.388  0.2815 -0.0248 -0.3057
 3441TIP3    H131738   6.528   1.708  16.342  0.1898  0.6637  0.9335
 3441TIP3    H231739   6.627   1.609  16.400  0.3438 -0.7744 -1.7430
 3442TIP3   OH231740   4.297   4.888  16.186  0.2507 -0.0666 -0.5171
 3442TIP3    H131741   4.267   4.802  16.216  2.0565 -1.1693 -1.7522
 3442TIP3    H231742   4.228   4.919  16.128 -0.7858 -0.3229  0.5742
 3443TIP3   OH231743   0.300   4.085   5.005 -0.1739  0.1597 -0.1574
 3443TIP3    H131744   0.336   4.128   5.082 -0.3613 -0.2000  0.1279
 3443TIP3    H231745   0.286   4.157   4.942 -2.5353  0.8570  1.0969
 3444TIP3   OH231746   2.212   1.052  11.898 -0.2608  0.0290 -0.3068
 3444TIP3    H131747   2.141   1.093  11.849 -0.7094 -1.0478 -0.5593
 3444TIP3    H231748   2.234   0.973  11.849  0.0215 -0.4880  0.6221
 3445TIP3   OH231749   4.745   2.427  15.105 -0.2087  0.2827 -1.0879
 3445TIP3    H131750   4.743   2.346  15.157 -0.1720  0.3570 -0.9708
 3445TIP3    H231751   4.820   2.416  15.047  0.0857  0.4381 -0.7380
 3446TIP3   OH231752   5.889   2.994  11.437 -0.1668 -0.5439 -0.2066
 3446TIP3    H131753   5.911   3.081  11.405 -1.3637  0.3067  1.2653
 3446TIP3    H231754   5.900   3.000  11.532 -2.6202 -1.3061  0.1365
 3447TIP3   OH231755   1.628   0.647  12.616 -0.1015  0.5788  0.5327
 3447TIP3    H131756   1.712   0.606  12.636 -0.3018  0.4176  1.0448
 3447TIP3    H231757   1.563   0.579  12.636 -0.3458  0.6457 -0.0144
 3448TIP3   OH231758   0.883   0.005   6.432  0.1228  0.0174 -0.0683
 3448TIP3    H131759   0.916   0.077   6.486 -0.3537 -0.3162  0.6879
 3448TIP3    H231760   0.808  -0.029   6.482 -0.3088 -0.3131 -0.9359
 3449TIP3   OH231761   4.756   4.997  10.956  0.4904 -0.7372  0.1895
 3449TIP3    H131762   4.724   5.087  10.966 -0.0538 -0.9822  0.6498
 3449TIP3    H231763   4.815   5.001  10.881 -2.4021 -0.7212 -2.1890
 3450TIP3   OH231764   1.787   1.978   3.126 -0.0119 -0.2857 -0.4673
 3450TIP3    H131765   1.807   1.965   3.033  1.1789  1.9306 -0.5557
 3450TIP3    H231766   1.864   1.944   3.172  1.1955  2.3334 -0.5031
 3451TIP3   OH231767   2.571   2.492   1.305 -0.7257  0.4343  0.0714
 3451TIP3    H131768   2.587   2.572   1.355  0.7035  1.2665 -1.6930
 3451TIP3    H231769   2.489   2.508   1.259 -0.8730  0.5473  0.3722
 3452TIP3   OH231770   1.055   5.436  13.559  0.4270  0.3781 -0.6320
 3452TIP3    H131771   1.024   5.453  13.648  0.0861  2.9108 -1.2006
 3452TIP3    H231772   1.114   5.361  13.568  1.1771  1.2233  1.8823
 3453TIP3   OH231773   5.769   5.341  12.144 -0.2483 -0.2991  0.1985
 3453TIP3    H131774   5.855   5.377  12.165 -0.8736  0.6242  1.2690
 3453TIP3    H231775   5.768   5.336  12.049  0.9553 -0.2291  0.1731
 3454TIP3   OH231776   2.885   4.211  14.290 -0.6848 -0.7531  0.0008
 3454TIP3    H131777   2.964   4.181  14.334 -0.2728 -0.9531 -0.8602
 3454TIP3    H231778   2.906   4.298  14.258  0.0710 -1.7449 -2.3671
 3455TIP3   OH231779   5.395   2.376   5.444  0.4459  0.3387  0.0649
 3455TIP3    H131780   5.325   2.315   5.417  1.0375 -0.2568 -0.1619
 3455TIP3    H231781   5.426   2.414   5.361  0.1697  0.8470  0.1956
 3456TIP3   OH231782   4.324   5.207  11.020 -0.1484  0.3717  0.1589
 3456TIP3    H131783   4.291   5.190  10.932  2.0246 -0.0493 -0.6238
 3456TIP3    H231784   4.403   5.260  11.006  1.3535 -1.3480  1.6903
 3457TIP3   OH231785   4.206   2.411   5.087  0.1347 -0.3040  0.0164
 3457TIP3    H131786   4.285   2.444   5.129 -0.0272 -1.6383  1.4311
 3457TIP3    H231787   4.134   2.454   5.134 -0.0444 -1.7180  1.0721
 3458TIP3   OH231788   6.706   5.371   1.127  0.6821 -0.3310 -0.1472
 3458TIP3    H131789   6.745   5.296   1.173  0.9594  0.8595  1.5821
 3458TIP3    H231790   6.726   5.446   1.182 -3.5779  0.3995  0.5400
 3459TIP3   OH231791   1.293   2.148   1.715 -0.2601 -0.0254  0.1282
 3459TIP3    H131792   1.333   2.061   1.721 -0.0010  0.1427  0.8509
 3459TIP3    H231793   1.331   2.186   1.636 -0.6328 -0.6973 -0.3855
 3460TIP3   OH231794   1.264   1.014  16.413  0.4140  0.8737  0.0880
 3460TIP3    H131795   1.336   1.007  16.477 -0.1904  1.8331  0.8992
 3460TIP3    H231796   1.198   0.952  16.444  0.0400  1.4776  0.5226
 3461TIP3   OH231797   1.114   1.015   4.059  1.0415  0.0488 -0.3155
 3461TIP3    H131798   1.151   1.016   4.147  2.1212 -0.4114 -0.7482
 3461TIP3    H231799   1.191   1.011   4.001  0.4161  1.8470 -1.3142
 3462TIP3   OH231800   0.214   2.894  16.913 -0.4420  0.6798 -0.0572
 3462TIP3    H131801   0.142   2.950  16.885 -0.7107 -0.8803 -2.7465
 3462TIP3    H231802   0.252   2.862  16.831  0.6386 -1.8334  1.3596
 3463TIP3   OH231803   2.429   3.064  12.905  0.0332  0.8444  0.5794
 3463TIP3    H131804   2.433   2.969  12.913 -1.3762  0.6847 -0.4904
 3463TIP3    H231805   2.343   3.082  12.867  0.3414  2.5388  0.6226
 3464TIP3   OH231806   0.807   5.272   2.481 -0.3703  0.6820 -0.1755
 3464TIP3    H131807   0.869   5.261   2.553  0.1446 -0.2299 -0.7555
 3464TIP3    H231808   0.725   5.236   2.515 -0.1068  0.1684 -0.0770
 3465TIP3   OH231809   0.647   3.930   5.048 -0.4071 -0.1057 -0.0195
 3465TIP3    H131810   0.577   3.907   4.987 -0.8764  1.2007  0.0170
 3465TIP3    H231811   0.689   3.846   5.068 -1.2333 -0.7540 -0.9202
 3466TIP3   OH231812   2.495   3.424   0.264 -0.1141  0.0824 -0.0236
 3466TIP3    H131813   2.520   3.503   0.216 -1.2462  0.5003  0.0658
 3466TIP3    H231814   2.450   3.369   0.200 -0.4051  0.0379  0.2158
 3467TIP3   OH231815   1.717   6.671  13.228  0.5233 -0.1531 -0.1599
 3467TIP3    H131816   1.652   6.662  13.158  1.4126  0.8237 -1.1438
 3467TIP3    H231817   1.681   6.739  13.285  0.9965  0.9112 -1.0995
 3468TIP3   OH231818   0.365   1.402   5.036 -0.0587  0.5385  0.0291
 3468TIP3    H131819   0.372   1.495   5.012 -0.9754  0.2430 -1.4891
 3468TIP3    H231820   0.271   1.386   5.041  0.1008 -0.2621  0.4683
 3469TIP3   OH231821   4.815   4.023  11.228 -0.0024  0.2377 -0.7604
 3469TIP3    H131822   4.724   4.003  11.205  0.2641  0.3679 -1.9567
 3469TIP3    H231823   4.816   4.118  11.240 -0.3709  0.0535  0.8699
 3470TIP3   OH231824   1.965   4.261   5.133  0.2745  0.1123  1.1729
 3470TIP3    H131825   1.938   4.353   5.130  0.7370  0.4292  4.2865
 3470TIP3    H231826   2.059   4.263   5.120 -0.0513 -0.1961 -1.3707
 3471TIP3   OH231827   3.825   2.910   6.469  0.6228 -0.4193 -0.3688
 3471TIP3    H131828   3.888   2.862   6.522  0.8491 -0.9900 -1.1531
 3471TIP3    H231829   3.802   2.986   6.523  0.1363 -1.4703  0.9461
 3472TIP3   OH231830   1.632   2.419   0.024 -0.0278 -0.4788 -0.5103
 3472TIP3    H131831   1.568   2.490   0.026  0.6913  0.1588  0.5128
 3472TIP3    H231832   1.715   2.462   0.046  0.5475 -1.4949 -0.6955
 3473TIP3   OH231833   5.911   6.714  12.546  0.4287  0.3290 -0.3597
 3473TIP3    H131834   5.962   6.634  12.537 -1.0080 -0.4442 -1.9081
 3473TIP3    H231835   5.930   6.763  12.465 -0.6408  0.4102 -0.5583
 3474TIP3   OH231836   3.013   6.742   1.047 -0.4218  0.1187 -0.5002
 3474TIP3    H131837   3.056   6.669   1.002 -0.9291 -0.5198  0.0299
 3474TIP3    H231838   3.068   6.759   1.123 -0.3657  0.2174 -0.5625
 3475TIP3   OH231839   0.594   2.065   1.764 -0.1731 -0.5238  0.3594
 3475TIP3    H131840   0.580   1.992   1.824  1.2408 -1.4163 -0.3702
 3475TIP3    H231841   0.583   2.143   1.818 -3.2040 -1.2274  0.8199
 3476TIP3   OH231842   3.833   3.914  11.641  0.4198  0.1280  0.0686
 3476TIP3    H131843   3.746   3.923  11.681  0.3599 -1.1476  0.2460
 3476TIP3    H231844   3.816   3.923  11.547  0.0102 -0.6355  0.0616
 3477TIP3   OH231845   2.009   2.899  13.051 -0.4358  0.0146  0.1383
 3477TIP3    H131846   1.926   2.896  13.004 -0.5745  0.0452  0.3804
 3477TIP3    H231847   2.025   2.993  13.064  1.3118  0.2115 -2.8683
 3478TIP3   OH231848   2.777   6.456   2.051 -0.7176 -0.1556 -0.0950
 3478TIP3    H131849   2.775   6.378   2.106 -0.5647 -0.5165 -0.5919
 3478TIP3    H231850   2.733   6.524   2.102 -1.7559 -0.8388 -0.0796
 3479TIP3   OH231851   0.124   6.297   4.121 -0.2521  0.7784 -0.2943
 3479TIP3    H131852   0.207   6.273   4.080  0.6061 -0.2429  1.9648
 3479TIP3    H231853   0.149   6.353   4.195 -1.5845  0.6914  0.2286
 3480TIP3   OH231854   4.675   3.986  13.116 -0.4058  0.1736 -0.6387
 3480TIP3    H131855   4.599   3.935  13.143  0.3088  0.4583  2.0026
 3480TIP3    H231856   4.641   4.075  13.104 -1.0328 -0.2706 -2.2446
 3481TIP3   OH231857   0.395   5.792   2.097  0.3931 -0.1108 -0.5036
 3481TIP3    H131858   0.380   5.821   2.187 -0.7539  1.2912 -1.1250
 3481TIP3    H231859   0.491   5.788   2.088  0.5033 -2.0392  1.3151
 3482TIP3   OH231860   2.691   2.066   1.940 -0.1806  0.0034 -0.0360
 3482TIP3    H131861   2.654   2.090   1.855 -0.5475 -0.8939 -0.1335
 3482TIP3    H231862   2.783   2.093   1.935 -0.0666 -0.5377 -0.9160
 3483TIP3   OH231863   4.241   1.207   3.399  0.2448  0.2352  0.0397
 3483TIP3    H131864   4.297   1.233   3.326  1.5159 -0.6750  0.6530
 3483TIP3    H231865   4.227   1.288   3.448  1.6845  0.3509  0.2915
 3484TIP3   OH231866   6.265   1.270   1.026 -0.5242 -0.0701  0.8322
 3484TIP3    H131867   6.273   1.220   0.945 -1.3136 -0.4389  0.9823
 3484TIP3    H231868   6.330   1.340   1.017  0.9014 -1.3704  0.8207
 3485TIP3   OH231869   2.658   2.199   5.469 -0.2490  0.3058 -0.2936
 3485TIP3    H131870   2.626   2.169   5.554  0.8000  0.3080  0.1140
 3485TIP3    H231871   2.752   2.215   5.483 -0.1202  0.5507 -1.3807
 3486TIP3   OH231872   5.993   1.220  11.956  0.6792  0.2953 -0.1484
 3486TIP3    H131873   6.084   1.210  11.983  0.5160  0.2783  0.4250
 3486TIP3    H231874   5.951   1.261  12.032  0.0192 -0.5361 -0.0501
 3487TIP3   OH231875   6.349   0.429  17.120  0.0727 -0.3291  0.0355
 3487TIP3    H131876   6.427   0.448  17.067  1.3742 -1.2942  1.5658
 3487TIP3    H231877   6.372   0.460  17.208 -2.4804  2.2994 -0.1356
 3488TIP3   OH231878   2.390   6.362  12.178 -0.5321  0.3051 -0.8839
 3488TIP3    H131879   2.383   6.420  12.102 -1.4126  0.6208 -0.5585
 3488TIP3    H231880   2.397   6.274  12.140 -2.1327  0.3525 -1.3132
 3489TIP3   OH231881   1.733   0.633  11.453 -0.3580 -0.3268 -0.2772
 3489TIP3    H131882   1.753   0.545  11.486 -0.5488 -0.2943 -0.0746
 3489TIP3    H231883   1.787   0.642  11.375  0.6522 -0.1357  0.4270
 3490TIP3   OH231884   3.778   5.295  14.383  0.5939  0.0398 -0.5210
 3490TIP3    H131885   3.747   5.204  14.379 -0.5819  0.4884 -2.2356
 3490TIP3    H231886   3.754   5.332  14.298  0.8734  2.0204  0.2399
 3491TIP3   OH231887   4.735   3.153  12.446 -0.0974 -0.3764  0.2626
 3491TIP3    H131888   4.710   3.148  12.538  0.2502 -0.8605  0.3326
 3491TIP3    H231889   4.666   3.205  12.405 -0.0060  0.2450  0.8820
 3492TIP3   OH231890   3.392   0.916   2.888  0.0214 -0.5265  0.1393
 3492TIP3    H131891   3.453   0.849   2.856  0.2828 -0.3662  0.2969
 3492TIP3    H231892   3.427   0.998   2.855  0.4976 -0.3199  1.1168
 3493TIP3   OH231893   4.118   2.586   0.319  1.4718 -0.4104 -0.0454
 3493TIP3    H131894   4.077   2.534   0.387 -1.2011 -1.1087 -2.1132
 3493TIP3    H231895   4.149   2.522   0.254  0.0118  0.4169 -1.6044
 3494TIP3   OH231896   5.176   4.053   1.165  0.6446 -0.5558 -0.0217
 3494TIP3    H131897   5.127   3.995   1.223  0.6046  0.7695  1.3082
 3494TIP3    H231898   5.264   4.057   1.204 -0.1045  2.4536  1.5679
 3495TIP3   OH231899   6.733   4.242   5.182 -0.0851 -0.5380  0.3339
 3495TIP3    H131900   6.658   4.183   5.181  0.0913 -0.7583 -0.4078
 3495TIP3    H231901   6.725   4.293   5.101  1.4649 -1.7375 -0.6172
 3496TIP3   OH231902   0.103   6.271  13.198 -0.0616  0.2794  0.1376
 3496TIP3    H131903   0.033   6.327  13.233 -0.8019  0.8568 -2.1516
 3496TIP3    H231904   0.088   6.271  13.104  1.1649 -2.1769 -0.0898
 3497TIP3   OH231905   6.622   1.793   3.466 -0.1487  0.3949 -0.0739
 3497TIP3    H131906   6.710   1.769   3.436 -0.7237 -0.3766 -1.1835
 3497TIP3    H231907   6.623   1.889   3.467 -0.2841  0.4748 -3.1862
 3498TIP3   OH231908   6.354   3.581   5.992  0.4958 -0.6597  0.1875
 3498TIP3    H131909   6.393   3.593   5.905 -1.0325 -0.5737 -0.4973
 3498TIP3    H231910   6.394   3.649   6.046 -0.7516  1.2079 -1.1895
 3499TIP3   OH231911   6.656   4.071  13.696 -0.1782  0.4009 -0.1819
 3499TIP3    H131912   6.646   4.089  13.790 -1.4540  0.1888 -0.2722
 3499TIP3    H231913   6.604   4.139  13.654 -0.1455  0.0931 -0.7179
 3500TIP3   OH231914   3.453   5.185  12.107 -0.7712  0.1823 -0.1573
 3500TIP3    H131915   3.492   5.270  12.087  0.6231 -0.5693 -0.7311
 3500TIP3    H231916   3.425   5.151  12.022  0.4196 -0.7560 -0.1778
 3501TIP3   OH231917   6.519   4.074  12.688 -0.3454 -0.2411  0.4050
 3501TIP3    H131918   6.527   4.161  12.727  0.6302  0.2376 -0.8481
 3501TIP3    H231919   6.542   4.014  12.759 -0.0380  0.5573  0.9827
 3502TIP3   OH231920   3.702   3.226   0.550 -0.5143 -0.0340 -0.2650
 3502TIP3    H131921   3.654   3.306   0.573  0.2391  0.4620 -0.4052
 3502TIP3    H231922   3.657   3.157   0.600 -1.1869  0.4660 -0.1627
 3503TIP3   OH231923   5.627   0.985  12.011  0.4885  0.2202 -0.1840
 3503TIP3    H131924   5.610   1.071  11.971 -0.1016  0.5112  0.6791
 3503TIP3    H231925   5.541   0.955  12.040  0.6569 -0.7699 -0.6689
 3504TIP3   OH231926   4.590   3.312   5.224 -0.2575  0.0647  0.4182
 3504TIP3    H131927   4.571   3.259   5.301 -0.3702 -0.1374  0.2520
 3504TIP3    H231928   4.606   3.249   5.154 -1.0383  0.2524  0.0631
 3505TIP3   OH231929   2.911   0.610   3.241 -0.4101 -0.3071  0.4203
 3505TIP3    H131930   2.874   0.607   3.329  1.9197 -0.5833  1.4185
 3505TIP3    H231931   2.974   0.682   3.244 -2.3233  1.5502 -1.8691
 3506TIP3   OH231932   0.580   6.104  14.063  0.3144 -0.1875  0.1638
 3506TIP3    H131933   0.624   6.058  13.992  0.0943 -0.1264 -0.0080
 3506TIP3    H231934   0.590   6.046  14.139  1.1739  0.0658  0.2612
 3507TIP3   OH231935   3.182   5.239  12.162  0.4376  0.1131 -0.5276
 3507TIP3    H131936   3.132   5.157  12.160 -0.1258  0.4670 -0.8843
 3507TIP3    H231937   3.268   5.215  12.128  0.7860 -0.6783  0.8801
 3508TIP3   OH231938   2.778   3.434   4.553 -0.5709 -0.2750 -0.6966
 3508TIP3    H131939   2.737   3.520   4.552  1.8740  0.9349 -0.8225
 3508TIP3    H231940   2.748   3.392   4.472 -1.1200  0.7908 -1.0527
 3509TIP3   OH231941   4.388   1.189   1.284  0.4496 -0.1560  0.1890
 3509TIP3    H131942   4.443   1.113   1.303 -1.4558 -1.6892 -0.3274
 3509TIP3    H231943   4.362   1.178   1.193 -1.4160  0.0851  0.6756
 3510TIP3   OH231944   5.107   5.216  13.816  0.5484 -0.2250 -0.3554
 3510TIP3    H131945   5.171   5.260  13.873  0.5017 -1.4403  0.6401
 3510TIP3    H231946   5.076   5.141  13.867 -2.3761  0.8523 -0.4501
 3511TIP3   OH231947   4.010   5.281  16.897  0.1980  0.0153  0.0486
 3511TIP3    H131948   3.986   5.213  16.834  0.0261  0.6377 -0.5617
 3511TIP3    H231949   3.965   5.255  16.978  0.4826 -0.8273 -0.0611
 3512TIP3   OH231950   3.531   5.754   4.531  0.0671  0.1946  0.2221
 3512TIP3    H131951   3.445   5.791   4.512  0.4424  0.8102 -0.3201
 3512TIP3    H231952   3.581   5.827   4.567  1.0253  0.4234 -1.4882
 3513TIP3   OH231953   1.330   2.166   1.438 -0.0979 -0.4262  0.4375
 3513TIP3    H131954   1.412   2.170   1.388 -0.7623 -0.0334 -0.6290
 3513TIP3    H231955   1.284   2.090   1.403 -0.6043 -0.1004  0.3866
 3514TIP3   OH231956   2.840   0.286  12.247  0.3296  0.3964  1.0891
 3514TIP3    H131957   2.826   0.362  12.192  0.0706 -0.6804 -0.3729
 3514TIP3    H231958   2.879   0.321  12.328  3.5167  1.6941 -0.9216
 3515TIP3   OH231959   1.233   1.784  11.377 -0.1164  0.0450 -0.1292
 3515TIP3    H131960   1.193   1.829  11.451  0.8356 -1.0496  1.0722
 3515TIP3    H231961   1.193   1.697  11.377  2.0115 -0.9644  0.9230
 3516TIP3   OH231962   6.342   5.597  11.063  0.1585 -0.0998 -0.1458
 3516TIP3    H131963   6.280   5.556  11.122  0.0673 -0.4702 -0.4980
 3516TIP3    H231964   6.305   5.585  10.975  0.9236 -0.6969 -0.4025
 3517TIP3   OH231965   5.189   1.646   4.181  0.0973 -0.3818 -0.5671
 3517TIP3    H131966   5.255   1.710   4.208  0.7946 -1.3720  0.1188
 3517TIP3    H231967   5.116   1.660   4.241  0.7344 -1.0383  0.3686
 3518TIP3   OH231968   3.111   6.558   3.179 -0.3765 -0.1393  0.0220
 3518TIP3    H131969   3.172   6.574   3.107 -0.6923  1.1265  0.0324
 3518TIP3    H231970   3.149   6.606   3.253 -2.0483  1.7359 -0.3060
 3519TIP3   OH231971   2.667   6.129  16.106  0.0493  0.0679  0.0565
 3519TIP3    H131972   2.610   6.077  16.049  1.4844 -0.6555 -0.7220
 3519TIP3    H231973   2.611   6.202  16.135 -0.7690  0.3020 -2.0567
 3520TIP3   OH231974   2.475   4.122   4.445  0.1318 -0.2678 -0.0360
 3520TIP3    H131975   2.482   4.034   4.482  0.2962 -0.3219 -0.1960
 3520TIP3    H231976   2.447   4.108   4.355  1.8612 -0.2468 -0.5938
 3521TIP3   OH231977   6.099   1.622   2.745 -0.1141 -0.0654 -0.0829
 3521TIP3    H131978   6.084   1.608   2.838 -0.7628 -0.6350 -0.2623
 3521TIP3    H231979   6.017   1.593   2.704 -0.3695  1.4832 -0.7145
 3522TIP3   OH231980   5.533   1.586  13.571  0.1548  0.0743 -0.5963
 3522TIP3    H131981   5.456   1.529  13.565  0.6164 -0.5632 -0.5168
 3522TIP3    H231982   5.607   1.528  13.552  0.5889  0.7559 -0.9783
 3523TIP3   OH231983   5.458   1.673  11.617  0.0695  0.0004 -0.0355
 3523TIP3    H131984   5.387   1.707  11.672 -1.1645 -0.2341 -1.4664
 3523TIP3    H231985   5.494   1.750  11.574  0.5834  0.0922  0.5339
 3524TIP3   OH231986   2.275   4.528  12.192 -0.2726 -0.1982 -0.2662
 3524TIP3    H131987   2.254   4.564  12.105  5.9476 -0.0099 -1.9001
 3524TIP3    H231988   2.242   4.438  12.189 -1.1525  0.1565 -2.3545
 3525TIP3   OH231989   3.568   2.227  14.499  0.7606  0.2728  0.2503
 3525TIP3    H131990   3.516   2.192  14.427 -1.0286  1.5326  0.8990
 3525TIP3    H231991   3.528   2.190  14.577  3.6028 -2.2694  0.5820
 3526TIP3   OH231992   4.468   1.357  13.979 -0.0943  0.3906  0.1387
 3526TIP3    H131993   4.412   1.394  13.910 -1.7038 -1.5563  0.3467
 3526TIP3    H231994   4.406   1.323  14.044  1.3550 -0.7529  0.9559
 3527TIP3   OH231995   6.503   0.236  15.006 -0.0291 -0.1955 -0.2797
 3527TIP3    H131996   6.513   0.190  15.089  0.2485 -0.8273 -0.6549
 3527TIP3    H231997   6.430   0.192  14.962 -0.7812  0.7473  0.0328
 3528TIP3   OH231998   0.091   5.064  17.100 -0.6451  0.6895  0.5820
 3528TIP3    H131999   0.171   5.046  17.149  0.8512  0.0197 -2.0526
 3528TIP3    H232000   0.040   4.983  17.108  0.3450 -0.0417 -0.3525
 3529TIP3   OH232001   3.239   2.054  15.373 -0.3070 -0.0979  0.1450
 3529TIP3    H132002   3.238   2.087  15.283  0.0271  1.5750  0.7444
 3529TIP3    H232003   3.188   2.118  15.423 -0.2182 -0.8447  1.2176
 3530TIP3   OH232004   2.209   5.382  17.191 -0.4660  0.1284  0.6496
 3530TIP3    H132005   2.120   5.399  17.162 -0.0450  0.9297 -0.2283
 3530TIP3    H232006   2.257   5.360  17.111  0.7689  2.5699  0.6624
 3531TIP3   OH232007   0.654   3.427  14.391  0.2523 -0.3158  0.1024
 3531TIP3    H132008   0.615   3.506  14.427 -1.7673  0.5973 -3.7979
 3531TIP3    H232009   0.584   3.361  14.396 -0.2818  0.0024 -2.5831
 3532TIP3   OH232010   2.227   1.767  15.930  0.1028  0.4627 -0.1048
 3532TIP3    H132011   2.181   1.745  15.849 -0.7007  0.0389  0.4619
 3532TIP3    H232012   2.254   1.683  15.967 -0.6975  0.5708  0.7412
 3533TIP3   OH232013   4.817   4.329   1.594  0.1065  0.4075 -0.3180
 3533TIP3    H132014   4.873   4.380   1.535 -1.3910  0.0894 -2.0564
 3533TIP3    H232015   4.733   4.374   1.590 -0.1457  0.0761  1.2101
 3534TIP3   OH232016   0.305   1.747  14.610 -0.1384  0.0396 -0.5984
 3534TIP3    H132017   0.313   1.654  14.592  0.3215  0.2234 -1.3382
 3534TIP3    H232018   0.367   1.763  14.681 -1.6477 -0.5962  0.9156
 3535TIP3   OH232019   1.365   6.590   4.403  0.1639 -0.2525 -0.1103
 3535TIP3    H132020   1.356   6.507   4.450  1.8484 -2.0001 -2.7300
 3535TIP3    H232021   1.302   6.584   4.332  0.2319  0.7583 -0.2535
 3536TIP3   OH232022   0.052   5.198  16.837 -0.0220  0.2496  0.8502
 3536TIP3    H132023   0.076   5.146  16.914 -1.1725  0.8087  1.6106
 3536TIP3    H232024  -0.038   5.227  16.856 -0.5593 -0.1699 -1.0124
 3537TIP3   OH232025   5.724   5.605   4.251 -0.0046  0.6369 -0.0555
 3537TIP3    H132026   5.713   5.572   4.340  2.9201  0.1368  0.1597
 3537TIP3    H232027   5.692   5.695   4.255 -2.4177 -0.2191  0.8180
 3538TIP3   OH232028   4.900   3.815  14.946 -0.8381 -0.3913 -0.0231
 3538TIP3    H132029   4.995   3.803  14.932 -0.8829 -0.1536 -0.5591
 3538TIP3    H232030   4.864   3.819  14.857 -1.3548 -0.4928  0.1828
 3539TIP3   OH232031   5.626   5.898   0.829  0.2097 -0.2530  0.5740
 3539TIP3    H132032   5.655   5.838   0.898  2.2488  0.4342  0.3645
 3539TIP3    H232033   5.641   5.851   0.747 -1.2846 -0.6956  0.5490
 3540TIP3   OH232034   3.869   6.669   5.982 -0.3578  0.0940 -0.2342
 3540TIP3    H132035   3.922   6.667   6.062 -0.5655 -0.8287 -0.1174
 3540TIP3    H232036   3.778   6.670   6.013 -0.4318  0.2733 -0.4532
 3541TIP3   OH232037   2.250   0.678  13.037  0.4642  0.2183  0.1981
 3541TIP3    H132038   2.196   0.757  13.041  0.9420  0.5817 -0.3754
 3541TIP3    H232039   2.201   0.617  12.983  1.2072  1.0177 -1.4190
 3542TIP3   OH232040   1.239   4.091  12.755 -0.2989  0.2483  0.2048
 3542TIP3    H132041   1.206   4.079  12.844  0.7077  0.2239  0.5851
 3542TIP3    H232042   1.197   4.171  12.724  0.4132  1.0334  1.2198
 3543TIP3   OH232043   6.733   5.064  15.677 -0.2444  0.1054  1.0465
 3543TIP3    H132044   6.646   5.031  15.655 -0.6880  1.0083  1.4563
 3543TIP3    H232045   6.751   5.029  15.765 -0.1269 -0.2028  0.9007
 3544TIP3   OH232046   6.451   1.115  13.732 -0.1119  0.4446  0.0416
 3544TIP3    H132047   6.493   1.035  13.701 -1.3990 -0.4244  0.5022
 3544TIP3    H232048   6.511   1.185  13.707 -0.3259 -0.3728 -2.9848
 3545TIP3   OH232049   1.335   2.501   0.173  0.1766 -0.4604  0.5387
 3545TIP3    H132050   1.258   2.534   0.127 -0.4210 -0.9521  1.1818
 3545TIP3    H232051   1.300   2.447   0.243  1.1114 -0.7315  0.8044
 3546TIP3   OH232052   4.543   1.989   2.654  0.3620  0.0294 -0.2207
 3546TIP3    H132053   4.523   1.916   2.713 -1.9501  0.9254  0.1750
 3546TIP3    H232054   4.539   1.950   2.566  0.8337 -0.6666  0.0565
 3547TIP3   OH232055   1.430   2.095   3.391  0.2859  0.0084  0.4737
 3547TIP3    H132056   1.461   2.067   3.477 -1.2986  2.8765  2.0670
 3547TIP3    H232057   1.509   2.115   3.342  1.1915 -1.1921  1.4196
 3548TIP3   OH232058   5.052   2.224   6.023  0.3103  0.2513 -0.6590
 3548TIP3    H132059   5.009   2.302   6.060  1.8704  0.5417  0.5897
 3548TIP3    H232060   4.984   2.157   6.024 -0.4713  1.0413  0.1654
 3549TIP3   OH232061   4.604   2.137  12.592  0.1883  0.1132  0.6115
 3549TIP3    H132062   4.642   2.055  12.561 -0.0500  1.3056 -3.0695
 3549TIP3    H232063   4.654   2.158  12.671  2.2685 -2.0273 -0.0677
 3550TIP3   OH232064   1.707   5.390  14.442  0.1884  0.3770  0.0816
 3550TIP3    H132065   1.724   5.296  14.443  0.1421  0.3713  0.3277
 3550TIP3    H232066   1.777   5.427  14.496  1.6212  0.7105 -1.9535
 3551TIP3   OH232067   1.466   5.350   1.809 -0.0598  0.6821  0.0635
 3551TIP3    H132068   1.389   5.367   1.755 -0.0845 -0.1294 -0.1645
 3551TIP3    H232069   1.465   5.420   1.875 -0.5380  1.1369 -0.4217
 3552TIP3   OH232070   3.467   3.804  16.026  0.2864  0.5639 -0.4871
 3552TIP3    H132071   3.454   3.737  16.093  0.7025 -0.1067 -1.0698
 3552TIP3    H232072   3.432   3.765  15.946  0.0170  1.2648 -0.7222
 3553TIP3   OH232073   0.772   1.474  14.158 -0.5317 -0.5026  0.6382
 3553TIP3    H132074   0.812   1.387  14.158  0.9639  0.1699  0.6743
 3553TIP3    H232075   0.788   1.508  14.245 -0.1679  0.2410  0.2814
 3554TIP3   OH232076   5.175   6.352  10.375 -0.0501 -0.2120  0.2224
 3554TIP3    H132077   5.126   6.275  10.405 -1.4204  0.6243  0.1681
 3554TIP3    H232078   5.230   6.376  10.449  0.7977 -1.5861  0.0450
 3555TIP3   OH232079   3.689   4.378   1.667 -0.0941 -0.3138 -0.4791
 3555TIP3    H132080   3.614   4.365   1.724 -0.0485  2.0449  0.1603
 3555TIP3    H232081   3.765   4.373   1.726 -0.1068  3.2649 -0.0828
 3556TIP3   OH232082   1.085   0.807   5.045  0.0287 -0.4624  0.1720
 3556TIP3    H132083   1.166   0.781   5.001 -0.0081  1.0727 -0.8246
 3556TIP3    H232084   1.109   0.812   5.138  1.1797  0.3916 -0.1611
 3557TIP3   OH232085   1.933   1.956  13.020  0.8904  0.2012 -0.1835
 3557TIP3    H132086   1.934   2.049  12.995  0.0752  0.6259  1.2842
 3557TIP3    H232087   2.024   1.937  13.043  1.3429  0.2209 -1.9601
 3558TIP3   OH232088   0.924   6.484   4.107  0.2336 -0.2197  0.2439
 3558TIP3    H132089   0.872   6.499   4.186  1.0754  0.3259  0.7079
 3558TIP3    H232090   0.913   6.564   4.056 -0.7278 -0.7803 -0.4418
 3559TIP3   OH232091   5.273   0.530   6.727  0.2576 -0.3691 -0.1654
 3559TIP3    H132092   5.216   0.499   6.797 -1.3259  2.7280  0.0010
 3559TIP3    H232093   5.248   0.478   6.651 -2.2742  0.3543  0.1132
 3560TIP3   OH232094   1.799   5.737  13.579 -0.6346 -0.4341 -0.3116
 3560TIP3    H132095   1.842   5.784  13.651 -1.3049 -0.3016  0.0064
 3560TIP3    H232096   1.849   5.655  13.571  0.5645  0.3318 -0.8921
 3561TIP3   OH232097   5.844   6.409   4.062 -0.2606 -0.5388  0.2910
 3561TIP3    H132098   5.908   6.410   4.133  1.3567 -2.3913 -1.1125
 3561TIP3    H232099   5.884   6.460   3.992 -0.2572 -1.8156 -0.6435
 3562TIP3   OH232100   2.401   5.127   1.105 -0.1027 -0.2823 -0.2641
 3562TIP3    H132101   2.454   5.062   1.151  0.0972 -0.5303 -0.8267
 3562TIP3    H232102   2.428   5.211   1.141 -0.6139 -0.5346  0.7203
 3563TIP3   OH232103   0.075   4.753  12.230  0.0443 -0.0590  0.1723
 3563TIP3    H132104   0.167   4.728  12.218  0.1776  1.2709 -1.8823
 3563TIP3    H232105   0.026   4.675  12.205  0.6098 -0.9824  1.8691
 3564TIP3   OH232106   3.303   4.465   2.529  0.0898 -0.2028  0.3385
 3564TIP3    H132107   3.353   4.523   2.471 -0.0365 -0.1747  0.2557
 3564TIP3    H232108   3.223   4.446   2.479 -0.7157  1.0434  1.1332
 3565TIP3   OH232109   4.061   0.592  12.182 -0.5811 -0.4070  0.0476
 3565TIP3    H132110   4.134   0.540  12.214  1.0163  1.6057 -0.2848
 3565TIP3    H232111   4.078   0.603  12.089 -0.6527  1.0899  0.1987
 3566TIP3   OH232112   1.238   1.070  16.148 -0.3420 -0.3775  0.1245
 3566TIP3    H132113   1.167   1.133  16.140 -0.4683 -0.6022 -0.4816
 3566TIP3    H232114   1.250   1.060  16.243 -0.7195  0.1037  0.2244
 3567TIP3   OH232115   0.176   0.553  17.191  0.3365  0.1585 -0.0138
 3567TIP3    H132116   0.214   0.467  17.209 -0.8548 -0.5894 -0.9761
 3567TIP3    H232117   0.089   0.549  17.231  1.1273  1.7832  1.9971
 3568TIP3   OH232118   3.732   2.341  14.075 -0.8584  0.1190  0.1253
 3568TIP3    H132119   3.786   2.328  13.997 -1.2758  1.5201 -0.4223
 3568TIP3    H232120   3.762   2.275  14.137  1.4807  0.8806 -0.1685
 3569TIP3   OH232121   4.833   6.239   2.338  0.0995  0.2125  0.2217
 3569TIP3    H132122   4.776   6.164   2.323  1.3840 -0.8927  0.7158
 3569TIP3    H232123   4.810   6.271   2.425  0.4191 -0.4079  0.5360
 3570TIP3   OH232124   5.723   3.982   0.339  0.3083  0.6871  0.3263
 3570TIP3    H132125   5.695   3.940   0.258 -0.5765  3.3012 -0.7704
 3570TIP3    H232126   5.700   4.074   0.328  1.7608  1.4081  2.8489
 3571TIP3   OH232127   1.677   0.053   5.686 -0.5314  0.5068  0.1479
 3571TIP3    H132128   1.638   0.095   5.762 -0.4568  0.4857  0.1977
 3571TIP3    H232129   1.703  -0.033   5.717  2.7057  1.7364  1.0585
 3572TIP3   OH232130   0.960   2.522   0.469  0.4448  0.3990 -1.0153
 3572TIP3    H132131   0.952   2.615   0.447 -0.7069  0.9268  1.3926
 3572TIP3    H232132   1.046   2.496   0.435 -0.3988  1.5859 -4.1872
 3573TIP3   OH232133   2.764   5.989  15.114 -0.7469  0.4023 -0.0744
 3573TIP3    H132134   2.711   5.910  15.128  2.3135 -1.5182  1.4190
 3573TIP3    H232135   2.750   6.042  15.192  0.0696 -0.4732  0.6867
 3574TIP3   OH232136   3.637   1.244   2.379  0.1044 -0.3849 -0.4432
 3574TIP3    H132137   3.615   1.323   2.428  0.5627 -1.1299  0.9837
 3574TIP3    H232138   3.573   1.242   2.307 -0.3592  0.8955 -0.0755
 3575TIP3   OH232139   4.113   1.199  11.572 -0.3548 -0.7455 -0.5191
 3575TIP3    H132140   4.201   1.173  11.599 -0.3895  0.7758  1.1945
 3575TIP3    H232141   4.067   1.117  11.558  1.6302 -1.5816 -2.5240
 3576TIP3   OH232142   2.506   5.212   5.077 -0.2224 -0.2990  0.1372
 3576TIP3    H132143   2.573   5.214   5.008 -0.0751  1.6881  0.3065
 3576TIP3    H232144   2.424   5.229   5.032 -0.6687 -2.9426 -0.0990
 3577TIP3   OH232145   1.273   0.520   3.387  0.6696 -0.1586 -0.6571
 3577TIP3    H132146   1.217   0.592   3.359  1.1505  0.1588 -0.8218
 3577TIP3    H232147   1.239   0.443   3.342  0.8985  0.1918 -1.4382
 3578TIP3   OH232148   6.251   4.299   1.218  0.3197 -0.2967  0.0968
 3578TIP3    H132149   6.326   4.279   1.162 -0.4704 -3.0009 -0.0689
 3578TIP3    H232150   6.208   4.373   1.175  0.8681 -1.0394 -1.8008
 3579TIP3   OH232151   2.305   4.771  13.197  0.0089 -0.1188  0.2136
 3579TIP3    H132152   2.236   4.798  13.258 -0.9568 -1.9262 -0.0442
 3579TIP3    H232153   2.387   4.795  13.242 -0.7514  1.1849  0.9347
 3580TIP3   OH232154   3.381   6.490   6.456  0.7763  0.2289  0.0540
 3580TIP3    H132155   3.427   6.499   6.373  0.0866 -0.0687 -0.3602
 3580TIP3    H232156   3.410   6.566   6.508  0.6698  0.7914 -0.7051
 3581TIP3   OH232157   0.781   1.085  10.868 -0.7628 -0.4165  0.5402
 3581TIP3    H132158   0.801   0.992  10.858 -1.8337 -0.6661  0.6459
 3581TIP3    H232159   0.708   1.100  10.808 -2.0672 -0.1517  2.1796
 3582TIP3   OH232160   0.350   2.410   1.020  0.1697 -0.2403 -0.1199
 3582TIP3    H132161   0.330   2.378   0.932 -2.3720  1.1340 -0.0968
 3582TIP3    H232162   0.337   2.333   1.076 -0.0214 -0.6691 -0.7426
 3583TIP3   OH232163   0.069   0.146   2.739 -0.4756 -1.2979  0.3616
 3583TIP3    H132164   0.108   0.158   2.826  0.0901  1.7106 -0.2546
 3583TIP3    H232165   0.007   0.074   2.751  0.3193 -1.6212  3.0101
 3584TIP3   OH232166   5.222   1.353  15.205  0.5282  0.0074 -0.1754
 3584TIP3    H132167   5.276   1.407  15.147  1.5571 -0.6736  0.1379
 3584TIP3    H232168   5.265   1.359  15.291  0.1870 -0.6450  0.0463
 3585TIP3   OH232169   4.319   5.315   1.230 -0.2301  0.8860 -0.2212
 3585TIP3    H132170   4.338   5.296   1.138 -0.0889  0.8595 -0.1876
 3585TIP3    H232171   4.322   5.229   1.273 -1.1987  0.7860 -0.3499
 3586TIP3   OH232172   3.938   4.862  11.389 -0.1405 -0.7164 -0.8170
 3586TIP3    H132173   3.949   4.852  11.295 -0.4277 -0.8432 -0.8378
 3586TIP3    H232174   3.942   4.773  11.423  1.0433 -0.5817 -0.5874
 3587TIP3   OH232175   0.648   4.752   5.221  0.0003 -0.0630  0.2476
 3587TIP3    H132176   0.583   4.808   5.262  0.8949  1.6001 -0.5676
 3587TIP3    H232177   0.708   4.812   5.177  1.7667 -1.5800  0.5034
 3588TIP3   OH232178   3.120   0.308   0.401  0.5163  0.3695  0.2185
 3588TIP3    H132179   3.151   0.273   0.317 -0.2579  1.7755 -0.6893
 3588TIP3    H232180   3.027   0.324   0.387  0.4140  0.7605  1.3028
 3589TIP3   OH232181   1.561   0.642  10.329 -0.0211 -1.2268 -0.3178
 3589TIP3    H132182   1.493   0.595  10.279  0.2954 -0.2050 -1.7623
 3589TIP3    H232183   1.522   0.727  10.347 -0.1563 -1.6225  1.2793
 3590TIP3   OH232184   3.644   2.376   3.972 -0.0238  0.6270  0.1545
 3590TIP3    H132185   3.648   2.401   3.880 -0.7113 -0.7188 -0.2517
 3590TIP3    H232186   3.734   2.380   4.002  0.1929  1.1377 -0.5536
 3591TIP3   OH232187   1.267   5.867  13.917  0.0675 -0.4379  0.6110
 3591TIP3    H132188   1.237   5.952  13.884 -0.1161 -0.2301  1.3092
 3591TIP3    H232189   1.362   5.871  13.910  0.0066 -0.6132 -0.4264
 3592TIP3   OH232190   0.011   3.508  14.095 -0.1614  0.2217 -0.1788
 3592TIP3    H132191  -0.017   3.568  14.026 -1.1445  0.6246  0.5508
 3592TIP3    H232192  -0.065   3.503  14.154  0.9827  0.6193  1.3732
 3593TIP3   OH232193   0.818   1.322   1.902 -0.6831 -0.4536  0.0682
 3593TIP3    H132194   0.781   1.402   1.864  0.7120 -0.4260 -1.2549
 3593TIP3    H232195   0.785   1.252   1.846  0.2390 -0.5486 -0.3505
 3594TIP3   OH232196   0.628   2.608   3.780 -0.3777  0.0444 -0.4240
 3594TIP3    H132197   0.624   2.533   3.721 -0.2673 -0.8181  0.6369
 3594TIP3    H232198   0.720   2.634   3.780 -0.2162 -0.5219  0.0580
 3595TIP3   OH232199   1.823   6.255   6.921  0.3391  0.2222  0.0558
 3595TIP3    H132200   1.788   6.166   6.928  0.0285  0.2710 -0.7822
 3595TIP3    H232201   1.763   6.299   6.861  1.7383  0.3565 -1.2867
 3596TIP3   OH232202   0.687   0.351  15.010 -0.2339  0.4470  0.1510
 3596TIP3    H132203   0.689   0.443  14.984 -2.7722  0.8602  1.2187
 3596TIP3    H232204   0.597   0.323  14.991  0.0366 -1.3135  1.3735
 3597TIP3   OH232205   2.777   3.975   0.920 -0.0633 -0.4072 -0.1167
 3597TIP3    H132206   2.744   3.917   0.989  0.4520 -0.2418  0.2716
 3597TIP3    H232207   2.862   4.004   0.952 -0.6477  1.1740  0.0665
 3598TIP3   OH232208   5.992   3.994  12.706  0.3516 -0.1849 -0.0529
 3598TIP3    H132209   6.006   3.903  12.731  2.7631  0.8442  2.5708
 3598TIP3    H232210   5.899   4.010  12.724  0.3889 -1.5410  1.4897
 3599TIP3   OH232211   4.278   4.627   4.469  0.5959 -0.3018 -0.0455
 3599TIP3    H132212   4.219   4.681   4.416 -0.5640  0.0102  1.5015
 3599TIP3    H232213   4.364   4.668   4.459 -0.0900  1.3061  0.3688
 3600TIP3   OH232214   6.392   3.009  12.442 -0.2819  0.2082 -0.2433
 3600TIP3    H132215   6.328   2.945  12.473  1.2783 -1.7091 -0.8799
 3600TIP3    H232216   6.354   3.042  12.360 -1.3824  0.5826  0.4028
 3601TIP3   OH232217   3.971   2.109   1.344  0.3855  0.3617 -0.3489
 3601TIP3    H132218   3.893   2.153   1.377 -0.5524 -1.2529 -0.3344
 3601TIP3    H232219   4.043   2.170   1.361 -0.3906  0.5195  2.6993
 3602TIP3   OH232220   0.321   3.668  11.314 -0.3748  0.2139  0.1376
 3602TIP3    H132221   0.386   3.645  11.247  0.1875  1.3375  0.2838
 3602TIP3    H232222   0.242   3.621  11.288  0.2140 -0.3917 -0.5881
 3603TIP3   OH232223   5.948   3.293   1.378  0.1762  0.2256  0.3145
 3603TIP3    H132224   5.929   3.379   1.339  0.3482  0.5980  1.0404
 3603TIP3    H232225   5.951   3.310   1.472  0.9857 -0.4342  0.4132
 3604TIP3   OH232226   2.019   0.825   2.682 -0.3106  0.1756  0.5218
 3604TIP3    H132227   2.108   0.831   2.649 -0.5274 -0.0882 -0.1037
 3604TIP3    H232228   1.964   0.861   2.612 -0.6122  1.3109  1.3109
 3605TIP3   OH232229   6.621   1.454   0.319 -0.2992 -0.0975 -0.5327
 3605TIP3    H132230   6.653   1.451   0.409 -0.7161 -1.3567 -0.4023
 3605TIP3    H232231   6.526   1.459   0.328 -0.3461 -0.3062 -0.8915
 3606TIP3   OH232232   0.389   3.730  12.438 -0.3611 -0.5149  0.3982
 3606TIP3    H132233   0.473   3.737  12.483 -0.9645 -2.1908  1.8148
 3606TIP3    H232234   0.409   3.682  12.358  0.0885 -0.6350  0.5806
 3607TIP3   OH232235   6.236   6.056  12.380 -0.1020  0.5238  0.4859
 3607TIP3    H132236   6.292   6.132  12.363  0.7210  0.1026  1.3223
 3607TIP3    H232237   6.157   6.073  12.328  0.7048  1.2136 -0.5282
 3608TIP3   OH232238   5.046   0.279   4.090 -0.3382 -0.1720  0.7737
 3608TIP3    H132239   5.078   0.359   4.131 -2.2487  1.4109 -0.7478
 3608TIP3    H232240   5.101   0.269   4.012 -0.2822 -0.2047  0.8167
 3609TIP3   OH232241   3.634   3.934   0.512 -0.9127  0.2656  0.1811
 3609TIP3    H132242   3.668   3.848   0.486 -0.0417  0.4018  0.8463
 3609TIP3    H232243   3.568   3.955   0.445  0.3856  0.0436 -1.1944
 3610TIP3   OH232244   1.757   4.089  14.579 -0.2463 -0.3505  0.4427
 3610TIP3    H132245   1.722   4.103  14.667 -0.6154 -0.5379  0.3224
 3610TIP3    H232246   1.699   4.025  14.539 -0.8583  0.7327 -0.4209
 3611TIP3   OH232247   1.730   4.600   1.312 -0.3375  0.1342 -0.3643
 3611TIP3    H132248   1.708   4.555   1.230 -0.8074 -0.6333  0.1730
 3611TIP3    H232249   1.788   4.671   1.286 -1.6483  0.8035 -1.5444
 3612TIP3   OH232250   5.446   5.575   3.330  0.4492  0.2923 -0.7861
 3612TIP3    H132251   5.534   5.561   3.365  0.1823 -1.3177 -0.7479
 3612TIP3    H232252   5.388   5.552   3.402 -0.0235  1.3198 -0.8257
 3613TIP3   OH232253   4.815   0.732  13.299 -0.1333  0.4289  0.2836
 3613TIP3    H132254   4.746   0.770  13.354 -0.7647  1.1729 -0.9936
 3613TIP3    H232255   4.852   0.661  13.351 -1.0910  0.7756  1.4423
 3614TIP3   OH232256   6.739   3.225  16.173 -0.2444  0.4498 -0.0121
 3614TIP3    H132257   6.674   3.235  16.243 -0.4073  0.8038 -0.2082
 3614TIP3    H232258   6.725   3.301  16.117  1.6045  1.5558  0.9619
 3615TIP3   OH232259   0.035   2.854  11.881  0.0037  0.3203 -0.5703
 3615TIP3    H132260   0.084   2.934  11.900 -1.9308  1.2852  0.4247
 3615TIP3    H232261   0.076   2.820  11.801  1.3073  1.9093 -0.6025
 3616TIP3   OH232262   4.709   5.826   0.221 -0.3758 -0.3525 -0.1460
 3616TIP3    H132263   4.712   5.757   0.155 -0.0157 -0.0021 -0.4994
 3616TIP3    H232264   4.801   5.841   0.244 -0.3420  0.9950 -1.1069
 3617TIP3   OH232265   2.263   1.005   5.748  0.5767  0.2234  0.4787
 3617TIP3    H132266   2.256   0.945   5.674  1.9625  0.8389 -0.1738
 3617TIP3    H232267   2.336   0.973   5.800  2.0160  1.9312 -0.4490
 3618TIP3   OH232268   5.291   6.415  16.893 -0.0126  0.2150  0.5071
 3618TIP3    H132269   5.302   6.330  16.936  0.4286  0.6099  1.1898
 3618TIP3    H232270   5.303   6.397  16.800 -2.2738 -0.8921  0.3872
 3619TIP3   OH232271   3.907   0.013   0.753  0.2223 -0.1587 -0.0551
 3619TIP3    H132272   3.831   0.019   0.695  1.3529  1.8143 -1.3696
 3619TIP3    H232273   3.904  -0.077   0.786 -0.2059 -1.4967 -3.5067
 3620TIP3   OH232274   2.942   3.983   6.560 -0.1458 -0.3913 -0.3730
 3620TIP3    H132275   2.902   4.064   6.528 -0.2931 -1.0094 -1.7914
 3620TIP3    H232276   2.889   3.959   6.636 -1.0709  0.0226 -0.8725
 3621TIP3   OH232277   1.471   3.449  10.463  0.1131 -0.0897 -0.3647
 3621TIP3    H132278   1.485   3.406  10.379  1.4883  0.5309 -0.4754
 3621TIP3    H232279   1.546   3.422  10.517 -1.6167 -1.8335  1.2549
 3622TIP3   OH232280   2.681   3.776   6.539  0.1670 -0.3728  0.4243
 3622TIP3    H132281   2.617   3.708   6.518  0.6245 -0.9771  0.9842
 3622TIP3    H232282   2.670   3.841   6.469  0.9857 -1.8789 -1.1503
 3623TIP3   OH232283   5.930   0.082   0.071  0.1019  0.1090 -0.1424
 3623TIP3    H132284   5.880   0.030   0.008 -0.4811  1.7636 -1.0534
 3623TIP3    H232285   5.881   0.164   0.079  1.4657  0.8589  0.6608
 3624TIP3   OH232286   6.490   5.315  13.475  0.0768 -0.8166 -0.1335
 3624TIP3    H132287   6.440   5.249  13.426  0.8694 -2.6125  1.4513
 3624TIP3    H232288   6.463   5.303  13.566  1.9604 -0.4990  0.4766
 3625TIP3   OH232289   3.669   0.190  11.105 -0.9091 -0.0515 -0.1076
 3625TIP3    H132290   3.688   0.146  11.022 -0.1539 -1.7163  0.9033
 3625TIP3    H232291   3.740   0.163  11.163 -1.7081  0.6529  1.2338
 3626TIP3   OH232292   5.910   1.272   3.177 -0.5826 -0.6636  0.2730
 3626TIP3    H132293   5.951   1.186   3.175  0.7927 -0.0146 -0.4384
 3626TIP3    H232294   5.860   1.273   3.258 -0.0084 -1.8609  0.6529
 3627TIP3   OH232295   1.530   0.011  13.666 -0.5902 -0.2529 -0.5812
 3627TIP3    H132296   1.561   0.076  13.602 -1.5112 -0.4578 -1.2431
 3627TIP3    H232297   1.460   0.056  13.712 -1.6256 -0.9601 -1.4342
 3628TIP3   OH232298   4.802   1.913   3.923 -0.1528  0.4902  0.1588
 3628TIP3    H132299   4.764   1.830   3.952 -0.0422  0.5302  0.4227
 3628TIP3    H232300   4.778   1.975   3.991 -0.8560  0.8334 -0.4056
 3629TIP3   OH232301   2.924   0.118   6.554 -0.1360 -0.1540 -0.0139
 3629TIP3    H132302   2.897   0.062   6.481  1.5273 -0.2769 -0.5581
 3629TIP3    H232303   2.856   0.185   6.559 -1.8039 -1.8317  0.2161
 3630TIP3   OH232304   6.019   4.522  11.410 -0.2658  0.1207  0.7021
 3630TIP3    H132305   6.053   4.462  11.344  1.0537  1.3066  0.2948
 3630TIP3    H232306   5.952   4.572  11.365 -0.0278  0.2751  0.5181
 3631TIP3   OH232307   3.237   6.072  14.798 -0.5668 -0.0752 -0.1896
 3631TIP3    H132308   3.162   6.097  14.852  0.2437  0.7921  0.5471
 3631TIP3    H232309   3.236   6.134  14.725  1.0767  1.8138  1.3119
 3632TIP3   OH232310   1.125   3.791   3.996  0.4398 -0.4319 -0.3243
 3632TIP3    H132311   1.186   3.793   3.922  0.0191 -0.8735 -0.6912
 3632TIP3    H232312   1.055   3.851   3.972  1.0779  0.6013  0.4058
 3633TIP3   OH232313   4.298   3.947   1.018 -0.1605 -0.4794 -0.6881
 3633TIP3    H132314   4.212   3.907   1.027  0.2052 -0.9368  0.8230
 3633TIP3    H232315   4.352   3.904   1.084  0.9111  0.6702 -0.7937
 3634TIP3   OH232316   6.289   4.552  16.103 -0.4803  0.5372  0.1404
 3634TIP3    H132317   6.194   4.559  16.101 -0.3753  2.8485  1.2399
 3634TIP3    H232318   6.320   4.625  16.048  0.6647  0.0440  0.1114
 3635TIP3   OH232319   6.066   1.488  15.560  0.4034 -0.2342 -0.0626
 3635TIP3    H132320   6.107   1.567  15.595 -2.2052  1.2507 -0.2589
 3635TIP3    H232321   6.023   1.448  15.634 -2.6070  1.3311 -0.8657
 3636TIP3   OH232322   4.018   1.128  16.215 -0.0592  0.3474 -0.1136
 3636TIP3    H132323   3.987   1.108  16.303  2.5212  2.4675  1.3567
 3636TIP3    H232324   3.986   1.056  16.161 -1.8962 -0.8607  2.5040
 3637TIP3   OH232325   0.898   5.879  16.023  0.5626  0.1154 -0.2564
 3637TIP3    H132326   0.934   5.958  16.063 -0.9701 -0.5876  2.6093
 3637TIP3    H232327   0.970   5.816  16.025  1.2429  0.8666 -0.9083
 3638TIP3   OH232328   2.969   4.141   1.844  0.1819 -0.2183 -0.2593
 3638TIP3    H132329   2.887   4.183   1.820  0.8291  0.7453 -0.8380
 3638TIP3    H232330   2.956   4.113   1.935 -0.0935  1.7204  0.3291
 3639TIP3   OH232331   2.838   6.634   3.188 -0.4279 -0.7097  0.0895
 3639TIP3    H132332   2.933   6.623   3.202  0.4168  2.6921 -2.3916
 3639TIP3    H232333   2.828   6.637   3.093 -2.4637  2.7376  0.3339
 3640TIP3   OH232334   2.734   2.081   4.071 -0.3383 -0.2959  0.0919
 3640TIP3    H132335   2.732   1.991   4.036 -0.5579 -0.5105  0.6529
 3640TIP3    H232336   2.790   2.129   4.010  0.0251 -0.8857 -0.0420
 3641TIP3   OH232337   0.704   4.331   3.275 -0.1237 -0.7867 -0.2653
 3641TIP3    H132338   0.641   4.297   3.338  0.9109 -2.9966 -0.3846
 3641TIP3    H232339   0.782   4.351   3.327  0.8218 -2.8556 -0.8395
 3642TIP3   OH232340   5.711   1.072   5.048  1.0634  0.0033  0.7320
 3642TIP3    H132341   5.729   1.015   4.974 -0.1198 -1.2282  1.3726
 3642TIP3    H232342   5.742   1.158   5.020  0.9221 -0.5139 -1.0678
 3643TIP3   OH232343   6.054   5.484  17.127 -0.3330  0.0504 -0.8330
 3643TIP3    H132344   6.045   5.479  17.032  1.1867 -0.7503 -0.9528
 3643TIP3    H232345   5.989   5.422  17.161 -1.5461  1.0410 -1.2936
 3644TIP3   OH232346   6.754   3.061   4.741  0.5365 -0.3829 -0.3635
 3644TIP3    H132347   6.793   3.057   4.828 -0.7994 -2.2427  0.1886
 3644TIP3    H232348   6.820   3.021   4.684  1.1033  0.1492 -0.0893
 3645TIP3   OH232349   6.514   0.621   4.001  0.0910 -0.3135 -0.0335
 3645TIP3    H132350   6.567   0.700   3.992  1.0672 -0.9590 -0.0513
 3645TIP3    H232351   6.529   0.592   4.091  0.3521 -0.9102 -0.2685
 3646TIP3   OH232352   5.797   5.757  16.268 -0.1664  0.8706 -0.2381
 3646TIP3    H132353   5.780   5.814  16.194 -0.8512 -0.2012 -0.9293
 3646TIP3    H232354   5.854   5.808  16.326  1.9017  1.0282 -2.3533
 3647TIP3   OH232355   5.981   3.595  13.337  0.1730  0.2012  0.0685
 3647TIP3    H132356   5.949   3.681  13.310  0.8244  1.3895  2.8260
 3647TIP3    H232357   6.046   3.615  13.405  2.1043 -2.3866 -0.9203
 3648TIP3   OH232358   5.583   2.535  15.239  0.6565  0.3856 -0.1239
 3648TIP3    H132359   5.575   2.529  15.334 -0.3914 -0.8441 -0.2837
 3648TIP3    H232360   5.676   2.552  15.224  0.6169  1.8933  1.1696
 3649TIP3   OH232361   5.113   6.159  16.849  0.5170  0.1875 -0.4164
 3649TIP3    H132362   5.082   6.228  16.791  2.6834  1.2326 -0.3731
 3649TIP3    H232363   5.194   6.129  16.809  0.1079 -1.6749  0.0919
 3650TIP3   OH232364   3.497   3.581   3.727  0.0041 -0.4713 -0.3111
 3650TIP3    H132365   3.588   3.599   3.702  0.5131 -2.3991  0.0847
 3650TIP3    H232366   3.446   3.618   3.655  1.2081 -1.0591 -1.5164
 3651TIP3   OH232367   3.849   6.487   3.074 -0.1276  0.0497  0.0395
 3651TIP3    H132368   3.883   6.401   3.048 -1.9731  0.2419 -3.3070
 3651TIP3    H232369   3.915   6.549   3.043 -0.8349  0.0745 -1.4665
 3652TIP3   OH232370   4.895   6.556   5.644 -0.0934  0.1821 -0.1188
 3652TIP3    H132371   4.893   6.638   5.694  0.8979  0.8487 -1.1622
 3652TIP3    H232372   4.822   6.564   5.582 -1.5831 -0.8184  1.4395
 3653TIP3   OH232373   1.534   3.640  16.645  0.4748 -0.4897 -0.6333
 3653TIP3    H132374   1.499   3.696  16.714  0.7331 -0.5220 -0.4747
 3653TIP3    H232375   1.601   3.587  16.689  1.0069 -0.1441 -1.0240
 3654TIP3   OH232376   4.549   3.429   4.904  0.2686  0.3725 -0.2888
 3654TIP3    H132377   4.456   3.454   4.907  1.2733  4.3003 -0.0344
 3654TIP3    H232378   4.556   3.358   4.968 -2.1505  1.6103  1.4392
 3655TIP3   OH232379   4.938   4.801   4.206  0.2174 -0.3849  0.2421
 3655TIP3    H132380   4.867   4.741   4.184 -0.0299 -0.4271  1.1242
 3655TIP3    H232381   4.993   4.751   4.267  1.1742 -0.4644 -0.6699
 3656TIP3   OH232382   5.320   6.021  12.575 -0.3510  0.0385  0.2720
 3656TIP3    H132383   5.294   6.083  12.643  0.4087  0.2409  0.3819
 3656TIP3    H232384   5.384   5.964  12.617 -0.5570 -0.4053 -0.0128
 3657TIP3   OH232385   4.391   6.742  13.166 -0.3386  0.0409 -1.0993
 3657TIP3    H132386   4.371   6.820  13.218 -0.2113  0.9328 -2.3612
 3657TIP3    H232387   4.433   6.776  13.087 -2.4250 -1.1007 -2.7764
 3658TIP3   OH232388   2.217   4.523  14.591 -0.1058  0.1352  0.0295
 3658TIP3    H132389   2.190   4.603  14.545 -0.3397 -0.2085 -0.4386
 3658TIP3    H232390   2.304   4.543  14.625  1.8751 -0.9651 -4.0781
 3659TIP3   OH232391   3.578   3.042  15.744 -0.0620  0.7096 -0.0394
 3659TIP3    H132392   3.591   2.960  15.697  0.0728  0.9729 -0.4637
 3659TIP3    H232393   3.546   3.102  15.677 -1.9835  0.4896  0.6458
 3660TIP3   OH232394   3.652   3.063  14.488  0.4220 -1.1704 -0.3675
 3660TIP3    H132395   3.685   3.007  14.418  1.9767 -0.3677 -0.3164
 3660TIP3    H232396   3.709   3.140  14.485 -1.9730  0.6467 -0.7696
 3661TIP3   OH232397   1.996   5.448  12.471  0.4225 -0.1645 -0.0412
 3661TIP3    H132398   2.052   5.467  12.396 -1.2685 -0.1609 -1.3381
 3661TIP3    H232399   1.916   5.498  12.454 -1.3957 -2.9994 -0.0195
 3662TIP3   OH232400   1.161   6.706   4.043 -0.0846 -0.2330  0.0407
 3662TIP3    H132401   1.166   6.624   4.092  0.0212 -0.7998 -0.9262
 3662TIP3    H232402   1.226   6.698   3.974 -2.0813 -0.5272 -1.8407
 3663TIP3   OH232403   6.727   1.118   5.519 -0.2043 -0.0422  0.0883
 3663TIP3    H132404   6.819   1.112   5.543 -0.1139 -0.1891 -0.2964
 3663TIP3    H232405   6.724   1.186   5.451 -0.3608 -0.1239  0.0122
 3664TIP3   OH232406   3.356   1.023   0.603 -0.2767  0.1333 -0.1889
 3664TIP3    H132407   3.432   1.061   0.560  0.7047 -1.0526  0.4554
 3664TIP3    H232408   3.340   1.080   0.678  0.0074  0.3611 -0.3003
 3665TIP3   OH232409   0.793   6.153  11.460  0.0654 -0.5265 -0.2180
 3665TIP3    H132410   0.792   6.101  11.540  0.4369  0.0031  0.1330
 3665TIP3    H232411   0.871   6.208  11.467  0.0271 -0.3779 -0.8784
 3666TIP3   OH232412   5.717   5.467  16.753 -0.5992 -0.5770 -0.0118
 3666TIP3    H132413   5.664   5.423  16.819  1.6445  0.0953  2.2731
 3666TIP3    H232414   5.720   5.558  16.780  0.3121 -0.2728 -1.0766
 3667TIP3   OH232415   1.520   6.401  14.762  0.3645 -0.3677  0.4480
 3667TIP3    H132416   1.502   6.307  14.755 -1.8823  0.1132 -0.7742
 3667TIP3    H232417   1.601   6.406  14.812  0.1789 -2.9407  1.0923
 3668TIP3   OH232418   1.561   0.255   4.787 -0.2785  0.1613  0.6364
 3668TIP3    H132419   1.513   0.314   4.844 -0.7360  1.1441 -0.7439
 3668TIP3    H232420   1.609   0.312   4.727 -1.4005 -0.8292 -1.2906
 3669TIP3   OH232421   3.387   1.380   3.709 -0.1594  0.2707 -0.3974
 3669TIP3    H132422   3.468   1.329   3.712  0.6239  1.4320 -1.4282
 3669TIP3    H232423   3.330   1.330   3.649 -0.3621 -0.7545  0.6445
 3670TIP3   OH232424   4.278   0.525  11.191 -0.3329 -0.1339  0.4015
 3670TIP3    H132425   4.355   0.532  11.247 -0.8056 -1.1759  1.1966
 3670TIP3    H232426   4.256   0.432  11.192 -1.8139  0.2056  0.4700
 3671TIP3   OH232427   6.174   2.005  14.073  0.4321 -0.6423  0.0254
 3671TIP3    H132428   6.093   2.052  14.092  0.4261  0.5556 -2.7043
 3671TIP3    H232429   6.147   1.913  14.067 -0.5462 -0.3762  0.1579
 3672TIP3   OH232430   5.176   4.327  16.904 -0.1930 -0.0291  0.3239
 3672TIP3    H132431   5.247   4.386  16.883  0.9406 -0.7991  1.8198
 3672TIP3    H232432   5.139   4.361  16.986  0.1556 -1.0844  0.9400
 3673TIP3   OH232433   6.201   6.161  16.844 -0.4255 -0.0870  0.1530
 3673TIP3    H132434   6.212   6.162  16.749 -0.0602 -0.6457  0.1865
 3673TIP3    H232435   6.175   6.071  16.864  0.9151 -0.3726  0.7303
 3674TIP3   OH232436   0.630   2.855  15.771 -0.2284  0.1036 -0.2937
 3674TIP3    H132437   0.689   2.785  15.798  2.2002  1.7093 -1.2758
 3674TIP3    H232438   0.600   2.895  15.853 -1.4357 -1.8853  0.2640
 3675TIP3   OH232439   6.450   5.698  14.984 -0.2858  0.3888 -0.0838
 3675TIP3    H132440   6.411   5.618  15.019 -1.1352  1.7544  2.2123
 3675TIP3    H232441   6.407   5.710  14.899 -1.6383 -0.5200  0.4468
 3676TIP3   OH232442   4.309   4.848   1.577 -0.2017  0.4417 -0.1489
 3676TIP3    H132443   4.297   4.762   1.537 -1.5455 -0.1091  1.4109
 3676TIP3    H232444   4.222   4.888   1.576 -0.1262  0.6701  1.6308
 3677TIP3   OH232445   4.453   2.337   1.157 -0.3270  0.1411 -0.5148
 3677TIP3    H132446   4.548   2.335   1.168 -0.4306 -1.3424  0.2270
 3677TIP3    H232447   4.420   2.364   1.244 -0.6426 -0.5652 -0.4165
 3678TIP3   OH232448   5.159   3.567   6.363 -0.5205  0.4400  0.5419
 3678TIP3    H132449   5.081   3.575   6.307 -0.6402  0.7488  0.7501
 3678TIP3    H232450   5.133   3.505   6.431  0.4428 -1.8782 -1.1301
 3679TIP3   OH232451   6.248   2.125   3.449 -0.0962 -0.4423 -0.0430
 3679TIP3    H132452   6.250   2.215   3.416 -0.1359 -0.4375 -0.0316
 3679TIP3    H232453   6.227   2.072   3.372  0.2321 -0.4717 -0.1120
 3680TIP3   OH232454   2.521   3.339  12.297 -0.1116 -0.2121  0.0648
 3680TIP3    H132455   2.599   3.285  12.310  0.8026  1.6663  2.6602
 3680TIP3    H232456   2.496   3.367  12.386 -0.5543  3.6207 -1.1853
 3681TIP3   OH232457   3.441   3.929  12.035 -0.1948  0.1865 -0.0899
 3681TIP3    H132458   3.423   3.835  12.041 -2.1065  0.4990 -0.5742
 3681TIP3    H232459   3.511   3.944  12.099  0.0835 -1.5431  0.0467
 3682TIP3   OH232460   5.469   3.296  16.747  0.5766  0.2100 -0.6771
 3682TIP3    H132461   5.486   3.330  16.659 -1.5682  0.0027 -1.2000
 3682TIP3    H232462   5.531   3.223  16.757  0.0479 -0.4979 -2.4656
 3683TIP3   OH232463   3.764   4.254   5.512 -0.5488  0.4995  0.1382
 3683TIP3    H132464   3.710   4.176   5.503 -1.7720  1.2170  1.0758
 3683TIP3    H232465   3.851   4.227   5.483 -0.7983 -1.4047  1.0804
 3684TIP3   OH232466   0.917   3.267   6.776 -0.5623  0.2836 -0.2475
 3684TIP3    H132467   0.993   3.212   6.793 -0.0329  0.6235 -1.4274
 3684TIP3    H232468   0.924   3.290   6.683 -1.8086  0.7681 -0.2375
 3685TIP3   OH232469   0.619   2.681   2.944  0.9288 -0.4076  0.0914
 3685TIP3    H132470   0.535   2.708   2.908  0.9137 -1.0620 -0.3828
 3685TIP3    H232471   0.635   2.595   2.904  1.8049 -0.2987  0.2052
 3686TIP3   OH232472   2.104   2.219   3.105  0.0744 -0.2073 -0.9268
 3686TIP3    H132473   2.132   2.286   3.168 -1.0982  1.4778 -2.1689
 3686TIP3    H232474   2.163   2.229   3.031  0.4449 -1.1440 -0.7682
 3687TIP3   OH232475   4.479   1.127   4.684  0.0091 -0.3887 -0.0446
 3687TIP3    H132476   4.414   1.119   4.614 -2.2951 -1.4547  2.1571
 3687TIP3    H232477   4.432   1.170   4.756  1.8103 -0.9155  1.4747
 3688TIP3   OH232478   0.568   5.756  15.006  0.1882 -0.3438  0.2025
 3688TIP3    H132479   0.530   5.668  15.007 -0.5714 -0.0857 -2.6438
 3688TIP3    H232480   0.646   5.748  14.951 -0.4816  0.9845 -0.9711
 3689TIP3   OH232481   4.596   0.485   0.193  0.1515  0.7081 -0.3774
 3689TIP3    H132482   4.649   0.470   0.271  0.7959  0.3923 -0.8679
 3689TIP3    H232483   4.538   0.557   0.217  0.6835  0.9429  0.2264
 3690TIP3   OH232484   1.553   2.351  10.853 -0.4910 -0.0200  0.4963
 3690TIP3    H132485   1.592   2.363  10.940  1.8420  1.9012 -0.7636
 3690TIP3    H232486   1.461   2.378  10.865 -0.3404 -0.2935  2.4741
 3691TIP3   OH232487   1.833   1.513  13.894 -0.5558  0.1464  0.0027
 3691TIP3    H132488   1.818   1.469  13.978 -0.0609  1.6317  0.9055
 3691TIP3    H232489   1.916   1.477  13.863 -1.7729 -1.9460 -0.9002
 3692TIP3   OH232490   5.816   5.008   2.374 -0.0113 -0.5349 -0.4775
 3692TIP3    H132491   5.859   5.057   2.445 -1.3044  0.2373 -0.1989
 3692TIP3    H232492   5.886   4.989   2.312  0.7183  0.8044 -0.1028
 3693TIP3   OH232493   1.928   1.657  17.147  0.5035  0.2833 -0.3493
 3693TIP3    H132494   1.924   1.619  17.059 -1.0387  0.8775 -0.5532
 3693TIP3    H232495   1.836   1.671  17.171  0.9424  0.8334  1.0510
 3694TIP3   OH232496   3.555   4.812   4.226 -0.1935  0.6936 -0.1785
 3694TIP3    H132497   3.545   4.718   4.241 -1.6386  0.9143  0.3059
 3694TIP3    H232498   3.622   4.819   4.158  1.1739 -0.6215  1.0182
 3695TIP3   OH232499   1.226   3.022  10.855 -0.6968 -0.6817 -0.1505
 3695TIP3    H132500   1.177   2.969  10.793 -0.3908  0.9656 -1.8384
 3695TIP3    H232501   1.316   3.020  10.824 -0.7117  0.9475 -0.3478
 3696TIP3   OH232502   1.504   6.029  13.497  0.2234  1.1313  0.0733
 3696TIP3    H132503   1.586   6.079  13.496 -0.6454  2.5893 -1.3893
 3696TIP3    H232504   1.480   6.021  13.404 -0.8887  0.0403  0.4435
 3697TIP3   OH232505   0.831   5.926   3.962 -0.0042  0.2441 -0.5483
 3697TIP3    H132506   0.767   5.893   3.899  0.1324 -0.1203 -0.4940
 3697TIP3    H232507   0.872   6.000   3.917 -2.5025  2.3486  0.4996
 3698TIP3   OH232508   0.398   0.632  15.018  0.4616 -0.3317 -0.9033
 3698TIP3    H132509   0.319   0.651  15.068  1.1748 -1.7311  0.8007
 3698TIP3    H232510   0.369   0.567  14.953  0.7803 -3.0616  1.5895
 3699TIP3   OH232511   0.561   4.652  11.269  0.3877 -0.1980 -0.5387
 3699TIP3    H132512   0.586   4.613  11.185  1.8016 -0.3537 -0.0686
 3699TIP3    H232513   0.516   4.581  11.315 -0.0816 -0.2195 -1.0242
 3700TIP3   OH232514   3.923   6.096   0.918 -0.3368 -0.4432  0.0649
 3700TIP3    H132515   3.949   6.016   0.872  0.0491 -0.2052 -0.1285
 3700TIP3    H232516   3.985   6.103   0.991 -0.0156 -0.0109 -0.2513
 3701TIP3   OH232517   6.063   4.226  13.837  0.1406 -0.3318 -0.3475
 3701TIP3    H132518   6.127   4.165  13.876 -2.2736 -2.3536  0.5569
 3701TIP3    H232519   6.060   4.299  13.898  0.0397 -1.2124  0.7209
 3702TIP3   OH232520   1.018   3.421   5.420  0.1657  0.3928  0.2758
 3702TIP3    H132521   0.958   3.347   5.414  0.5037  0.3395 -3.9504
 3702TIP3    H232522   1.100   3.384   5.451 -0.2862 -0.6131  0.2771
 3703TIP3   OH232523   3.007   0.471   1.919  0.6032  0.5642  0.4171
 3703TIP3    H132524   2.935   0.433   1.970 -1.3394  0.5944 -2.1885
 3703TIP3    H232525   3.000   0.565   1.933  0.0233  0.5763  0.0624
 3704TIP3   OH232526   5.154   3.749   4.295 -0.1711  0.4104  0.4150
 3704TIP3    H132527   5.071   3.705   4.313 -0.9089  1.5196 -0.1860
 3704TIP3    H232528   5.210   3.681   4.259 -0.9723 -0.2456  0.3910
 3705TIP3   OH232529   3.316   5.837  10.555  0.0187  0.4925 -0.4007
 3705TIP3    H132530   3.246   5.831  10.490  0.5978  0.0184 -0.9780
 3705TIP3    H232531   3.274   5.811  10.637 -0.5579  0.5035 -0.6913
 3706TIP3   OH232532   2.037   0.080  12.228 -0.1046 -0.3497 -0.0083
 3706TIP3    H132533   1.994   0.069  12.143  0.3216  0.3515 -0.3272
 3706TIP3    H232534   2.114   0.023  12.223  0.0172 -0.1737 -0.1647
 3707TIP3   OH232535   0.708   0.047  11.598  0.0208  0.5462  0.0894
 3707TIP3    H132536   0.665   0.063  11.681  1.2661 -1.2417  1.1326
 3707TIP3    H232537   0.722  -0.048  11.596  3.5040  0.9885 -0.3460
 3708TIP3   OH232538   2.433   2.564   0.257 -0.4190 -0.3599  0.6769
 3708TIP3    H132539   2.496   2.595   0.192 -0.4176 -0.8466  0.4395
 3708TIP3    H232540   2.474   2.584   0.341  0.5402 -1.6066  0.5318
 3709TIP3   OH232541   3.365   6.658  16.064 -0.1885 -0.4505  0.2256
 3709TIP3    H132542   3.281   6.654  16.110  0.0049  1.1760  0.7477
 3709TIP3    H232543   3.389   6.567  16.049 -1.6915 -0.9372  0.7332
 3710TIP3   OH232544   4.130   6.500  11.309 -0.1798 -0.0772  0.2728
 3710TIP3    H132545   4.099   6.569  11.368 -1.2973 -1.2884  1.1432
 3710TIP3    H232546   4.202   6.458  11.357 -1.3315 -1.3044  0.9863
 3711TIP3   OH232547   1.200   1.629   4.944 -0.0451  0.4312  0.3988
 3711TIP3    H132548   1.274   1.571   4.960  0.2891  1.0030  0.9331
 3711TIP3    H232549   1.228   1.683   4.870 -1.2872 -1.6850 -1.7207
 3712TIP3   OH232550   3.766   6.039  10.706 -0.6805  0.1175 -0.4301
 3712TIP3    H132551   3.756   6.127  10.671  0.3474  1.2619  1.9861
 3712TIP3    H232552   3.854   6.012  10.680 -0.5289  0.3202 -0.1373
 3713TIP3   OH232553   4.249   1.946  16.666  0.2983 -0.1587 -0.2143
 3713TIP3    H132554   4.169   1.906  16.633  1.4786 -1.5732 -1.4037
 3713TIP3    H232555   4.288   1.880  16.723  0.8529  0.3598  0.0179
 3714TIP3   OH232556   4.082   0.305  15.333 -0.2873 -0.3306  0.4297
 3714TIP3    H132557   4.026   0.240  15.374 -1.4073  0.2823 -0.1087
 3714TIP3    H232558   4.132   0.343  15.406 -0.5389 -0.9142  0.9046
 3715TIP3   OH232559   6.579   6.239   2.341  0.5802  0.0040 -0.2542
 3715TIP3    H132560   6.579   6.308   2.408  0.4085  0.1272 -0.3820
 3715TIP3    H232561   6.657   6.187   2.361  0.4771 -0.0167  0.1028
 3716TIP3   OH232562   6.157   6.512  12.211  0.1196 -0.2089 -0.8505
 3716TIP3    H132563   6.095   6.470  12.151  0.1004 -1.8896  0.2985
 3716TIP3    H232564   6.233   6.533  12.156 -0.1801 -1.0596 -1.6093
 3717TIP3   OH232565   5.282   4.267  16.442  0.2983  0.6922 -0.1185
 3717TIP3    H132566   5.189   4.278  16.423  0.5950 -0.3601 -2.2847
 3717TIP3    H232567   5.293   4.173  16.457  1.4134  0.4250 -2.3581
 3718TIP3   OH232568   5.831   5.873   2.570  0.1093  0.5360 -0.2619
 3718TIP3    H132569   5.772   5.948   2.570 -1.1983 -0.4607  0.2502
 3718TIP3    H232570   5.803   5.820   2.496 -0.5269 -0.6040  0.7751
 3719TIP3   OH232571   4.272   2.280   2.303  0.2477 -0.0652 -0.3198
 3719TIP3    H132572   4.326   2.208   2.272  0.2451 -0.7117  1.1510
 3719TIP3    H232573   4.334   2.344   2.338  0.2130  0.4050 -1.0925
 3720TIP3   OH232574   3.105   4.960  14.083 -0.0577  0.8347 -0.0267
 3720TIP3    H132575   3.181   4.958  14.141  1.9552  1.1503 -2.5640
 3720TIP3    H232576   3.078   4.868  14.077  1.7452  0.3446 -1.1166
 3721TIP3   OH232577   0.418   2.617  14.429  0.0002 -0.0876  0.2847
 3721TIP3    H132578   0.452   2.682  14.367  0.4336 -2.2133 -1.7861
 3721TIP3    H232579   0.484   2.613  14.498  1.0707  0.1291 -0.6978
 3722TIP3   OH232580   4.985   1.536  14.146  0.2821 -0.0086 -0.5602
 3722TIP3    H132581   4.911   1.588  14.115  0.3413  0.4075 -0.0288
 3722TIP3    H232582   5.032   1.595  14.206 -1.0505 -1.4776  2.0127
 3723TIP3   OH232583   5.537   4.962   2.854 -0.1513  0.4354  0.1673
 3723TIP3    H132584   5.589   4.903   2.908  1.0623  2.2636  1.0423
 3723TIP3    H232585   5.449   4.923   2.854  0.3772 -0.8033  1.5803
 3724TIP3   OH232586   0.663   3.547  12.011 -0.0851  0.1037  0.3649
 3724TIP3    H132587   0.727   3.589  11.952  1.3960 -1.9334  0.4703
 3724TIP3    H232588   0.692   3.456  12.017 -3.2859 -0.9961  0.0663
 3725TIP3   OH232589   1.607   5.616  10.609 -0.8469 -0.5110 -0.0916
 3725TIP3    H132590   1.612   5.555  10.535 -1.3084 -0.7513  0.0763
 3725TIP3    H232591   1.518   5.606  10.643 -0.6264 -0.4230  0.5171
 3726TIP3   OH232592   4.282   4.116  13.961  0.0204 -0.3132 -0.0895
 3726TIP3    H132593   4.287   4.115  13.865  0.4825 -1.2920 -0.0632
 3726TIP3    H232594   4.356   4.172  13.987 -0.5478  0.5550 -0.3239
 3727TIP3   OH232595   1.018   5.220   0.417  0.0675  0.3744 -0.1340
 3727TIP3    H132596   1.057   5.245   0.334  1.6254 -0.9969  0.1558
 3727TIP3    H232597   0.961   5.146   0.396 -0.8063  1.0751 -0.2367
 3728TIP3   OH232598   1.916   0.135   5.991  0.5847 -0.1197  0.2375
 3728TIP3    H132599   1.886   0.157   6.079  0.6750  0.4686  0.1257
 3728TIP3    H232600   2.007   0.109   6.003  0.6823  0.2386  0.2798
 3729TIP3   OH232601   2.277   1.797  12.052 -0.5239  0.0237 -0.2956
 3729TIP3    H132602   2.209   1.735  12.028 -0.3045  0.4066 -1.9645
 3729TIP3    H232603   2.264   1.872  11.993  1.4167  0.0252 -0.7598
 3730TIP3   OH232604   3.268   0.565   6.382  0.2030  0.8415  0.5605
 3730TIP3    H132605   3.187   0.614   6.395 -0.1074  0.2387  0.8835
 3730TIP3    H232606   3.314   0.572   6.466 -0.2310 -0.1374  0.8871
 3731TIP3   OH232607   1.751   5.900   5.077 -0.2474  0.1092  0.1658
 3731TIP3    H132608   1.768   5.838   5.007 -1.8027  0.0211 -0.1531
 3731TIP3    H232609   1.700   5.851   5.141 -2.8912  1.4584 -0.8340
 3732TIP3   OH232610   3.027   1.190  14.746  0.0824 -0.3386  0.1529
 3732TIP3    H132611   3.015   1.132  14.671 -2.2037  0.2037  0.0760
 3732TIP3    H232612   3.121   1.188  14.763  0.6396 -0.5081 -2.6996
 3733TIP3   OH232613   1.280   4.366   0.601  0.3534  0.2096  0.2603
 3733TIP3    H132614   1.223   4.301   0.641 -0.1544 -0.7110 -1.8885
 3733TIP3    H232615   1.366   4.350   0.640 -0.5758  0.8239  2.6214
 3734TIP3   OH232616   4.989   2.451   6.168  0.4125  0.4446  0.8812
 3734TIP3    H132617   5.082   2.461   6.188  1.1567 -0.7816 -1.7365
 3734TIP3    H232618   4.959   2.383   6.228  1.5841 -0.2107  0.7507
 3735TIP3   OH232619   3.581   6.089   6.205 -0.0089  0.3819  0.3334
 3735TIP3    H132620   3.521   6.129   6.269  1.5552 -0.2223  2.2298
 3735TIP3    H232621   3.665   6.087   6.250  1.2858  0.5416 -2.0270
 3736TIP3   OH232622   4.847   1.916  14.320  0.7535  0.8490  0.2847
 3736TIP3    H132623   4.771   1.864  14.291  1.4690 -0.3867  0.5872
 3736TIP3    H232624   4.865   1.975  14.246 -1.1133  1.8678  0.6005
 3737TIP3   OH232625   5.193   3.280   2.071  0.1830 -0.3517 -0.2214
 3737TIP3    H132626   5.279   3.292   2.030 -1.1903  0.3443 -2.9959
 3737TIP3    H232627   5.194   3.190   2.103  1.7919 -0.4756 -0.5728
 3738TIP3   OH232628   1.021   1.310   4.189  0.2312  0.1910  0.2164
 3738TIP3    H132629   1.039   1.248   4.118  1.5143  0.0601  0.6360
 3738TIP3    H232630   0.943   1.357   4.161 -0.1075 -0.8523 -0.6207
 3739TIP3   OH232631   5.709   5.862   3.344 -0.0874 -0.2495  0.3558
 3739TIP3    H132632   5.725   5.769   3.355  2.5571 -0.0610 -1.4463
 3739TIP3    H232633   5.740   5.902   3.426  0.7262 -0.7498  0.2958
 3740TIP3   OH232634   3.220   3.187   4.291 -0.4365  0.2117 -0.6811
 3740TIP3    H132635   3.208   3.264   4.347  0.4627  0.3941 -0.7334
 3740TIP3    H232636   3.294   3.209   4.236 -0.9349 -0.2216 -1.5297
 3741TIP3   OH232637   2.733   5.103   1.676  0.1545 -0.3959 -0.3746
 3741TIP3    H132638   2.828   5.098   1.671  0.1629  0.8148 -2.1591
 3741TIP3    H232639   2.715   5.181   1.727  0.1574  0.6326 -1.8984
 3742TIP3   OH232640   3.268   6.127  11.346  0.2144  0.0763  0.1605
 3742TIP3    H132641   3.204   6.057  11.362 -0.9016  0.7598 -1.1794
 3742TIP3    H232642   3.348   6.097  11.389 -0.6213 -1.4268  0.7032
 3743TIP3   OH232643   1.431   6.743  16.032  0.0819 -0.1586  0.8501
 3743TIP3    H132644   1.366   6.696  15.981 -0.0462  1.7796 -0.8227
 3743TIP3    H232645   1.514   6.701  16.009 -0.1974 -0.5318  0.5154
 3744TIP3   OH232646   5.961   5.491   5.999  0.3270  0.1695  0.4841
 3744TIP3    H132647   6.018   5.525   6.067  0.9396 -1.0536  0.6019
 3744TIP3    H232648   5.889   5.449   6.046  0.1838  0.2613  0.3518
 3745TIP3   OH232649   1.121   6.508   1.672 -0.7389  0.5749  0.7849
 3745TIP3    H132650   1.067   6.546   1.603 -1.9656 -0.6092  1.0601
 3745TIP3    H232651   1.084   6.542   1.754 -1.0998 -0.2478  0.9759
 3746TIP3   OH232652   2.260   3.471   1.773 -0.3293  0.5583 -0.0495
 3746TIP3    H132653   2.276   3.384   1.810  0.5774  0.9586  0.5090
 3746TIP3    H232654   2.168   3.469   1.745 -0.3132 -0.5711 -0.0210
 3747TIP3   OH232655   2.516   2.452  12.514 -0.2996 -0.1736 -0.1853
 3747TIP3    H132656   2.565   2.400  12.450 -1.0176 -0.0783 -0.8236
 3747TIP3    H232657   2.556   2.538  12.512 -0.2304 -0.2107 -0.4126
 3748TIP3   OH232658   0.131   1.601   0.130  0.3366 -0.2513 -0.2581
 3748TIP3    H132659   0.084   1.528   0.089  0.7988  0.1975 -1.6356
 3748TIP3    H232660   0.218   1.567   0.149  0.2602 -0.3309 -0.0505
 3749TIP3   OH232661   2.220   2.361  14.564  0.1324  0.1547  0.2143
 3749TIP3    H132662   2.252   2.347  14.653  0.9233 -1.7153 -0.3365
 3749TIP3    H232663   2.125   2.356  14.572  0.0949  2.1639  1.2825
 3750TIP3   OH232664   0.171   5.597  15.087  0.2377 -0.2497 -0.5295
 3750TIP3    H132665   0.231   5.672  15.087 -1.4288  1.1248  0.7606
 3750TIP3    H232666   0.103   5.621  15.150  0.2606 -3.3412  0.7692
 3751TIP3   OH232667   3.720   5.646   5.489 -0.4952  0.1562  0.3332
 3751TIP3    H132668   3.638   5.602   5.467 -0.1949 -0.2329 -0.0251
 3751TIP3    H232669   3.696   5.738   5.501 -0.7784  0.2855 -1.0862
 3752TIP3   OH232670   4.519   5.806  17.205  0.6087  0.0772  0.4505
 3752TIP3    H132671   4.461   5.745  17.251  0.9356 -0.2485  0.4311
 3752TIP3    H232672   4.554   5.755  17.132  0.3527  0.4935  0.0347
 3753TIP3   OH232673   6.496   2.586  13.894  0.2078 -0.3127  0.3810
 3753TIP3    H132674   6.480   2.574  13.800  1.2744 -0.5604  0.2282
 3753TIP3    H232675   6.480   2.679  13.909 -0.1442 -0.3079 -0.0176
 3754TIP3   OH232676   4.233   6.224  11.188  0.6087 -0.1758 -0.2890
 3754TIP3    H132677   4.261   6.169  11.114  2.7147 -1.4843  1.4235
 3754TIP3    H232678   4.262   6.312  11.165  0.6404 -0.4381 -1.3021
 3755TIP3   OH232679   5.763   5.037  14.257  0.4060 -0.4425 -0.3307
 3755TIP3    H132680   5.772   4.958  14.311 -0.4935 -0.1530  0.2493
 3755TIP3    H232681   5.823   5.100  14.297  2.2456 -1.2779 -1.6744
 3756TIP3   OH232682   3.229   3.476   4.896 -0.0693  0.3005 -0.8167
 3756TIP3    H132683   3.213   3.471   4.802  1.0805  0.0665 -1.0028
 3756TIP3    H232684   3.322   3.458   4.906 -0.7500 -2.8106  0.6213
 3757TIP3   OH232685   4.488   3.909   5.874 -0.1513  0.0879 -0.4103
 3757TIP3    H132686   4.536   3.830   5.899 -1.6432 -0.6818  0.1265
 3757TIP3    H232687   4.472   3.954   5.957  0.1314  0.6202 -0.6457
 3758TIP3   OH232688   2.427   5.669   0.683 -0.2878 -0.4710  0.1981
 3758TIP3    H132689   2.371   5.613   0.629 -0.0691  1.2537 -1.8855
 3758TIP3    H232690   2.494   5.701   0.623  1.8667 -1.0218  2.2358
 3759TIP3   OH232691   6.064   4.167  14.658 -0.4234 -0.3441 -0.3930
 3759TIP3    H132692   5.977   4.177  14.695 -0.1851  0.6399 -0.0573
 3759TIP3    H232693   6.115   4.124  14.727 -0.1516  0.8778  0.1945
 3760TIP3   OH232694   3.646   3.469  14.140  0.3655 -0.0742  0.2742
 3760TIP3    H132695   3.642   3.547  14.196  0.1416 -0.3950  0.7109
 3760TIP3    H232696   3.555   3.445  14.125  0.4403 -0.7154  0.8024
 3761TIP3   OH232697   6.712   6.489   1.855  0.0071  0.0244 -0.4315
 3761TIP3    H132698   6.706   6.395   1.835 -1.2207  0.0050 -0.0035
 3761TIP3    H232699   6.801   6.501   1.886  0.0448 -1.0849 -0.0834
 3762TIP3   OH232700   3.335   6.550  10.869  0.0236 -0.4119 -0.0719
 3762TIP3    H132701   3.266   6.493  10.902  0.6422  0.1316  2.2920
 3762TIP3    H232702   3.308   6.573  10.781 -2.2469 -1.0983  0.4175
 3763TIP3   OH232703   0.742   2.950   2.382  0.3352  0.0276  0.0829
 3763TIP3    H132704   0.808   3.015   2.404  0.0950 -0.6482  3.1146
 3763TIP3    H232705   0.790   2.868   2.375  0.3130  0.1328 -1.4136
 3764TIP3   OH232706   4.611   0.538   0.583  0.5368 -0.1571 -0.0133
 3764TIP3    H132707   4.579   0.581   0.663 -1.9893  1.4977 -1.8294
 3764TIP3    H232708   4.611   0.445   0.605 -0.8967  0.1980  1.6717
 3765TIP3   OH232709   6.156   0.021   0.532 -0.0698  0.3487 -0.4967
 3765TIP3    H132710   6.089   0.006   0.464  0.7373 -1.8432 -0.8515
 3765TIP3    H232711   6.114   0.081   0.594 -3.0251 -2.2663  0.1683
 3766TIP3   OH232712   3.125   4.198   1.221  0.1096  0.2850  0.7802
 3766TIP3    H132713   3.082   4.284   1.217  0.4138  0.3364 -2.4993
 3766TIP3    H232714   3.219   4.218   1.225  0.2209  0.1452 -0.7156
 3767TIP3   OH232715   2.452   5.897   4.666  0.0736 -0.4294  0.2018
 3767TIP3    H132716   2.386   5.946   4.714  1.7187  2.1798 -0.1226
 3767TIP3    H232717   2.512   5.865   4.733 -1.8926 -3.5800  0.5959
 3768TIP3   OH232718   2.802   3.067  11.653 -0.4162  0.1248  0.6553
 3768TIP3    H132719   2.888   3.089  11.688  0.0177 -0.3261 -0.1240
 3768TIP3    H232720   2.768   3.151  11.620 -0.3773  0.3414  1.1459
 3769TIP3   OH232721   5.986   0.354   4.175  0.1787  0.8596  0.1254
 3769TIP3    H132722   5.976   0.447   4.193  0.0563  0.7115  0.8282
 3769TIP3    H232723   5.970   0.311   4.259 -1.8254  0.0645 -0.6446
 3770TIP3   OH232724   1.370   3.551   3.601 -0.8173  0.2202  0.0990
 3770TIP3    H132725   1.300   3.551   3.667 -0.2393  2.3734  0.7439
 3770TIP3    H232726   1.337   3.605   3.530 -0.4127  0.0161 -0.2470
 3771TIP3   OH232727   1.724   6.640   3.076  0.1517  0.0597 -0.4085
 3771TIP3    H132728   1.729   6.612   3.167 -0.1702  1.4092  0.0318
 3771TIP3    H232729   1.632   6.634   3.053  0.2267 -0.2406 -0.6419
 3772TIP3   OH232730   2.520   2.107  13.524 -0.2963  0.0824  0.2139
 3772TIP3    H132731   2.561   2.190  13.545 -0.1309 -0.2884  1.4379
 3772TIP3    H232732   2.556   2.082  13.440 -0.1365  1.1084 -0.0265
 3773TIP3   OH232733   1.663   2.292  12.840  0.0585  0.1988 -0.3723
 3773TIP3    H132734   1.648   2.312  12.932 -0.0665 -1.4024 -0.0187
 3773TIP3    H232735   1.613   2.357  12.792  0.4115  1.2689  0.6927
 3774TIP3   OH232736   5.800   0.896  14.174 -0.5850 -0.2084  0.3969
 3774TIP3    H132737   5.814   0.991  14.176 -1.5459 -0.0644  2.8089
 3774TIP3    H232738   5.876   0.860  14.219 -0.0124 -0.6380 -0.8930
 3775TIP3   OH232739   0.901   4.497  11.517 -0.4100  0.4218  0.4224
 3775TIP3    H132740   0.879   4.573  11.463  0.9221  0.3048 -0.2943
 3775TIP3    H232741   0.845   4.427  11.483  0.5429  0.3045 -0.9127
 3776TIP3   OH232742   0.200   6.034  14.446 -0.3666  0.4449  0.2511
 3776TIP3    H132743   0.146   6.013  14.371 -3.0499 -0.2918  2.3071
 3776TIP3    H232744   0.162   6.114  14.482  1.0854  0.9795  0.6387
 3777TIP3   OH232745   6.739   2.568  17.123 -0.2101  0.2483 -0.0821
 3777TIP3    H132746   6.736   2.564  17.027  2.6108  0.3764 -0.2054
 3777TIP3    H232747   6.747   2.476  17.150  3.0281  0.4406 -0.1947
 3778TIP3   OH232748   6.279   1.314  14.382 -1.2851  0.4337  0.0699
 3778TIP3    H132749   6.259   1.383  14.319 -0.0398 -0.3334 -1.2035
 3778TIP3    H232750   6.238   1.235  14.345  1.7412 -0.6041 -1.2401
 3779TIP3   OH232751   0.531   1.565  11.182 -0.2808  0.0400  0.6687
 3779TIP3    H132752   0.539   1.526  11.095 -1.4686  1.3213 -0.0414
 3779TIP3    H232753   0.578   1.648  11.175 -1.8234  0.9354  0.7202
 3780TIP3   OH232754   5.221   4.267  13.638 -0.3647  0.0257  0.0025
 3780TIP3    H132755   5.300   4.321  13.628  1.4471 -2.4668  0.3013
 3780TIP3    H232756   5.155   4.310  13.583  1.8429  0.9631 -2.0060
 3781TIP3   OH232757   4.757   4.665  11.724 -0.2074 -0.6001 -0.4897
 3781TIP3    H132758   4.724   4.711  11.646 -4.3328 -1.3171  0.6749
 3781TIP3    H232759   4.721   4.576  11.716 -0.6439 -0.7027  2.1642
 3782TIP3   OH232760   3.128   6.486  14.556 -0.0065  0.2329 -0.2925
 3782TIP3    H132761   3.074   6.547  14.607 -0.0644  0.6998 -0.9003
 3782TIP3    H232762   3.205   6.537  14.532  0.6247 -0.3800  0.4152
 3783TIP3   OH232763   2.975   1.688  12.742 -0.0928  0.7576  0.3814
 3783TIP3    H132764   3.043   1.743  12.778  0.9258 -0.8125  0.9195
 3783TIP3    H232765   3.019   1.605  12.721 -1.2588  0.6138 -1.7315
 3784TIP3   OH232766   6.055   3.571  11.125  0.3169 -0.0532  0.6192
 3784TIP3    H132767   5.972   3.583  11.079  0.2548 -1.4374  0.3190
 3784TIP3    H232768   6.043   3.616  11.209 -0.8298 -0.4328  0.6758
 3785TIP3   OH232769   1.091   4.607   0.845  0.2479  0.4550  0.5822
 3785TIP3    H132770   1.150   4.570   0.909  0.0129 -0.4197  0.3019
 3785TIP3    H232771   1.086   4.700   0.867  2.5828  0.7648 -0.0672
 3786TIP3   OH232772   4.011   6.748  12.721  0.1641  0.3834 -0.1447
 3786TIP3    H132773   3.931   6.737  12.774  0.4946  1.3034  0.5697
 3786TIP3    H232774   3.979   6.774  12.635 -0.2858  1.8567  0.4452
 3787TIP3   OH232775   4.341   5.485  12.380  0.1394 -0.0099 -0.3119
 3787TIP3    H132776   4.267   5.433  12.350  0.5905  0.0839 -1.6135
 3787TIP3    H232777   4.317   5.575  12.358 -1.3774  0.6112  3.3978
 3788TIP3   OH232778   1.829   1.531  10.671 -0.3104  0.2821  0.1526
 3788TIP3    H132779   1.872   1.446  10.662  0.7932  0.8798 -0.2837
 3788TIP3    H232780   1.736   1.510  10.682 -0.3737 -0.8718 -2.4004
 3789TIP3   OH232781   3.082   5.642  11.299  0.5721  0.2190 -0.5923
 3789TIP3    H132782   3.000   5.665  11.343  0.7263 -0.5610  0.1318
 3789TIP3    H232783   3.103   5.718  11.245 -0.8466  0.2505 -1.1066
 3790TIP3   OH232784   0.721   4.991   3.731 -0.3724 -0.0259 -0.0863
 3790TIP3    H132785   0.676   5.076   3.729  1.0926  0.7769 -0.2516
 3790TIP3    H232786   0.667   4.936   3.788 -0.8802  1.3044  0.7557
 3791TIP3   OH232787   3.475   3.173  13.726 -0.4674  0.3805  0.6349
 3791TIP3    H132788   3.408   3.157  13.792 -1.7214  0.1156 -0.6825
 3791TIP3    H232789   3.500   3.265  13.738 -1.2441  0.5498  0.9652
 3792TIP3   OH232790   4.208   2.481  11.380  0.7397  0.6360  0.1732
 3792TIP3    H132791   4.132   2.533  11.351 -0.5879 -0.7482  1.0995
 3792TIP3    H232792   4.237   2.523  11.460  2.0753  2.2177 -1.0978
 3793TIP3   OH232793   2.379   1.751   4.341  0.0452  0.0408 -0.2950
 3793TIP3    H132794   2.461   1.758   4.291  0.5698 -2.4442  0.1380
 3793TIP3    H232795   2.389   1.671   4.393 -1.1647  1.7010  2.6019
 3794TIP3   OH232796   3.112   5.612  16.760  0.4140 -0.2723  0.4583
 3794TIP3    H132797   3.160   5.648  16.685  1.3450 -0.6704  0.8557
 3794TIP3    H232798   3.097   5.688  16.817 -0.9718  0.1724 -0.4874
 3795TIP3   OH232799   0.738   2.960   3.867 -0.6726 -0.6344 -0.2688
 3795TIP3    H132800   0.753   2.966   3.961 -1.0021 -1.7201 -0.1445
 3795TIP3    H232801   0.645   2.979   3.856 -0.4285  0.5038 -0.4880
 3796TIP3   OH232802   6.296   3.954  12.120  0.2946  0.1018 -0.0478
 3796TIP3    H132803   6.341   3.879  12.081  0.0412  0.1342 -0.4087
 3796TIP3    H232804   6.225   3.915  12.171  0.3536  0.0835  0.0226
 3797TIP3   OH232805   5.094   6.033  14.141 -0.2504  0.0138 -0.4468
 3797TIP3    H132806   5.119   6.125  14.143 -1.3756  0.3411 -0.8326
 3797TIP3    H232807   5.033   6.023  14.214  0.5285 -0.6335  0.1269
 3798TIP3   OH232808   2.415   1.073   1.485 -0.3824 -0.0605  0.1218
 3798TIP3    H132809   2.363   1.101   1.410 -0.1793 -0.8475 -0.3143
 3798TIP3    H232810   2.401   1.142   1.551  0.0885  1.0510 -0.9221
 3799TIP3   OH232811   1.468   4.674   4.235  0.1640 -0.2525 -0.2124
 3799TIP3    H132812   1.553   4.633   4.221 -0.2128 -1.0706 -0.1262
 3799TIP3    H232813   1.467   4.696   4.328  0.2859 -0.2336 -0.2149
 3800TIP3   OH232814   3.163   3.142  17.158 -0.1526 -0.0890 -0.6013
 3800TIP3    H132815   3.130   3.104  17.076  0.7530 -1.9663 -0.1307
 3800TIP3    H232816   3.225   3.209  17.130  0.0777 -0.6437 -1.4801
 3801TIP3   OH232817   3.812   1.600   0.433 -0.3329 -0.5585  0.3454
 3801TIP3    H132818   3.731   1.581   0.385  0.2179  0.1646 -0.9141
 3801TIP3    H232819   3.826   1.524   0.489 -1.5586 -0.9615  0.1188
 3802TIP3   OH232820   2.284   1.095   4.251 -0.4191 -0.3685  0.6231
 3802TIP3    H132821   2.338   1.157   4.203  0.4780  0.4180  2.6090
 3802TIP3    H232822   2.224   1.059   4.185  1.5998 -0.2574 -1.3392
 3803TIP3   OH232823   4.707   0.407  14.609  0.1512  0.0595 -0.2352
 3803TIP3    H132824   4.643   0.469  14.575 -2.6619 -2.1600  0.7251
 3803TIP3    H232825   4.752   0.454  14.679  1.4085  2.5005 -2.6104
 3804TIP3   OH232826   3.689   4.317   4.639 -0.0565 -0.0338 -0.0973
 3804TIP3    H132827   3.761   4.264   4.674 -0.1990 -0.3694 -0.3100
 3804TIP3    H232828   3.733   4.393   4.601  0.2053 -0.3058 -0.3527
 3805TIP3   OH232829   4.490   6.045  15.301 -0.0447  0.0682 -0.8646
 3805TIP3    H132830   4.578   6.010  15.289  0.6089  1.8644 -1.2867
 3805TIP3    H232831   4.499   6.112  15.368 -1.2215 -0.1707 -0.4421
 3806TIP3   OH232832   4.222   3.512  16.831  0.2699  0.3428  0.6972
 3806TIP3    H132833   4.297   3.550  16.786  0.1092  0.2150  0.3197
 3806TIP3    H232834   4.243   3.521  16.924 -0.0991  2.0208  0.6425
 3807TIP3   OH232835   1.365   4.846  14.258  0.5999 -0.3286  0.0440
 3807TIP3    H132836   1.322   4.830  14.342 -0.4770  0.3215 -0.3664
 3807TIP3    H232837   1.409   4.764  14.237 -0.3980 -0.9981  0.5145
 3808TIP3   OH232838   4.592   2.108  14.136 -0.6480  0.2458  0.1393
 3808TIP3    H132839   4.685   2.114  14.116 -0.8075  1.0165 -0.3711
 3808TIP3    H232840   4.579   2.168  14.209 -0.6645 -0.2062  0.5151
 3809TIP3   OH232841   2.006   4.756   4.383 -0.4931  0.0115 -0.3071
 3809TIP3    H132842   2.053   4.792   4.458 -1.0157  1.2025 -0.5329
 3809TIP3    H232843   2.070   4.753   4.313  0.3561 -2.3727  0.5416
 3810TIP3   OH232844   6.017   6.030   5.702 -0.4957 -0.6820 -0.6521
 3810TIP3    H132845   6.084   6.075   5.650 -0.8463  0.1519 -0.3875
 3810TIP3    H232846   6.060   5.949   5.731  0.1398 -0.5216 -1.1363
 3811TIP3   OH232847   3.325   2.747  11.103  0.5095  0.6774 -0.3422
 3811TIP3    H132848   3.240   2.712  11.079  0.4583  0.5011  0.0996
 3811TIP3    H232849   3.335   2.826  11.049  0.4275  0.2419 -0.9961
 3812TIP3   OH232850   1.084   5.838  14.389 -0.0284  0.0003  0.1007
 3812TIP3    H132851   1.168   5.807  14.356  0.3111  0.9339  0.1023
 3812TIP3    H232852   1.105   5.916  14.439 -0.9395  0.4185 -0.1679
 3813TIP3   OH232853   1.965   0.057   1.997  0.2391 -0.2601  0.0957
 3813TIP3    H132854   1.904   0.002   1.949  1.8588 -1.1038 -1.0262
 3813TIP3    H232855   2.026  -0.005   2.038  1.3843  0.6397 -0.2253
 3814TIP3   OH232856   2.999   5.609  11.635 -0.1730 -0.3960 -0.7007
 3814TIP3    H132857   2.930   5.552  11.600  0.1809 -0.7864 -0.7678
 3814TIP3    H232858   3.033   5.562  11.711 -1.3113  0.7070  0.5128
 3815TIP3   OH232859   0.724   5.369  12.431 -0.4540  0.0616 -0.5596
 3815TIP3    H132860   0.725   5.293  12.489 -3.3933 -0.6385 -1.3418
 3815TIP3    H232861   0.709   5.443  12.490  0.1613 -0.2341 -0.0324
 3816TIP3   OH232862   3.900   3.937   4.625  0.3605  0.4607 -0.4766
 3816TIP3    H132863   3.888   4.030   4.641  2.9856  0.7870 -0.2545
 3816TIP3    H232864   3.896   3.929   4.529 -2.1935  0.4243 -0.4008
 3817TIP3   OH232865   5.991   2.227  16.413  0.2569 -0.2070 -0.2452
 3817TIP3    H132866   6.009   2.297  16.476  0.5523  0.8133 -1.4389
 3817TIP3    H232867   6.062   2.164  16.426  1.2741  0.8184 -0.7124
 3818TIP3   OH232868   2.479   2.417  14.650  0.1343  0.5618 -0.2934
 3818TIP3    H132869   2.498   2.324  14.644  2.2505  0.7457  2.8233
 3818TIP3    H232870   2.398   2.422  14.701  0.1073  0.4531 -0.3262
 3819TIP3   OH232871   5.291   1.845  10.846  0.1635 -0.1385  0.3653
 3819TIP3    H132872   5.357   1.912  10.828  0.0367 -0.5203 -1.5574
 3819TIP3    H232873   5.320   1.769  10.797 -2.0105 -0.1227 -0.9999
 3820TIP3   OH232874   0.929   5.444   1.516 -0.5049  0.0234  0.4206
 3820TIP3    H132875   0.956   5.494   1.594  0.0859  0.3074  0.0333
 3820TIP3    H232876   0.927   5.509   1.446  1.8440 -0.7971 -0.4394
 3821TIP3   OH232877   4.324   6.511   6.179 -0.4386 -0.1119  0.7336
 3821TIP3    H132878   4.232   6.524   6.204 -0.3240 -0.4526  1.3416
 3821TIP3    H232879   4.341   6.419   6.198 -0.1151 -0.1788  0.1331
 3822TIP3   OH232880   1.405   3.730  14.607  0.1752 -0.1666 -0.2585
 3822TIP3    H132881   1.374   3.640  14.594 -1.4150  0.5312 -1.5488
 3822TIP3    H232882   1.429   3.734  14.700  1.0473 -2.1500 -0.3790
 3823TIP3   OH232883   0.107   3.843   2.101 -0.7010  0.4317  0.1719
 3823TIP3    H132884   0.020   3.817   2.133  0.8814 -4.1108  1.1817
 3823TIP3    H232885   0.154   3.868   2.181 -0.2943  0.4067 -0.0619
 3824TIP3   OH232886   2.616   3.747  15.054 -0.2691 -0.6908  0.4690
 3824TIP3    H132887   2.705   3.712  15.050 -0.0477 -0.0889 -0.0540
 3824TIP3    H232888   2.628   3.842  15.056 -0.8777 -0.6276  1.1591
 3825TIP3   OH232889   6.498   6.519   2.432  0.5453  0.6702  0.4645
 3825TIP3    H132890   6.523   6.611   2.425  2.1519  0.2785  0.8549
 3825TIP3    H232891   6.479   6.506   2.525 -0.7888  0.8665  0.2345
 3826TIP3   OH232892   2.412   1.157  11.045 -0.2280 -0.1262  0.1915
 3826TIP3    H132893   2.420   1.225  10.978 -0.3266 -0.7908 -0.4962
 3826TIP3    H232894   2.360   1.088  11.004 -0.7391 -0.3112  1.1322
 3827TIP3   OH232895   4.545   5.848  12.216 -0.0468  0.0799  0.5034
 3827TIP3    H132896   4.554   5.807  12.130 -1.3745 -1.1528  0.9349
 3827TIP3    H232897   4.457   5.884  12.217  0.7835  2.2057  0.4880
 3828TIP3   OH232898   6.685   3.002   4.137 -0.2212  0.1252  0.6787
 3828TIP3    H132899   6.742   2.940   4.182  0.7365  0.6097  0.1575
 3828TIP3    H232900   6.675   2.966   4.049 -0.5920  0.1235  0.7218
 3829TIP3   OH232901   6.772   1.987  13.809  0.4543 -0.7446 -0.4932
 3829TIP3    H132902   6.867   1.991  13.798  0.5235 -0.5075  0.2000
 3829TIP3    H232903   6.745   1.912  13.754  1.3066 -2.1947  1.0229
 3830TIP3   OH232904   0.787   3.310   3.260  0.0793 -0.2025  0.0702
 3830TIP3    H132905   0.759   3.348   3.176 -2.6916 -1.3050  0.4634
 3830TIP3    H232906   0.809   3.219   3.239 -3.4234 -1.3427  0.9840
 3831TIP3   OH232907   5.150   3.543   1.848 -0.1015 -0.6178  0.0498
 3831TIP3    H132908   5.086   3.576   1.785  1.6934  0.6133 -1.2010
 3831TIP3    H232909   5.117   3.457   1.873 -2.3034  0.0676 -0.4385
 3832TIP3   OH232910   3.353   6.238   4.814 -0.1577 -0.3190 -0.2712
 3832TIP3    H132911   3.346   6.314   4.757 -1.5504  0.2629  0.6427
 3832TIP3    H232912   3.317   6.268   4.898  2.4347 -0.9468  1.1280
 3833TIP3   OH232913   6.188   6.312   4.533 -0.0120  0.4965 -0.0268
 3833TIP3    H132914   6.185   6.386   4.594  1.1051 -1.0427  1.9601
 3833TIP3    H232915   6.212   6.352   4.449  1.4936  2.2793  1.2007
 3834TIP3   OH232916   1.697   3.089  14.163 -0.3887  0.5793  0.0149
 3834TIP3    H132917   1.750   3.027  14.212  0.8940  0.5300 -1.3865
 3834TIP3    H232918   1.719   3.175  14.200  1.3976  0.6560 -1.1545
 3835TIP3   OH232919   1.265   5.456   3.622 -1.1953  0.4325  0.1859
 3835TIP3    H132920   1.224   5.535   3.656 -1.0816  0.8743 -0.6799
 3835TIP3    H232921   1.224   5.442   3.537 -0.1633  0.4056 -0.3229
 3836TIP3   OH232922   5.531   4.948  14.762  0.2794 -0.9498 -0.0783
 3836TIP3    H132923   5.560   4.903  14.842  0.8370  1.5092  1.1602
 3836TIP3    H232924   5.436   4.947  14.767  0.2806 -2.0457 -0.1125
 3837TIP3   OH232925   2.071   4.805   3.128  0.4603  0.7427  0.1000
 3837TIP3    H132926   2.006   4.849   3.075 -0.7691 -2.2482 -0.9776
 3837TIP3    H232927   2.029   4.792   3.213 -0.2854 -0.9695 -0.5190
 3838TIP3   OH232928   4.966   6.750   4.077 -0.1309 -0.0814 -0.4621
 3838TIP3    H132929   4.942   6.797   3.997  1.3017  0.5521 -0.5402
 3838TIP3    H232930   5.045   6.794   4.108  0.1464 -1.2348  0.5287
 3839TIP3   OH232931   4.065   1.304   1.074 -0.1287 -0.6985 -0.5379
 3839TIP3    H132932   3.976   1.328   1.099  0.5078  0.1735  0.9542
 3839TIP3    H232933   4.068   1.315   0.979 -1.2036  0.6437 -0.4227
 3840TIP3   OH232934   2.486   1.819  12.224  0.1603 -0.0465  0.4736
 3840TIP3    H132935   2.501   1.910  12.249  2.1030  0.4549 -2.3116
 3840TIP3    H232936   2.409   1.822  12.168 -0.1864 -0.2350  0.9333
 3841TIP3   OH232937   4.204   1.925  11.837  0.4592 -0.0805  0.1679
 3841TIP3    H132938   4.286   1.876  11.833  0.8714  0.6540 -0.4423
 3841TIP3    H232939   4.214   1.994  11.772 -1.1187 -0.7041 -0.7899
 3842TIP3   OH232940   0.212   6.520  15.805 -0.1021 -0.4032 -0.1735
 3842TIP3    H132941   0.164   6.594  15.841  1.1738  0.0830  0.5496
 3842TIP3    H232942   0.219   6.459  15.879  0.1126 -0.6188 -0.3743
 3843TIP3   OH232943   1.443   4.949  12.965 -0.3262 -0.0074 -0.5499
 3843TIP3    H132944   1.532   4.980  12.985 -0.6941 -0.2856  1.7064
 3843TIP3    H232945   1.401   5.024  12.923  0.6111  0.5310 -0.5465
 3844TIP3   OH232946   5.524   4.358  13.787 -0.6011  0.3688 -0.2918
 3844TIP3    H132947   5.502   4.420  13.718 -0.0561 -0.8571 -1.5820
 3844TIP3    H232948   5.605   4.317  13.758  0.1384  0.4824  1.5175
 3845TIP3   OH232949   1.529   2.022  10.420  0.3808  0.2846 -0.1110
 3845TIP3    H132950   1.438   2.008  10.394  0.4091  0.4186 -0.2884
 3845TIP3    H232951   1.530   2.110  10.459  0.8918  1.3245 -2.3592
 3846TIP3   OH232952   0.780   2.941   0.172  0.3464  0.2184  0.3669
 3846TIP3    H132953   0.811   3.007   0.110  0.8974 -1.2791 -0.9892
 3846TIP3    H232954   0.691   2.967   0.194  0.6885  1.6020  0.1199
 3847TIP3   OH232955   3.595   6.381   5.543  0.1734 -0.5447 -0.3055
 3847TIP3    H132956   3.590   6.413   5.453  0.4986 -1.2441 -0.5763
 3847TIP3    H232957   3.513   6.334   5.557 -0.4725  0.7080  0.2186
 3848TIP3   OH232958   1.758   4.436   4.043 -0.0003 -0.5131 -0.0893
 3848TIP3    H132959   1.802   4.519   4.057 -1.5669  0.1259  1.2523
 3848TIP3    H232960   1.747   4.430   3.948  0.1560  0.8051 -0.1971
 3849TIP3   OH232961   6.327   2.952   5.001 -0.2417  0.0243  0.1674
 3849TIP3    H132962   6.406   2.992   4.967 -0.6508 -0.0211 -0.8697
 3849TIP3    H232963   6.324   2.865   4.960 -1.3116  0.3832 -0.5408
 3850TIP3   OH232964   5.288   0.370  11.770  0.2100 -0.0221 -0.4971
 3850TIP3    H132965   5.194   0.381  11.780  0.4396  0.8400  0.9110
 3850TIP3    H232966   5.325   0.410  11.849  1.7728  0.0695 -1.2582
 3851TIP3   OH232967   2.791   1.056  12.157  0.0111  0.0549  0.0712
 3851TIP3    H132968   2.801   1.027  12.248  1.0770  1.3890  0.3839
 3851TIP3    H232969   2.738   1.136  12.164  0.7826  0.6082 -0.4067
 3852TIP3   OH232970   6.284   5.601   3.897  0.0633  0.3929 -0.0687
 3852TIP3    H132971   6.311   5.543   3.968  1.9996  0.4510 -0.7222
 3852TIP3    H232972   6.205   5.644   3.930  0.5056 -0.1344  1.7548
 3853TIP3   OH232973   2.306   1.612   0.581  0.6366 -0.4181 -0.4110
 3853TIP3    H132974   2.243   1.550   0.618  0.3600  1.6759  2.8790
 3853TIP3    H232975   2.387   1.597   0.631  1.8604 -0.9636 -2.4832
 3854TIP3   OH232976   2.717   5.104   4.422 -0.4393  0.3539 -0.3440
 3854TIP3    H132977   2.742   5.192   4.393  1.0628 -0.5081 -1.7055
 3854TIP3    H232978   2.784   5.046   4.385 -1.2645 -1.3470  0.7510
 3855TIP3   OH232979   5.636   5.336  15.287  0.5327  0.2170  0.1694
 3855TIP3    H132980   5.602   5.247  15.284  1.1052  0.0269 -0.7089
 3855TIP3    H232981   5.709   5.337  15.225  0.9289  1.1275  0.6346
 3856TIP3   OH232982   0.257   3.955  11.284  0.5184  0.0822 -0.1422
 3856TIP3    H132983   0.331   4.011  11.306  1.2208 -1.2326  0.9353
 3856TIP3    H232984   0.287   3.866  11.302 -1.2585 -0.4897  0.1816
 3857TIP3   OH232985   0.755   0.126   2.818  0.6325  0.3999  0.0150
 3857TIP3    H132986   0.838   0.146   2.860  0.5619 -1.6855  1.1813
 3857TIP3    H232987   0.689   0.142   2.886  0.3019 -0.5765 -0.0744
 3858TIP3   OH232988   4.432   3.675  12.634 -0.4639  0.1695  0.4046
 3858TIP3    H132989   4.365   3.742  12.623  0.5189  1.1659  0.3758
 3858TIP3    H232990   4.491   3.687  12.560 -0.5617 -1.0853  0.0988
 3859TIP3   OH232991   6.144   4.523  17.023 -0.5619  0.2291  0.6591
 3859TIP3    H132992   6.163   4.513  16.929  1.1920  2.0345  0.7963
 3859TIP3    H232993   6.078   4.592  17.028 -0.0263  0.7367  0.7955
 3860TIP3   OH232994   4.818   1.272  16.123  0.3420  0.5649  0.2252
 3860TIP3    H132995   4.854   1.185  16.142  0.5130  0.5058 -0.3476
 3860TIP3    H232996   4.893   1.322  16.091 -0.1577  0.3152 -1.3664
 3861TIP3   OH232997   6.187   4.582  11.856  0.4315 -0.5067 -0.0452
 3861TIP3    H132998   6.130   4.505  11.860 -1.6308  0.8031 -2.6275
 3861TIP3    H232999   6.132   4.654  11.889  0.8581  0.5942 -1.6560
 3862TIP3   OH233000   4.661   3.906   2.915  0.2064  0.2529  0.4783
 3862TIP3    H133001   4.668   3.893   2.821 -0.1000  0.8456  0.3717
 3862TIP3    H233002   4.570   3.888   2.936 -0.0445  1.4460  0.4454
 3863TIP3   OH233003   6.026   1.049   5.019  0.3887 -0.7305  0.1099
 3863TIP3    H133004   5.981   1.009   5.093  0.8688 -1.9062 -0.2159
 3863TIP3    H233005   6.069   0.975   4.975  0.6730  0.0517 -0.9333
 3864TIP3   OH233006   2.502   5.713   0.401 -0.0301  0.2459 -0.0205
 3864TIP3    H133007   2.437   5.643   0.401 -1.6384  1.6886  1.4519
 3864TIP3    H233008   2.476   5.769   0.328 -0.2223  0.6059  0.3195
 3865TIP3   OH233009   2.961   1.528   3.221 -0.1981 -0.1124 -0.2252
 3865TIP3    H133010   2.903   1.509   3.295 -0.5648 -0.3514 -0.5724
 3865TIP3    H233011   3.048   1.499   3.250 -0.3899 -0.4436  0.0127
 3866TIP3   OH233012   3.184   4.948  16.979 -0.2435  0.1234 -0.1295
 3866TIP3    H133013   3.183   4.871  17.036 -1.8746 -0.2700 -0.6559
 3866TIP3    H233014   3.129   4.923  16.904  1.8274  0.6330 -1.8783
 3867TIP3   OH233015   1.859   3.091   5.268 -0.6146  0.1704  0.1534
 3867TIP3    H133016   1.867   3.073   5.174 -1.7525  0.0661  0.0690
 3867TIP3    H233017   1.918   3.029   5.310  1.0227  1.2098 -0.5834
 3868TIP3   OH233018   0.347   6.771  16.023 -0.7865 -0.4335  0.4410
 3868TIP3    H133019   0.402   6.709  16.070  0.4789  1.0264  0.8957
 3868TIP3    H233020   0.311   6.828  16.091 -2.0024 -0.6918  0.0329
 3869TIP3   OH233021   5.695   2.790   4.321  0.1425  0.2102 -0.0951
 3869TIP3    H133022   5.703   2.866   4.264  0.2585 -0.0436 -0.4224
 3869TIP3    H233023   5.740   2.815   4.402  0.0276  0.5500 -0.1376
 3870TIP3   OH233024   1.534   5.633  11.201  0.3847 -0.8623  0.9972
 3870TIP3    H133025   1.506   5.684  11.125  1.6916 -1.1469  0.3161
 3870TIP3    H233026   1.477   5.556  11.201 -0.1506 -0.4667  0.7668
 3871TIP3   OH233027   6.167   1.430   2.006  0.2149 -0.0862  0.1662
 3871TIP3    H133028   6.101   1.361   1.994 -0.3335  0.6028 -0.8918
 3871TIP3    H233029   6.180   1.435   2.100 -2.1393  0.5759  0.4817
 3872TIP3   OH233030   2.277   6.464   0.378  1.0681 -0.4764  0.2903
 3872TIP3    H133031   2.260   6.558   0.372 -1.5544 -0.8742  1.0176
 3872TIP3    H233032   2.212   6.424   0.322  1.3415 -1.9446  1.0049
 3873TIP3   OH233033   1.671   4.600  15.290 -0.5586 -0.5916  0.0086
 3873TIP3    H133034   1.762   4.618  15.313 -0.4382  0.0893 -0.9816
 3873TIP3    H233035   1.621   4.624  15.368 -0.0569  0.7220 -0.0642
 3874TIP3   OH233036   4.503   5.393  12.868 -0.1515 -0.2102  0.3693
 3874TIP3    H133037   4.465   5.454  12.805  1.5286 -0.1915 -0.6516
 3874TIP3    H233038   4.560   5.337  12.815  0.4275 -0.9015  1.7139
 3875TIP3   OH233039   3.295   1.469  14.434  0.2990  0.2438  0.5290
 3875TIP3    H133040   3.260   1.554  14.408 -1.7874 -0.3053  1.3836
 3875TIP3    H233041   3.333   1.485  14.521 -0.5366  0.2199  0.9075
 3876TIP3   OH233042   3.495   2.024   4.843  0.6457  0.2010 -0.0484
 3876TIP3    H133043   3.479   1.941   4.888  0.6966 -0.0339 -0.4596
 3876TIP3    H233044   3.590   2.035   4.845  0.4755  1.6392  2.4706
 3877TIP3   OH233045   4.123   2.696   3.944 -0.1526  0.8963 -0.3379
 3877TIP3    H133046   4.158   2.785   3.945  2.0923  0.0951 -2.0098
 3877TIP3    H233047   4.080   2.687   3.859 -0.5249  0.4636 -0.1070
 3878TIP3   OH233048   2.640   4.389  16.324  0.5506  0.3357 -0.2826
 3878TIP3    H133049   2.714   4.417  16.378 -0.4231  0.3912  1.0446
 3878TIP3    H233050   2.609   4.309  16.366  0.5046 -0.2790 -1.4609
 3879TIP3   OH233051   6.220   1.705   2.459  0.0307  0.1019  0.0424
 3879TIP3    H133052   6.228   1.697   2.554  0.1515 -1.3277 -0.0771
 3879TIP3    H233053   6.127   1.723   2.444  0.1667  1.1957  0.4747
 3880TIP3   OH233054   4.150   0.450   3.092 -0.3636 -0.0242 -0.5077
 3880TIP3    H133055   4.245   0.443   3.081 -0.0811  0.3881  1.4203
 3880TIP3    H233056   4.131   0.543   3.082 -0.4340  0.0134 -0.0588
 3881TIP3   OH233057   4.472   3.357  11.585 -0.3457 -0.1546 -0.6213
 3881TIP3    H133058   4.558   3.372  11.547 -0.0359 -1.3063 -0.3996
 3881TIP3    H233059   4.450   3.439  11.629  1.3731 -0.3901  0.7315
 3882TIP3   OH233060   4.065   0.260  14.774  0.3967  0.5451  0.7948
 3882TIP3    H133061   4.068   0.166  14.760  0.9692  0.6960 -0.1334
 3882TIP3    H233062   4.072   0.271  14.869 -1.2043 -0.3974  1.0400
 3883TIP3   OH233063   6.580   4.281   5.811 -0.4172 -0.0017 -0.2054
 3883TIP3    H133064   6.590   4.354   5.872 -1.1295  0.6795 -0.8996
 3883TIP3    H233065   6.486   4.275   5.794 -0.5395 -2.0671  1.0168
 3884TIP3   OH233066   1.254   5.246  12.344  0.1759  0.4038 -0.1514
 3884TIP3    H133067   1.314   5.180  12.311  0.1047 -0.3891  1.2385
 3884TIP3    H233068   1.178   5.242  12.285  0.3821 -0.4181 -0.3598
 3885TIP3   OH233069   0.283   5.530   4.587 -0.3410  0.3019  0.3457
 3885TIP3    H133070   0.293   5.607   4.532  0.6422  0.6645  1.0192
 3885TIP3    H233071   0.208   5.483   4.550 -0.3103  1.0552 -0.6805
 3886TIP3   OH233072   2.400   2.133   5.341 -0.8915 -0.4016  0.5084
 3886TIP3    H133073   2.489   2.152   5.371 -0.7527 -1.4769  0.8352
 3886TIP3    H233074   2.344   2.189   5.393 -0.3910  0.3689  0.2187
 3887TIP3   OH233075   5.969   5.672  16.597 -0.6845  0.1055  0.2789
 3887TIP3    H133076   5.955   5.757  16.557 -1.6251 -0.3518 -0.3952
 3887TIP3    H233077   6.063   5.668  16.614 -0.5042  0.8911 -0.5426
 3888TIP3   OH233078   6.180   6.703   2.463 -0.0710 -0.1504 -0.1693
 3888TIP3    H133079   6.200   6.614   2.490 -2.1707 -0.8318 -0.7688
 3888TIP3    H233080   6.157   6.748   2.545 -0.2012 -0.4915 -0.0156
 3889TIP3   OH233081   4.422   3.778  10.477 -0.2427  0.0766  0.5736
 3889TIP3    H133082   4.490   3.837  10.511 -2.3203  1.9664  1.5592
 3889TIP3    H233083   4.450   3.691  10.506  0.9010  1.0126  2.3919
 3890TIP3   OH233084   5.219   5.732  11.070  0.9184 -0.1145  0.0178
 3890TIP3    H133085   5.302   5.716  11.115  0.9919  2.7352  0.9952
 3890TIP3    H233086   5.240   5.795  11.002 -0.3183  0.0633 -0.2191
 3891TIP3   OH233087   2.743   3.757   1.393  0.3668 -0.1902 -0.7212
 3891TIP3    H133088   2.772   3.811   1.467  0.3635 -1.4986  0.2342
 3891TIP3    H233089   2.677   3.699   1.430 -0.5628  0.0116 -2.0320
 3892TIP3   OH233090   3.219   6.020   4.719  0.2885  0.7448 -0.3418
 3892TIP3    H133091   3.134   6.014   4.763  0.1620 -1.6346 -0.8111
 3892TIP3    H233092   3.267   6.087   4.768 -0.5914 -0.3732  2.1680
 3893TIP3   OH233093   0.030   1.512  13.017 -0.0965 -0.5811 -0.0308
 3893TIP3    H133094   0.013   1.599  12.981 -2.2605 -0.2106  1.8232
 3893TIP3    H233095   0.124   1.500  13.005 -0.2668  0.6427 -3.2792
 3894TIP3   OH233096   6.210   1.812   4.995  0.2470  0.4948  0.2383
 3894TIP3    H133097   6.303   1.805   4.974 -0.4367 -1.2571 -2.3931
 3894TIP3    H233098   6.187   1.902   4.971  0.6639  0.0975 -1.7376
 3895TIP3   OH233099   3.097   3.680   5.272  0.3968  1.0013 -0.1212
 3895TIP3    H133100   3.184   3.713   5.292  1.4171 -0.7701 -1.4507
 3895TIP3    H233101   3.075   3.722   5.188  0.2485  0.9742 -0.0952
 3896TIP3   OH233102   3.750   0.482  15.969 -0.3763  0.7017 -0.3038
 3896TIP3    H133103   3.822   0.451  15.914 -0.0077  0.7909  0.1228
 3896TIP3    H233104   3.715   0.404  16.011  1.0880  0.9323  1.4112
 3897TIP3   OH233105   2.218   3.102   1.481  0.0708 -0.4900 -0.3425
 3897TIP3    H133106   2.213   3.010   1.455  0.9551 -0.8633  0.7911
 3897TIP3    H233107   2.282   3.104   1.552  0.2783  1.0444 -0.5492
 3898TIP3   OH233108   3.977   2.014  16.419 -0.3559 -0.6111 -0.4069
 3898TIP3    H133109   4.053   1.998  16.363 -0.5257  0.2525 -0.8801
 3898TIP3    H233110   4.000   2.090  16.472 -0.2945 -1.2706  0.5267
 3899TIP3   OH233111   1.926   0.489   2.336  0.5324 -0.2857  0.1035
 3899TIP3    H133112   1.885   0.560   2.286 -1.2460 -1.9746 -0.8833
 3899TIP3    H233113   1.977   0.441   2.271  2.2201  0.4286  0.8879
 3900TIP3   OH233114   5.669   2.444   0.990 -0.1638  0.3253  0.1402
 3900TIP3    H133115   5.647   2.351   0.989 -0.2790  0.3666 -1.5801
 3900TIP3    H233116   5.761   2.447   0.962  0.3622  0.6212  1.7882
 3901TIP3   OH233117   2.141   4.258  12.227 -0.4018  0.3031 -0.5836
 3901TIP3    H133118   2.117   4.211  12.147 -0.8954  1.0890 -0.9098
 3901TIP3    H233119   2.068   4.319  12.241 -0.4325 -0.0066  0.6104
 3902TIP3   OH233120   6.164   4.215   2.985  0.0343 -0.1585  0.2584
 3902TIP3    H133121   6.209   4.238   3.066  0.2149 -1.3440  0.4896
 3902TIP3    H233122   6.170   4.295   2.931  0.8183  0.2824  0.9883
 3903TIP3   OH233123   3.969   5.323  16.437  0.4729  0.0876 -0.0995
 3903TIP3    H133124   4.022   5.254  16.400  0.1472  0.4948 -1.3359
 3903TIP3    H233125   4.023   5.401  16.432  0.3554  0.1822  0.0917
 3904TIP3   OH233126   4.152   1.119  15.897 -0.0573  0.5946 -0.6033
 3904TIP3    H133127   4.216   1.094  15.963  1.4869  2.8528 -1.1933
 3904TIP3    H233128   4.074   1.068  15.919  1.7046 -1.7436  0.4930
 3905TIP3   OH233129   4.541   3.195   5.999 -0.2855  0.5633 -0.0209
 3905TIP3    H133130   4.467   3.254   5.989 -0.2537  0.4604 -0.8494
 3905TIP3    H233131   4.617   3.247   5.975  0.0873  1.1125  2.2131
 3906TIP3   OH233132   3.137   6.376  12.040  0.6676 -0.4119  0.2458
 3906TIP3    H133133   3.103   6.287  12.041 -1.8575  0.5187  0.0334
 3906TIP3    H233134   3.188   6.383  12.121  0.2905 -1.8021  0.6169
 3907TIP3   OH233135   2.408   1.818   6.481 -0.4594 -0.5566 -0.3591
 3907TIP3    H133136   2.468   1.768   6.537  0.4305  0.1572 -0.6551
 3907TIP3    H233137   2.366   1.752   6.426 -0.8835 -1.1955  0.7194
 3908TIP3   OH233138   2.369   3.325  16.919 -0.5656  0.1678  0.1330
 3908TIP3    H133139   2.405   3.236  16.912 -0.6283 -0.0473  2.2733
 3908TIP3    H233140   2.275   3.311  16.931 -0.6813  0.5725 -0.2800
 3909TIP3   OH233141   3.139   3.498  14.076  0.5075  0.2569  0.2385
 3909TIP3    H133142   3.049   3.484  14.106 -0.3751  0.9928 -2.0209
 3909TIP3    H233143   3.145   3.592  14.059  1.8215  0.2725  0.7320
 3910TIP3   OH233144   6.025   0.790   1.237  0.5025 -0.4619  0.1903
 3910TIP3    H133145   6.079   0.865   1.211  0.4648  0.0298  1.4631
 3910TIP3    H233146   6.087   0.725   1.269  0.5228 -0.9119 -0.7562
 3911TIP3   OH233147   5.875   5.762  14.977 -0.8957  0.3149  0.2390
 3911TIP3    H133148   5.929   5.788  14.903 -2.3492  1.1919 -0.5487
 3911TIP3    H233149   5.879   5.836  15.037  1.5695 -1.0322  1.8230
 3912TIP3   OH233150   1.688   5.808  11.350 -0.0332  0.3814 -0.3272
 3912TIP3    H133151   1.639   5.737  11.307  0.8624  0.2304 -1.1020
 3912TIP3    H233152   1.778   5.796  11.322 -0.1245  2.8151 -1.8100
 3913TIP3   OH233153   2.287   0.633   6.078  0.2911  0.8289 -0.5040
 3913TIP3    H133154   2.358   0.693   6.102 -0.3586  1.5456 -0.3702
 3913TIP3    H233155   2.310   0.603   5.990  0.7293  1.1052 -0.4874
 3914TIP3   OH233156   3.222   0.171  16.645  0.3886 -0.0242 -0.4104
 3914TIP3    H133157   3.255   0.082  16.633  1.0568  0.1180  0.3423
 3914TIP3    H233158   3.221   0.208  16.557 -0.6789 -1.0474 -0.8409
 3915TIP3   OH233159   3.171   2.086  16.972  0.0103 -0.4036 -0.2215
 3915TIP3    H133160   3.211   2.099  17.058  0.5065  1.6622 -0.7487
 3915TIP3    H233161   3.233   2.030  16.925 -0.8398 -2.5504  1.1474
 3916TIP3   OH233162   3.470   2.034  10.770  0.2672 -0.0429 -0.3157
 3916TIP3    H133163   3.472   1.971  10.842  0.2278  1.1946  0.7895
 3916TIP3    H233164   3.379   2.035  10.742  0.1656 -0.0798  0.0107
 3917TIP3   OH233165   2.305   5.099  11.999  0.3517  0.4901 -0.5756
 3917TIP3    H133166   2.234   5.041  12.027  0.0159  0.6697 -1.0460
 3917TIP3    H233167   2.337   5.060  11.917  0.0426  1.0321 -0.9601
 3918TIP3   OH233168   6.464   1.465  15.290  0.2049  0.5265 -0.1976
 3918TIP3    H133169   6.533   1.399  15.289  1.4389  1.6852  2.5787
 3918TIP3    H233170   6.385   1.416  15.314  0.2979 -0.5564 -1.9974
 3919TIP3   OH233171   4.250   4.333   0.144  0.4395  0.6350 -0.1105
 3919TIP3    H133172   4.294   4.290   0.218 -0.7465 -2.2470 -0.9985
 3919TIP3    H233173   4.314   4.396   0.111  2.7274 -1.2686  0.5439
 3920TIP3   OH233174   2.238   3.487   3.812  0.0242 -0.0536 -0.6104
 3920TIP3    H133175   2.209   3.422   3.747  1.5921 -0.7687 -0.6328
 3920TIP3    H233176   2.333   3.489   3.802  0.3937 -0.8135  2.2565
 3921TIP3   OH233177   6.378   2.595  13.621  0.1458 -0.0630  0.4516
 3921TIP3    H133178   6.299   2.542  13.609  0.2361  0.0973 -0.9976
 3921TIP3    H233179   6.435   2.569  13.548 -0.1965  2.6847 -0.8525
 3922TIP3   OH233180   4.394   6.108   5.453 -0.3607 -0.6729 -0.5427
 3922TIP3    H133181   4.320   6.156   5.417  0.4991 -0.6424 -2.3043
 3922TIP3    H233182   4.405   6.033   5.395 -0.2953 -1.8024  0.9018
 3923TIP3   OH233183   4.997   4.488   2.892 -0.0708  0.4948  0.1843
 3923TIP3    H133184   4.932   4.534   2.839 -1.1949  1.7599  2.6099
 3923TIP3    H233185   4.993   4.397   2.862 -1.3665  0.9969 -1.2018
 3924TIP3   OH233186   4.381   6.672  15.103  0.6578 -0.2611 -0.0659
 3924TIP3    H133187   4.442   6.653  15.174  0.4997  0.8538  0.3725
 3924TIP3    H233188   4.299   6.633  15.131  0.8934 -0.8459 -0.1766
 3925TIP3   OH233189   4.573   1.418   1.159 -0.2824 -0.0946  0.3953
 3925TIP3    H133190   4.619   1.430   1.243  0.8541  0.3020 -0.2781
 3925TIP3    H233191   4.580   1.324   1.142 -1.8423 -0.4171  1.4952
 3926TIP3   OH233192   1.964   1.129  14.501 -0.4670 -0.3908  0.3867
 3926TIP3    H133193   2.049   1.094  14.474 -0.7589  0.3565 -1.5798
 3926TIP3    H233194   1.946   1.085  14.584  0.8562 -2.1803 -0.2231
 3927TIP3   OH233195   6.462   2.544   2.334  0.4688 -0.3265 -0.1835
 3927TIP3    H133196   6.479   2.486   2.408  1.3355 -0.2363 -0.3105
 3927TIP3    H233197   6.478   2.632   2.367 -0.0216 -0.2186 -0.2290
 3928TIP3   OH233198   4.622   0.261  12.686 -0.5546  0.2454 -0.0645
 3928TIP3    H133199   4.588   0.281  12.773 -0.6452  1.3657 -0.3580
 3928TIP3    H233200   4.703   0.311  12.680  0.2822 -1.0878 -0.0134
 3929TIP3   OH233201   6.736   0.796  16.576 -0.4184 -0.5254  0.0007
 3929TIP3    H133202   6.801   0.865  16.560  0.5361 -1.5083 -0.3663
 3929TIP3    H233203   6.744   0.777  16.669 -2.4894  1.6509  0.6973
 3930TIP3   OH233204   5.599   4.409   3.787  0.1341  0.7060  0.4137
 3930TIP3    H133205   5.519   4.445   3.748  0.1889 -0.5434 -0.8610
 3930TIP3    H233206   5.580   4.407   3.881 -1.0115  1.2189  0.2035
 3931TIP3   OH233207   3.237   4.336  10.500 -0.0840 -0.1990 -0.7457
 3931TIP3    H133208   3.176   4.377  10.561 -2.4083 -0.5014 -2.7867
 3931TIP3    H233209   3.248   4.247  10.534  0.1653  0.2261  0.2987
 3932TIP3   OH233210   0.531   3.778   3.367  0.1816 -0.0730 -0.1313
 3932TIP3    H133211   0.438   3.798   3.358  0.3275  0.3970 -0.5839
 3932TIP3    H233212   0.533   3.683   3.380 -0.3116 -0.1842 -0.8266
 3933TIP3   OH233213   0.521   2.542  15.028  0.1871  0.2063 -0.4458
 3933TIP3    H133214   0.475   2.624  15.011  0.8615  0.3779 -1.4832
 3933TIP3    H233215   0.462   2.493  15.086 -1.9321 -0.1473 -2.8258
 3934TIP3   OH233216   0.301   1.801   5.836 -0.0014 -0.4936  0.2707
 3934TIP3    H133217   0.245   1.786   5.912 -1.4559  0.9211 -0.4965
 3934TIP3    H233218   0.302   1.896   5.825  0.5744 -0.6566 -1.1920
 3935TIP3   OH233219   3.946   4.514  17.168 -0.2524  0.5798 -0.6190
 3935TIP3    H133220   3.916   4.496  17.079 -0.2346  0.9233 -0.6949
 3935TIP3    H233221   4.018   4.452  17.182 -1.5831 -0.8975 -0.1006
 3936TIP3   OH233222   2.530   1.618  11.411 -0.8636 -0.1405  0.7306
 3936TIP3    H133223   2.505   1.603  11.319  1.1140  0.4468  0.0771
 3936TIP3    H233224   2.488   1.547  11.459 -1.7892 -0.5466 -0.6626
 3937TIP3   OH233225   3.196   6.597   5.429  0.2331 -0.0766 -0.2013
 3937TIP3    H133226   3.163   6.687   5.428 -1.1439 -0.5826 -0.9501
 3937TIP3    H233227   3.194   6.571   5.521  0.2192  0.5015 -0.0362
 3938TIP3   OH233228   5.100   0.665  11.666  0.5829  0.0612 -0.3705
 3938TIP3    H133229   5.122   0.644  11.757 -0.1345  0.2898 -0.1345
 3938TIP3    H233230   5.112   0.583  11.619  0.5317 -0.1697  0.0153
 3939TIP3   OH233231   0.749   2.852  11.809  0.0373 -0.0083 -0.4740
 3939TIP3    H133232   0.789   2.814  11.887  0.1580  0.1416 -0.4629
 3939TIP3    H233233   0.823   2.880  11.755 -0.0502  0.1604 -0.5083
 3940TIP3   OH233234   3.529   1.429   4.814  0.4303 -0.5814 -0.3566
 3940TIP3    H133235   3.559   1.416   4.904 -1.8284 -0.8888  0.3932
 3940TIP3    H233236   3.564   1.514   4.788 -0.4593  0.3854  1.5043
 3941TIP3   OH233237   2.601   2.373  13.798 -0.3502  0.1185 -0.5335
 3941TIP3    H133238   2.645   2.350  13.716 -1.5719  0.4195 -1.2788
 3941TIP3    H233239   2.564   2.290  13.830  2.0072 -0.4393  0.8805
 3942TIP3   OH233240   4.666   5.157  16.157  0.1300 -1.1486  0.0202
 3942TIP3    H133241   4.721   5.126  16.086  1.0177 -2.2671  1.1779
 3942TIP3    H233242   4.636   5.077  16.201  0.9636 -0.4541  1.9206
 3943TIP3   OH233243   1.232   1.047   0.338  0.1759  0.4559  0.3821
 3943TIP3    H133244   1.265   1.045   0.428  0.5306 -2.6545  0.2349
 3943TIP3    H233245   1.293   1.104   0.292  1.0755  0.6176  1.7303
 3944TIP3   OH233246   6.172   0.242  16.977 -0.2943 -0.4934 -0.1126
 3944TIP3    H133247   6.115   0.245  17.054  0.0895 -0.5408  0.1755
 3944TIP3    H233248   6.259   0.227  17.013  0.3128  2.1961 -0.3245
 3945TIP3   OH233249   0.619   6.672  17.013  0.2792 -0.0594  0.7002
 3945TIP3    H133250   0.568   6.708  16.941  0.5481  0.9443  1.0050
 3945TIP3    H233251   0.585   6.583  17.025 -1.4707  0.6413  0.9892
 3946TIP3   OH233252   1.940   5.432  12.744 -0.5322  0.1792  0.3813
 3946TIP3    H133253   1.963   5.405  12.655 -0.1131  0.3493  0.4365
 3946TIP3    H233254   2.003   5.501  12.765  0.2944 -0.8577  1.3539
 3947TIP3   OH233255   0.344   5.604   1.304  0.1095  0.5943  0.7796
 3947TIP3    H133256   0.403   5.599   1.229  1.3259 -0.1411  1.7634
 3947TIP3    H233257   0.312   5.694   1.304  0.4698  0.7266 -0.3406
 3948TIP3   OH233258   5.418   4.128   1.310  0.2333  0.1748 -0.1411
 3948TIP3    H133259   5.499   4.153   1.265  0.6062 -1.5274 -0.4323
 3948TIP3    H233260   5.436   4.041   1.346 -1.1049  0.2349  0.7086
 3949TIP3   OH233261   5.878   1.312  13.384  0.2581  0.4485 -0.5228
 3949TIP3    H133262   5.886   1.347  13.295  0.1767  0.9224 -0.3426
 3949TIP3    H233263   5.939   1.238  13.386  0.9296  0.9973 -0.6898
 3950TIP3   OH233264   6.214   0.124   1.366 -0.2061  0.4833  0.1208
 3950TIP3    H133265   6.128   0.121   1.407 -0.8019 -0.9436 -1.2206
 3950TIP3    H233266   6.275   0.122   1.440 -1.2813 -0.2609  1.0041
 3951TIP3   OH233267   1.063   1.706   2.459  0.3169  0.8069  0.2129
 3951TIP3    H133268   0.988   1.647   2.473 -0.0033  0.7928 -1.4280
 3951TIP3    H233269   1.138   1.657   2.491  0.2467 -1.0907 -2.3833
 3952TIP3   OH233270   5.091   1.329   4.151  0.0473 -0.0895 -0.0284
 3952TIP3    H133271   5.098   1.423   4.166 -1.2493  0.3601 -2.1217
 3952TIP3    H233272   5.047   1.295   4.229  0.2838  1.0691  0.6151
 3953TIP3   OH233273   4.080   6.222  11.451 -0.3094 -0.5393 -0.1926
 3953TIP3    H133274   4.172   6.216  11.478 -0.3576 -0.0729  0.0817
 3953TIP3    H233275   4.079   6.190  11.361  0.2709  0.3266 -0.5151
 3954TIP3   OH233276   3.436   2.776   6.330 -0.2256  0.2152  0.3017
 3954TIP3    H133277   3.380   2.809   6.401 -1.1699 -0.9886  0.1239
 3954TIP3    H233278   3.393   2.696   6.300  0.4724  0.3995 -1.2526
 3955TIP3   OH233279   0.497   5.093  11.354  0.0041  0.5155 -0.0394
 3955TIP3    H133280   0.546   5.065  11.276  1.1233 -0.2927  0.9358
 3955TIP3    H233281   0.493   5.014  11.408  2.0289  1.8510  2.1613
 3956TIP3   OH233282   2.555   4.712   2.272  0.0958 -0.1250  0.0343
 3956TIP3    H133283   2.489   4.722   2.203 -0.9246  0.5919  1.0959
 3956TIP3    H233284   2.522   4.764   2.345  1.3646 -0.5443  0.9316
 3957TIP3   OH233285   2.252   6.711  13.036  0.2278 -0.0797 -0.3506
 3957TIP3    H133286   2.274   6.764  12.959  1.0104 -0.4536 -0.3876
 3957TIP3    H233287   2.314   6.638  13.033  0.8123  0.3425  1.0894
 3958TIP3   OH233288   4.332   6.396  11.518  0.4710  0.4520  0.0297
 3958TIP3    H133289   4.361   6.486  11.533  0.6016  0.8019 -2.2369
 3958TIP3    H233290   4.412   6.349  11.494  0.0199  0.2772 -1.1567
 3959TIP3   OH233291   4.550   3.599   3.299 -0.7508  0.5556  0.2648
 3959TIP3    H133292   4.581   3.519   3.343 -0.0070  0.7811  0.1621
 3959TIP3    H233293   4.620   3.663   3.315 -0.3222  0.5491 -1.5076
 3960TIP3   OH233294   3.289   1.615  13.133 -0.5413 -0.0905 -0.2958
 3960TIP3    H133295   3.360   1.589  13.192 -1.7222 -1.9168  0.3658
 3960TIP3    H233296   3.241   1.683  13.182 -0.4798 -0.3501  0.1262
 3961TIP3   OH233297   5.163   2.317   4.085  0.6195  0.4280  0.1308
 3961TIP3    H133298   5.211   2.313   4.168  0.0424  0.0782  0.4569
 3961TIP3    H233299   5.158   2.226   4.056  1.7289  0.6701 -0.8238
 3962TIP3   OH233300   4.792   2.466   1.237 -0.2160 -0.0009 -0.4282
 3962TIP3    H133301   4.776   2.378   1.203 -1.0209  0.2459 -0.6934
 3962TIP3    H233302   4.765   2.524   1.167  1.2035  0.4480 -0.6165
 3963TIP3   OH233303   0.550   0.557  15.961  0.1769  0.1875 -0.3333
 3963TIP3    H133304   0.517   0.473  15.928  1.1150 -1.3966  2.5654
 3963TIP3    H233305   0.474   0.597  16.003  0.3098 -0.4034  0.4972
 3964TIP3   OH233306   4.587   4.052  11.941 -0.1753  0.2232  0.0587
 3964TIP3    H133307   4.676   4.082  11.958 -0.1526 -0.0714  0.4539
 3964TIP3    H233308   4.576   4.061  11.846  0.2463  0.3350  0.0228
 3965TIP3   OH233309   4.253   3.694  14.807  0.6079 -0.3065  0.4487
 3965TIP3    H133310   4.346   3.708  14.822  0.8410 -1.9899  0.6703
 3965TIP3    H233311   4.249   3.651  14.721  0.0175 -0.0368  0.3366
 3966TIP3   OH233312   6.094   1.628   5.177 -0.1199 -0.4920  0.0288
 3966TIP3    H133313   6.162   1.676   5.128  0.1737 -1.1415 -0.2090
 3966TIP3    H233314   6.033   1.696   5.205  1.0388  0.2155  0.9235
 3967TIP3   OH233315   6.603   0.058  16.797  0.3669 -0.7821 -0.4180
 3967TIP3    H133316   6.522   0.021  16.831  0.1117 -0.2548 -0.4519
 3967TIP3    H233317   6.643   0.103  16.871 -0.5923  1.0704 -0.9890
 3968TIP3   OH233318   5.491   0.955  13.669  0.0074  0.0144 -0.3755
 3968TIP3    H133319   5.473   0.870  13.709  1.2063 -0.8918 -1.7255
 3968TIP3    H233320   5.579   0.978  13.700 -0.6927  1.2550  0.7785
 3969TIP3   OH233321   1.656   5.271  16.418 -0.4395 -0.6872 -0.2264
 3969TIP3    H133322   1.648   5.185  16.376  0.5313 -1.3003  0.8060
 3969TIP3    H233323   1.648   5.252  16.512  0.4836  0.2527  0.0509
 3970TIP3   OH233324   0.614   1.373   5.979  0.0524  0.2515  0.3878
 3970TIP3    H133325   0.528   1.347   6.011  0.3101  0.0318  0.9092
 3970TIP3    H233326   0.658   1.410   6.055  1.2231 -1.6536  0.6817
 3971TIP3   OH233327   1.538   5.647   0.790 -0.0535 -0.2927 -0.1736
 3971TIP3    H133328   1.516   5.574   0.848  0.3680 -0.6132 -0.4145
 3971TIP3    H233329   1.489   5.630   0.710 -0.3355 -0.0508 -0.0561
 3972TIP3   OH233330   4.980   2.494   1.464 -0.0512 -0.0181 -0.0877
 3972TIP3    H133331   4.943   2.482   1.376 -0.3906  1.6184 -0.1896
 3972TIP3    H233332   4.903   2.506   1.521  0.2245  1.9419 -0.0708
 3973TIP3   OH233333   6.652   1.667  16.803  0.0731 -0.0119 -0.4667
 3973TIP3    H133334   6.574   1.703  16.844  1.2730  1.3119  0.7009
 3973TIP3    H233335   6.650   1.701  16.714 -1.2208 -0.8511 -0.7762
 3974TIP3   OH233336   3.843   3.081  15.770  0.3047  0.4157 -0.6828
 3974TIP3    H133337   3.850   3.129  15.852  0.6060 -1.0946  0.1832
 3974TIP3    H233338   3.751   3.089  15.746 -0.0926 -0.3794  0.5635
 3975TIP3   OH233339   0.015   2.905   6.469 -0.3221  0.3477  0.3418
 3975TIP3    H133340   0.046   2.979   6.522  2.1453 -1.1697  1.0985
 3975TIP3    H233341   0.034   2.930   6.379 -0.5404  1.0899  0.4954
 3976TIP3   OH233342   2.900   4.310   0.142  0.1572  0.0592  0.1822
 3976TIP3    H133343   2.906   4.297   0.048 -1.8615 -1.1791  0.1855
 3976TIP3    H233344   2.957   4.243   0.179 -0.2146 -0.4527 -0.1487
 3977TIP3   OH233345   1.432   0.375  16.999  0.7258 -0.3916  0.0502
 3977TIP3    H133346   1.373   0.432  17.048  0.2687 -0.6226 -0.2172
 3977TIP3    H233347   1.380   0.296  16.982  1.5377 -1.1169  0.8998
 3978TIP3   OH233348   4.203   4.836  13.832 -0.2085  0.2982 -0.0309
 3978TIP3    H133349   4.142   4.899  13.793  0.2428  1.4616  1.1047
 3978TIP3    H233350   4.156   4.803  13.909  0.1793  0.4167  0.2562
 3979TIP3   OH233351   3.360   2.407  15.327  0.3382  0.0262  0.2117
 3979TIP3    H133352   3.307   2.487  15.322 -0.7433 -0.7529 -0.9456
 3979TIP3    H233353   3.450   2.439  15.336 -0.2088  1.3626  1.1034
 3980TIP3   OH233354   1.235   2.653   2.416 -0.0705  0.1094  0.3205
 3980TIP3    H133355   1.271   2.726   2.365 -1.3801  0.7289  0.2572
 3980TIP3    H233356   1.226   2.688   2.504 -0.6375 -0.0010  0.3073
 3981TIP3   OH233357   3.970   1.902   5.551 -0.6144 -0.3239 -0.1994
 3981TIP3    H133358   3.934   1.815   5.531 -0.6192 -0.3380 -0.1303
 3981TIP3    H233359   3.925   1.961   5.491  1.4887 -0.7674 -2.2671
 3982TIP3   OH233360   0.968   3.147  11.499  0.2815 -0.3294  0.1743
 3982TIP3    H133361   1.059   3.177  11.499 -0.5499  2.3449 -1.4683
 3982TIP3    H233362   0.923   3.208  11.557 -0.7114 -0.8738 -0.0108
 3983TIP3   OH233363   4.959   4.951  13.056 -0.0754  0.3918  0.2206
 3983TIP3    H133364   4.940   5.026  13.112 -0.5849 -0.4627  1.2078
 3983TIP3    H233365   4.876   4.904  13.050  0.4148 -0.4933  0.2133
 3984TIP3   OH233366   0.062   5.563   0.790 -0.2945  0.2086  0.0693
 3984TIP3    H133367   0.148   5.603   0.804 -0.1205 -0.5916  1.3322
 3984TIP3    H233368   0.079   5.469   0.795 -1.2549  0.0521  0.3433
 3985TIP3   OH233369   4.344   6.562  12.179 -0.9063 -0.3662  0.2967
 3985TIP3    H133370   4.259   6.575  12.220 -0.4718  0.6377  0.8698
 3985TIP3    H233371   4.408   6.581  12.247 -0.1905  0.7659 -0.6649
 3986TIP3   OH233372   5.614   6.513  15.905  0.3039  0.3239 -0.0357
 3986TIP3    H133373   5.620   6.453  15.831 -3.4761  1.7125 -1.6027
 3986TIP3    H233374   5.650   6.596  15.872 -0.5741  0.7056 -0.0486
 3987TIP3   OH233375   1.633   4.619   0.915 -0.3398  0.5358  0.7004
 3987TIP3    H133376   1.684   4.588   0.840  1.1200  2.1052  1.0054
 3987TIP3    H233377   1.640   4.549   0.979  0.9177  0.4532  0.4821
 3988TIP3   OH233378   1.664   2.327  14.106 -0.5321  0.2578 -0.4967
 3988TIP3    H133379   1.697   2.283  14.184  1.8068  1.0446 -1.0012
 3988TIP3    H233380   1.739   2.328  14.046 -2.3602 -0.5836 -2.8727
 3989TIP3   OH233381   2.739   2.910  13.887 -0.6528  0.7102 -0.9985
 3989TIP3    H133382   2.721   2.817  13.899 -1.1817  1.1585  2.4669
 3989TIP3    H233383   2.833   2.915  13.871 -0.5017 -0.3963 -0.5193
 3990TIP3   OH233384   0.509   2.956   5.526  0.0336 -0.4650  0.4016
 3990TIP3    H133385   0.541   3.017   5.460  1.6350 -1.3032  0.3844
 3990TIP3    H233386   0.426   2.923   5.491  0.9191 -0.9708 -1.2189
 3991TIP3   OH233387   5.929   0.602  11.756 -0.4685  0.5043 -0.1298
 3991TIP3    H133388   5.874   0.525  11.744 -0.3879  0.0916  1.9761
 3991TIP3    H233389   5.890   0.648  11.831  2.1118  0.1412  1.4897
 3992TIP3   OH233390   5.997   2.123  17.119  0.7558 -0.1150  0.4970
 3992TIP3    H133391   6.087   2.155  17.114  1.5355 -2.3791 -0.7775
 3992TIP3    H233392   5.943   2.202  17.109  2.5959  1.0753 -0.4171
 3993TIP3   OH233393   2.088   0.097  11.283  0.4829  0.1203  0.2828
 3993TIP3    H133394   2.053   0.186  11.291  0.7522  0.2826 -0.3256
 3993TIP3    H233395   2.011   0.041  11.280  0.3183  0.2957  1.0891
 3994TIP3   OH233396   5.207   6.459  14.343  0.0819  0.4859 -0.0658
 3994TIP3    H133397   5.191   6.422  14.430 -0.4565 -1.6638 -1.0503
 3994TIP3    H233398   5.287   6.510  14.353  0.5478 -0.5291  1.4655
 3995TIP3   OH233399   3.080   0.472   3.716 -0.5175  0.3479 -0.3457
 3995TIP3    H133400   3.112   0.387   3.688  0.5966  0.5273  0.3276
 3995TIP3    H233401   3.101   0.531   3.644 -1.0453  0.0998 -0.6998
 3996TIP3   OH233402   6.730   5.887  13.904  0.2195 -0.0982  0.4572
 3996TIP3    H133403   6.692   5.815  13.955  0.9320  0.0360  1.1801
 3996TIP3    H233404   6.664   5.956  13.906 -0.7098 -0.9188 -0.7016
 3997TIP3   OH233405   1.020   5.431   3.753 -0.0254 -0.2748 -0.7076
 3997TIP3    H133406   0.973   5.506   3.791  1.0379  0.6573 -1.1896
 3997TIP3    H233407   1.051   5.382   3.829  1.0628  0.9273 -0.3560
 3998TIP3   OH233408   4.768   5.697   1.781 -0.3093 -0.6023  0.5767
 3998TIP3    H133409   4.863   5.708   1.788 -0.5619  1.6444  0.7492
 3998TIP3    H233410   4.757   5.623   1.721  1.5462 -0.6464  0.2640
 3999TIP3   OH233411   4.216   5.094  16.367 -0.3284  0.1709  0.0275
 3999TIP3    H133412   4.283   5.121  16.430 -0.2670 -0.4806  0.2426
 3999TIP3    H233413   4.255   5.019  16.322 -0.9418 -0.2548  0.1993
 4000TIP3   OH233414   2.065   5.046  13.045 -0.0117  0.1650  0.7263
 4000TIP3    H133415   2.158   5.035  13.029 -0.1367  0.0365  0.0612
 4000TIP3    H233416   2.036   5.107  12.977 -0.2993  0.6614  1.2857
 4001TIP3   OH233417   4.588   5.710  14.127  0.7458  0.3908 -0.0031
 4001TIP3    H133418   4.588   5.777  14.195  1.6137 -1.0139  1.4022
 4001TIP3    H233419   4.669   5.726  14.078  0.2227  1.2716 -0.5980
 4002TIP3   OH233420   1.443   3.556   6.148 -0.1970  0.6920  0.1467
 4002TIP3    H133421   1.535   3.556   6.122 -0.7498  1.7995 -1.8907
 4002TIP3    H233422   1.417   3.464   6.145  0.5019  0.5103 -0.4744
 4003TIP3   OH233423   3.300   0.378   5.191  0.3244 -0.6187 -0.3178
 4003TIP3    H133424   3.247   0.353   5.267 -0.4980  0.1467 -0.6230
 4003TIP3    H233425   3.380   0.415   5.229 -0.1166 -0.1657  0.1897
 4004TIP3   OH233426   1.370   4.411   2.050 -0.0273  0.0172  0.0938
 4004TIP3    H133427   1.326   4.433   1.968 -0.6702 -0.1448  0.3896
 4004TIP3    H233428   1.462   4.432   2.035 -0.4362  1.8007 -0.0175
 4005TIP3   OH233429   3.912   3.677  16.417 -0.3010  0.0012 -0.1202
 4005TIP3    H133430   3.865   3.721  16.487 -0.2756  0.2260 -0.2415
 4005TIP3    H233431   3.971   3.616  16.462  0.6582  1.0833  0.0984
 4006TIP3   OH233432   3.170   1.565   3.817 -0.0082 -0.0648 -0.6152
 4006TIP3    H133433   3.110   1.540   3.887 -1.3918  0.7788 -1.4792
 4006TIP3    H233434   3.248   1.510   3.830 -0.6814 -0.6456  0.9436
 4007TIP3   OH233435   2.469   5.539   1.183 -0.4526  0.2048 -0.0927
 4007TIP3    H133436   2.502   5.450   1.190 -0.7358  0.0109 -1.1963
 4007TIP3    H233437   2.511   5.574   1.104  0.6842  1.4964  1.0438
 4008TIP3   OH233438   5.880   3.655   0.439  0.7198  0.4456  0.9520
 4008TIP3    H133439   5.805   3.597   0.457  0.8252  0.2458  0.7462
 4008TIP3    H233440   5.908   3.631   0.351  0.5096  1.0911  0.7100
 4009TIP3   OH233441   0.118   2.080  17.061 -0.1279 -0.0793  0.2371
 4009TIP3    H133442   0.114   2.061  16.967 -0.7000  0.0342  0.2378
 4009TIP3    H233443   0.212   2.084  17.080  0.0145  2.3156 -0.8119
 4010TIP3   OH233444   2.012   2.618   4.991 -0.4230  0.2253 -0.4366
 4010TIP3    H133445   1.959   2.558   5.044 -0.4635 -0.2344 -1.0018
 4010TIP3    H233446   2.066   2.665   5.055 -0.6022 -0.2044  0.0306
 4011TIP3   OH233447   4.843   2.962  16.915  0.0249  0.3911  0.6848
 4011TIP3    H133448   4.898   2.966  16.836 -0.3206  1.1113  0.4826
 4011TIP3    H233449   4.904   2.934  16.984  0.9311  2.3179  0.7061
 4012TIP3   OH233450   3.573   5.968  14.128 -0.3290  0.1383  0.0702
 4012TIP3    H133451   3.569   5.894  14.188 -3.0934 -0.1796 -0.4450
 4012TIP3    H233452   3.666   5.974  14.104 -0.0081 -3.0693  0.2263
 4013TIP3   OH233453   2.310   0.365   2.965  0.2875 -0.1493  0.3030
 4013TIP3    H133454   2.319   0.347   3.058 -0.0935  0.6118  0.4932
 4013TIP3    H233455   2.242   0.305   2.935  1.4083 -1.3778  0.2148
 4014TIP3   OH233456   5.087   3.421  14.225 -0.0621 -0.5816  0.1100
 4014TIP3    H133457   4.993   3.410  14.238  0.2027 -1.5820  1.3259
 4014TIP3    H233458   5.103   3.514  14.240 -0.9014 -0.3366 -0.4595
 4015TIP3   OH233459   1.485   6.387  11.701 -0.0104 -0.2180  0.2149
 4015TIP3    H133460   1.519   6.473  11.728  1.9609 -0.3170 -1.8432
 4015TIP3    H233461   1.551   6.325  11.732 -0.3561 -0.7978 -0.2148
 4016TIP3   OH233462   1.836   5.494  15.480  0.6771 -0.0438  0.5956
 4016TIP3    H133463   1.878   5.555  15.420  0.4265  0.0934  0.5582
 4016TIP3    H233464   1.871   5.517  15.566  1.3453 -0.5064  0.4504
 4017TIP3   OH233465   5.932   6.292   3.774 -0.6007  0.0891  0.3337
 4017TIP3    H133466   5.868   6.290   3.845 -1.8604 -0.7726 -0.7951
 4017TIP3    H233467   5.885   6.255   3.699  0.8446  0.5850 -0.8281
 4018TIP3   OH233468   4.918   4.010  14.620 -0.2388 -0.1867  0.1285
 4018TIP3    H133469   5.011   4.004  14.642 -0.2644  1.2131  0.7045
 4018TIP3    H233470   4.901   4.104  14.616 -1.5907 -0.4335 -0.1422
 4019TIP3   OH233471   3.946   5.103  10.677 -0.1092 -0.2425  1.0291
 4019TIP3    H133472   3.907   5.180  10.635 -0.2214  0.1865  1.8938
 4019TIP3    H233473   4.021   5.080  10.622 -1.6619 -1.1857 -0.7606
 4020TIP3   OH233474   2.542   5.865   3.720 -0.9830 -0.3837 -0.6256
 4020TIP3    H133475   2.521   5.778   3.755  0.0487 -0.1626  0.5588
 4020TIP3    H233476   2.588   5.909   3.791 -0.7760  0.8427 -1.5140
 4021TIP3   OH233477   2.216   4.421  12.601  0.0502 -0.1540 -0.0213
 4021TIP3    H133478   2.128   4.393  12.577 -0.2629  0.6680  0.1173
 4021TIP3    H233479   2.243   4.481  12.531  1.5059 -2.2818 -1.3531
 4022TIP3   OH233480   4.545   5.754   1.578 -0.0564 -0.6297  0.7128
 4022TIP3    H133481   4.584   5.667   1.587  0.7860 -0.4082 -0.6192
 4022TIP3    H233482   4.599   5.810   1.635  0.5404 -0.6396  0.1609
 4023TIP3   OH233483   3.417   3.666   5.025  0.0416 -0.6246 -0.4530
 4023TIP3    H133484   3.339   3.613   5.013  0.4346 -0.8477 -2.0839
 4023TIP3    H233485   3.479   3.608   5.070 -0.0761 -1.0517 -0.8400
 4024TIP3   OH233486   1.056   4.740  12.253 -0.4755  0.0034  0.3541
 4024TIP3    H133487   0.965   4.713  12.265 -1.2500  2.1151 -0.5190
 4024TIP3    H233488   1.095   4.670  12.200 -2.0599 -0.0864 -0.7338
 4025TIP3   OH233489   3.519   6.601   4.873  0.4036 -0.2575  0.0127
 4025TIP3    H133490   3.453   6.604   4.942  1.3098  1.9970  0.8322
 4025TIP3    H233491   3.590   6.549   4.911  0.6721  0.5151  0.5909
 4026TIP3   OH233492   6.538   5.815   4.362 -0.1067 -0.2964 -0.0190
 4026TIP3    H133493   6.480   5.887   4.336 -1.1926 -0.9495  0.5529
 4026TIP3    H233494   6.614   5.858   4.400 -1.1868  0.5464  1.2401
 4027TIP3   OH233495   5.210   6.118   1.985 -0.1450 -0.5887  0.4464
 4027TIP3    H133496   5.223   6.203   1.943 -0.3244 -0.9620 -0.3666
 4027TIP3    H233497   5.125   6.125   2.027 -0.5589 -0.6670 -0.3645
 4028TIP3   OH233498   1.146   5.276   3.971 -0.1563  0.0353  0.3787
 4028TIP3    H133499   1.212   5.209   3.987  0.1296  0.5124  1.2191
 4028TIP3    H233500   1.131   5.316   4.057 -1.8832 -0.3780  0.2876
 4029TIP3   OH233501   6.077   3.136  11.159  0.4350  0.1446  0.2761
 4029TIP3    H133502   6.166   3.172  11.160  0.0184  1.2498 -1.1429
 4029TIP3    H233503   6.086   3.050  11.117  1.3869 -1.3706  3.4207
 4030TIP3   OH233504   5.293   0.457  16.610 -0.4485 -0.3343  0.2911
 4030TIP3    H133505   5.277   0.455  16.515 -1.1100  0.9603  0.3637
 4030TIP3    H233506   5.321   0.546  16.628  0.1642 -0.7094  1.2512
 4031TIP3   OH233507   0.166   4.964  11.744  0.5142 -0.1075  0.0828
 4031TIP3    H133508   0.241   4.987  11.799  2.4666 -0.2757 -2.4079
 4031TIP3    H233509   0.181   4.873  11.720  0.3256  0.2945 -1.6414
 4032TIP3   OH233510   6.378   6.536  10.924  0.4917  0.4894 -0.3668
 4032TIP3    H133511   6.471   6.527  10.906  0.7676  0.9179  0.7848
 4032TIP3    H233512   6.374   6.598  10.998 -0.6434 -0.2271  0.1806
 4033TIP3   OH233513   6.075   4.130   4.214  0.3790  0.1695  0.0272
 4033TIP3    H133514   6.162   4.153   4.246 -0.5385 -0.5185  3.2471
 4033TIP3    H233515   6.023   4.209   4.229 -0.1551 -0.2960  0.7013
 4034TIP3   OH233516   5.946   5.320   1.894 -0.6182  0.3541 -0.0189
 4034TIP3    H133517   6.002   5.284   1.825  0.8482 -0.0411  1.3662
 4034TIP3    H233518   5.955   5.415   1.886 -1.7415  0.3753 -1.3978
 4035TIP3   OH233519   1.613   0.926   3.398 -0.6710 -0.4654 -0.8012
 4035TIP3    H133520   1.625   1.020   3.386 -0.3094 -0.5654 -1.2198
 4035TIP3    H233521   1.523   0.909   3.370 -0.5972 -0.3135 -1.1349
 4036TIP3   OH233522   1.782   3.432  12.195 -0.2647 -0.0022 -0.2876
 4036TIP3    H133523   1.742   3.437  12.282  0.1956  1.7367 -0.1516
 4036TIP3    H233524   1.842   3.358  12.201 -0.8851 -0.4501  0.5994
 4037TIP3   OH233525   6.552   0.489  11.576  0.4980  0.6987 -0.7036
 4037TIP3    H133526   6.547   0.584  11.563  0.3975  1.4768  3.9679
 4037TIP3    H233527   6.635   0.475  11.621  0.4024 -1.4196 -1.1458
 4038TIP3   OH233528   6.568   6.461  16.128 -0.2067 -0.2949  0.7153
 4038TIP3    H133529   6.542   6.544  16.090 -0.4205 -0.6514  0.0705
 4038TIP3    H233530   6.660   6.472  16.150 -0.1265 -0.0169  0.2538
 4039TIP3   OH233531   6.546   0.900  10.534  0.2555 -0.0360 -0.5413
 4039TIP3    H133532   6.625   0.880  10.485 -0.9140 -3.4005 -1.1808
 4039TIP3    H233533   6.562   0.865  10.622 -0.5506 -0.7870 -0.6920
 4040TIP3   OH233534   3.562   1.124   5.080  0.5526  0.2192 -0.4577
 4040TIP3    H133535   3.540   1.212   5.111  1.5359  0.1689  0.4145
 4040TIP3    H233536   3.497   1.067   5.122  2.2719  0.0691  2.0994
 4041TIP3   OH233537   4.607   1.929  16.254  0.9424 -0.0303  0.1309
 4041TIP3    H133538   4.540   1.980  16.299  0.1155 -1.6388  0.7683
 4041TIP3    H233539   4.605   1.843  16.297  2.3096 -0.6020 -0.8978
 4042TIP3   OH233540   5.127   4.607  14.985 -0.2237 -0.3929 -0.0331
 4042TIP3    H133541   5.103   4.700  14.978 -0.8476 -0.6126 -0.8740
 4042TIP3    H233542   5.043   4.561  14.991  0.0996 -0.8501  1.2382
 4043TIP3   OH233543   4.563   0.890  13.822 -0.4132  0.6902 -0.1598
 4043TIP3    H133544   4.655   0.866  13.815 -0.0859  1.1858  2.1896
 4043TIP3    H233545   4.525   0.822  13.879 -0.9832  1.7848  0.7853
 4044TIP3   OH233546   0.452   3.133  12.205  0.0243 -0.0470  0.1803
 4044TIP3    H133547   0.491   3.220  12.195 -0.6045  0.2499  0.2842
 4044TIP3    H233548   0.358   3.149  12.204 -0.1026 -0.8002 -0.4325
 4045TIP3   OH233549   2.364   5.143  13.658  0.6473  0.1216 -0.0232
 4045TIP3    H133550   2.339   5.057  13.625  1.2654  0.4295 -1.3426
 4045TIP3    H233551   2.371   5.132  13.753  1.5896 -1.4977 -0.2595
 4046TIP3   OH233552   0.328   5.434   2.442  0.2794  0.3227  0.0178
 4046TIP3    H133553   0.251   5.435   2.499  0.1365 -1.8975 -0.0691
 4046TIP3    H233554   0.388   5.372   2.483  0.5022 -0.7117 -1.7927
 4047TIP3   OH233555   4.280   3.972  12.422 -0.1996  0.3235  0.5956
 4047TIP3    H133556   4.333   3.963  12.343 -0.1571 -0.9923  0.7603
 4047TIP3    H233557   4.342   3.994  12.491 -0.2192  1.3457  0.3038
 4048TIP3   OH233558   3.964   5.645   2.975  0.1662 -0.3789 -0.2460
 4048TIP3    H133559   3.987   5.639   3.068  1.5152  3.9760 -0.1470
 4048TIP3    H233560   3.869   5.641   2.973  0.1108 -0.1507  1.3739
 4049TIP3   OH233561   1.959   5.525   2.107  0.4208  0.0178  0.0304
 4049TIP3    H133562   1.864   5.520   2.098  0.4914  1.7195 -1.8774
 4049TIP3    H233563   1.987   5.588   2.041  2.8223  0.0609  1.0232
 4050TIP3   OH233564   3.321   1.173  14.724 -0.9606  0.6503  0.2946
 4050TIP3    H133565   3.415   1.155  14.719 -1.4228 -1.6121 -0.6520
 4050TIP3    H233566   3.298   1.204  14.636 -1.0125  1.6662  0.6635
 4051TIP3   OH233567   5.799   5.230  13.678 -0.2494  0.2427 -0.0494
 4051TIP3    H133568   5.838   5.167  13.738 -1.7788 -0.0259  0.6926
 4051TIP3    H233569   5.861   5.303  13.676 -0.1327  0.2274  1.8248
 4052TIP3   OH233570   2.599   0.606  16.869 -0.0639  0.2083  0.4033
 4052TIP3    H133571   2.536   0.641  16.931 -0.1322 -0.9151  0.9792
 4052TIP3    H233572   2.641   0.533  16.916  1.2147  0.5560 -0.1823
 4053TIP3   OH233573   1.446   2.973  14.986 -0.5996  0.0237 -0.1733
 4053TIP3    H133574   1.514   2.934  15.041 -1.2914  0.6302  1.1282
 4053TIP3    H233575   1.484   2.973  14.898  0.9692  0.0847  0.4866
 4054TIP3   OH233576   3.451   2.082  11.850  0.1923  0.1653 -0.2770
 4054TIP3    H133577   3.449   2.046  11.939 -1.6071 -0.8200 -0.6915
 4054TIP3    H233578   3.526   2.038  11.809  0.1529 -0.4727  0.3041
 4055TIP3   OH233579   4.653   5.144  17.013 -0.7687  0.5908 -0.0417
 4055TIP3    H133580   4.641   5.236  17.033 -1.4514  0.6156 -0.5581
 4055TIP3    H233581   4.564   5.108  17.012 -0.3768 -0.6393  2.8570
 4056TIP3   OH233582   4.730   0.361   2.218 -0.1696 -0.0736  0.5017
 4056TIP3    H133583   4.809   0.307   2.223 -1.2278 -1.6458  0.6029
 4056TIP3    H233584   4.721   0.398   2.306  0.6637  0.4244  0.3818
 4057TIP3   OH233585   0.727   0.568  12.279 -0.1037  0.3267 -0.1692
 4057TIP3    H133586   0.687   0.517  12.350  0.0713  0.4534  0.0240
 4057TIP3    H233587   0.684   0.537  12.200  0.6934 -0.8442 -0.1746
 4058TIP3   OH233588   1.427   4.561   0.075  0.0308  0.3057  0.1202
 4058TIP3    H133589   1.412   4.616  -0.002 -2.7262  2.8272  2.2917
 4058TIP3    H233590   1.348   4.507   0.081  0.5961 -0.4584  0.7167
 4059TIP3   OH233591   1.487   4.860  15.786  1.0399  0.2382  0.4348
 4059TIP3    H133592   1.491   4.850  15.882  0.1864  1.3301  0.5971
 4059TIP3    H233593   1.530   4.944  15.770  1.7272 -0.2305 -0.2092
 4060TIP3   OH233594   4.285   5.356  14.934  0.2588  0.0822  0.3412
 4060TIP3    H133595   4.261   5.345  15.026 -0.2479  0.7967  0.2963
 4060TIP3    H233596   4.201   5.368  14.888  0.5451  0.2181 -0.1497
 4061TIP3   OH233597   5.769   5.398  14.099  0.5682  0.1750 -0.9088
 4061TIP3    H133598   5.694   5.453  14.078 -0.6895 -0.6600  1.1950
 4061TIP3    H233599   5.739   5.309  14.078  0.0413 -0.4344  2.2201
 4062TIP3   OH233600   3.717   6.140   5.653 -0.1009 -0.1237 -0.4926
 4062TIP3    H133601   3.660   6.125   5.728  2.1982  1.2546  1.6215
 4062TIP3    H233602   3.684   6.221   5.614 -1.0370 -0.6082 -0.7198
 4063TIP3   OH233603   3.813   2.214  15.677 -0.1378  0.0269 -0.1229
 4063TIP3    H133604   3.871   2.174  15.612 -0.9840  0.6192 -1.2770
 4063TIP3    H233605   3.870   2.272  15.727  0.7842 -1.4237  0.5354
 4064TIP3   OH233606   6.724   4.396   0.650  0.6789 -0.0672  0.0150
 4064TIP3    H133607   6.763   4.479   0.621 -0.8073  0.3088 -0.9421
 4064TIP3    H233608   6.691   4.355   0.570  1.6598 -1.7350  0.4462
 4065TIP3   OH233609   1.292   1.793  15.226  0.3612  0.5362  0.2514
 4065TIP3    H133610   1.280   1.870  15.281  2.3421  0.6608  0.5675
 4065TIP3    H233611   1.384   1.768  15.240  0.3202 -0.6454 -1.4162
 4066TIP3   OH233612   5.772   4.920  17.116 -0.0420 -0.0989 -0.2841
 4066TIP3    H133613   5.846   4.982  17.119  0.5277 -0.7840  0.0784
 4066TIP3    H233614   5.694   4.975  17.122  0.4350  0.6484 -0.9060
 4067TIP3   OH233615   5.879   3.702   6.216  0.0453  0.0789  0.6873
 4067TIP3    H133616   5.870   3.794   6.191 -0.7219 -0.2177 -0.1435
 4067TIP3    H233617   5.973   3.689   6.226  0.1938  0.8132  0.2879
 4068TIP3   OH233618   4.134   0.079   2.820 -0.0790 -0.9369 -0.0429
 4068TIP3    H133619   4.177   0.078   2.906  0.3214  2.0960 -0.1512
 4068TIP3    H233620   4.201   0.113   2.761 -1.1067 -0.7459 -1.1075
 4069TIP3   OH233621   0.230   0.574  13.161 -0.7807  0.4446 -0.0328
 4069TIP3    H133622   0.184   0.632  13.101 -0.4681 -0.5857 -1.2887
 4069TIP3    H233623   0.322   0.579  13.135 -0.4049  1.1351  1.3375
 4070TIP3   OH233624   2.273   5.251  16.601  0.2817 -0.3515 -0.2562
 4070TIP3    H133625   2.244   5.234  16.512  0.7299 -1.5133 -0.1969
 4070TIP3    H233626   2.197   5.288  16.645 -0.1811 -0.5157 -0.9154
 4071TIP3   OH233627   5.119   2.141   3.234  0.0408  0.2427  0.3741
 4071TIP3    H133628   5.147   2.060   3.191  1.5080  0.4539  0.9080
 4071TIP3    H233629   5.102   2.202   3.162 -0.4606 -0.3316 -0.0039
 4072TIP3   OH233630   3.027   0.282  15.797  0.0786 -0.1383 -0.1335
 4072TIP3    H133631   3.000   0.260  15.708  0.9504  0.8406 -0.6551
 4072TIP3    H233632   3.007   0.204  15.848 -1.8704 -0.1673 -0.8777
 4073TIP3   OH233633   1.137   3.046   0.116 -0.7791 -0.4726 -0.1674
 4073TIP3    H133634   1.093   3.097   0.047 -0.0952 -0.4413 -0.5790
 4073TIP3    H233635   1.217   3.014   0.075 -1.1683 -1.8316  0.1218
 4074TIP3   OH233636   3.370   1.378  14.925  0.1432  0.0934 -0.1891
 4074TIP3    H133637   3.460   1.409  14.918  0.2367  0.0669  0.7802
 4074TIP3    H233638   3.368   1.297  14.874  0.6082  0.2134 -0.3974
 4075TIP3   OH233639   2.394   4.362  15.674  0.2684 -0.3257 -0.3508
 4075TIP3    H133640   2.401   4.358  15.769  0.9697 -0.2331 -0.3965
 4075TIP3    H233641   2.338   4.288  15.651  3.0242 -2.5050 -0.1594
 4076TIP3   OH233642   1.298   5.735  14.298  0.1990 -0.1099  0.1487
 4076TIP3    H133643   1.380   5.694  14.273  1.4586  0.4178  3.1534
 4076TIP3    H233644   1.294   5.816  14.246  0.5208 -1.1517 -1.5335
 4077TIP3   OH233645   3.137   2.625  11.372 -0.2799 -0.2799 -0.2764
 4077TIP3    H133646   3.214   2.630  11.428 -0.7355  0.4643  0.3032
 4077TIP3    H233647   3.167   2.581  11.293  0.6690 -0.2402  0.0583
 4078TIP3   OH233648   5.157   1.814  12.764 -0.0307 -0.9519  0.1126
 4078TIP3    H133649   5.153   1.771  12.849 -1.3124 -1.2574 -0.0937
 4078TIP3    H233650   5.132   1.905  12.782  0.0953 -0.9177  0.1198
 4079TIP3   OH233651   1.242   1.482   1.013 -0.3162  0.7118 -0.4677
 4079TIP3    H133652   1.158   1.445   0.987 -0.3839  0.3717  0.2029
 4079TIP3    H233653   1.219   1.561   1.061 -0.2053  1.2158 -1.2541
 4080TIP3   OH233654   2.680   3.164   0.120  0.3850  0.0539 -0.0594
 4080TIP3    H133655   2.603   3.109   0.107  0.6818 -0.1194 -1.1837
 4080TIP3    H233656   2.739   3.140   0.048  1.2314  0.6148  0.4360
 4081TIP3   OH233657   4.076   2.644  12.356  0.3776 -0.0429  0.2300
 4081TIP3    H133658   4.167   2.669  12.372  0.1133  1.4660 -0.5494
 4081TIP3    H233659   4.057   2.679  12.269 -0.5719 -1.4239 -0.1302
 4082TIP3   OH233660   1.447   2.624   2.163 -0.2742  0.5887  0.8573
 4082TIP3    H133661   1.484   2.712   2.161  1.3351 -0.1055 -1.1941
 4082TIP3    H233662   1.399   2.616   2.081 -0.0239 -0.5825  0.8146
 4083TIP3   OH233663   0.099   5.951   0.775 -0.2206 -0.0387 -0.6882
 4083TIP3    H133664   0.143   5.919   0.854 -0.1739  1.0563 -0.2737
 4083TIP3    H233665   0.168   5.996   0.726 -0.8087  1.4501 -0.1660
 4084TIP3   OH233666   1.804   0.740   2.877  0.6892 -0.0789  0.2952
 4084TIP3    H133667   1.867   0.768   2.810  0.5789 -1.2155 -0.2855
 4084TIP3    H233668   1.809   0.809   2.944  2.7072 -0.2607  0.3606
 4085TIP3   OH233669   2.690   3.397  14.363 -0.1190  0.5466  0.3203
 4085TIP3    H133670   2.760   3.372  14.302 -0.5105  0.1659  0.0254
 4085TIP3    H233671   2.682   3.321  14.421 -0.5090  0.4595  0.1529
 4086TIP3   OH233672   1.682   3.125  11.249  0.3393  0.6345  0.2042
 4086TIP3    H133673   1.608   3.099  11.303  1.6840 -0.3029  1.6239
 4086TIP3    H233674   1.678   3.221  11.246  0.4590  0.7174  2.2680
 4087TIP3   OH233675   2.125   2.552   4.722  0.1228  0.3628 -0.3174
 4087TIP3    H133676   2.135   2.528   4.814 -2.8462 -1.1113 -0.3130
 4087TIP3    H233677   2.052   2.614   4.721 -0.1528  0.0345 -1.7394
 4088TIP3   OH233678   1.078   0.833  16.518 -0.2020 -0.0065 -0.0495
 4088TIP3    H133679   1.006   0.889  16.489  0.3713  0.9489  0.3365
 4088TIP3    H233680   1.036   0.750  16.542 -0.8672 -0.3481 -2.2498
 4089TIP3   OH233681   5.309   2.235  16.890 -0.0688  0.1692 -1.1052
 4089TIP3    H133682   5.311   2.194  16.804  1.7257  1.2805 -1.6211
 4089TIP3    H233683   5.271   2.322  16.873  1.2267  0.7740 -0.9709
 4090TIP3   OH233684   2.658   4.475  15.121  0.3975 -0.1836 -0.1880
 4090TIP3    H133685   2.696   4.556  15.153 -1.0243 -0.3410  1.9938
 4090TIP3    H233686   2.729   4.411  15.127  0.8187  0.3377  0.4133
 4091TIP3   OH233687   3.147   4.370   0.494  0.6221 -0.0460 -0.3762
 4091TIP3    H133688   3.157   4.349   0.587  0.0958  1.9330  0.1306
 4091TIP3    H233689   3.057   4.346   0.473  0.6091 -0.0848 -0.2763
 4092TIP3   OH233690   4.974   3.808  13.972  0.0912  0.2037 -0.6040
 4092TIP3    H133691   4.956   3.836  14.062 -2.2615  0.7160 -1.2139
 4092TIP3    H233692   5.069   3.797  13.969  0.1706  0.0230  1.9873
 4093TIP3   OH233693   0.795   1.892   1.690 -0.1615  0.2538 -0.3081
 4093TIP3    H133694   0.724   1.952   1.709  0.3952  0.9499 -0.4064
 4093TIP3    H233695   0.874   1.939   1.716  0.4204  0.2585 -1.9974
 4094TIP3   OH233696   5.202   3.190  12.334  0.0761 -0.0043 -0.3327
 4094TIP3    H133697   5.183   3.099  12.311 -0.2065 -0.1079  0.3001
 4094TIP3    H233698   5.118   3.226  12.361  0.1253  0.5426 -0.9123
 4095TIP3   OH233699   3.238   0.945   0.906 -0.1570  0.2056 -0.2973
 4095TIP3    H133700   3.145   0.949   0.882  0.0086  0.3922 -0.9236
 4095TIP3    H233701   3.272   0.870   0.856 -0.4206 -1.1572  1.5178
 4096TIP3   OH233702   2.540   4.612   3.459  0.0999  0.1367 -0.2834
 4096TIP3    H133703   2.624   4.586   3.420 -0.3311 -1.4718 -0.1710
 4096TIP3    H233704   2.547   4.585   3.550 -0.3254  0.5317 -0.1350
 4097TIP3   OH233705   1.337   0.693  14.612  0.3244  0.3933 -0.2323
 4097TIP3    H133706   1.328   0.600  14.634  1.3199 -0.1318 -1.9289
 4097TIP3    H233707   1.289   0.739  14.680 -2.0811 -1.4780 -0.6225
 4098TIP3   OH233708   5.554   5.418   5.733  0.1604  0.1569  0.9753
 4098TIP3    H133709   5.605   5.339   5.714  1.9733  1.4353  0.3580
 4098TIP3    H233710   5.462   5.389   5.730  0.6708 -1.2952 -2.2713
 4099TIP3   OH233711   2.730   6.314  15.227 -0.0686  0.3575 -0.5056
 4099TIP3    H133712   2.659   6.360  15.181  0.0113  1.7866  0.7453
 4099TIP3    H233713   2.687   6.275  15.303  0.1082 -0.5692 -0.8771
 4100TIP3   OH233714   4.128   6.031  11.968  0.1608  0.8275  0.1521
 4100TIP3    H133715   4.094   6.121  11.968  0.1120  0.8070 -0.0909
 4100TIP3    H233716   4.202   6.033  11.907 -0.5634  0.4212 -0.7321
 4101TIP3   OH233717   5.554   5.125   6.025  0.2765 -0.0513  0.6281
 4101TIP3    H133718   5.624   5.077   6.069  0.5307 -0.8571 -0.6447
 4101TIP3    H233719   5.474   5.077   6.047  0.5742 -1.3425 -0.9693
 4102TIP3   OH233720   0.761   2.879  16.049  0.0602  0.0940 -0.5542
 4102TIP3    H133721   0.789   2.826  15.974 -1.5840  0.4296 -1.4306
 4102TIP3    H233722   0.798   2.835  16.125  2.5246  0.2410 -1.6075
 4103TIP3   OH233723   2.647   2.443  17.148 -0.4456 -0.3601  0.0690
 4103TIP3    H133724   2.569   2.454  17.094 -0.9332  2.1774  1.2242
 4103TIP3    H233725   2.640   2.354  17.183 -2.0104 -0.6976 -1.0583
 4104TIP3   OH233726   4.594   2.202  16.126  0.0017  0.2967 -0.1186
 4104TIP3    H133727   4.631   2.117  16.101  0.0628  0.7247 -1.5176
 4104TIP3    H233728   4.656   2.267  16.091  0.1090  0.9161  1.2074
 4105TIP3   OH233729   0.772   1.350   1.253  0.2042 -0.0685  0.2491
 4105TIP3    H133730   0.807   1.261   1.249  0.6411  0.1257 -0.2720
 4105TIP3    H233731   0.750   1.373   1.163  0.1183  0.3616  0.3747
 4106TIP3   OH233732   3.000   4.092   0.996 -0.2829  0.2964  0.3651
 4106TIP3    H133733   3.076   4.055   0.952 -0.4456 -1.4955  1.5154
 4106TIP3    H233734   3.035   4.129   1.077 -0.6824 -1.1349  1.2245
 4107TIP3   OH233735   3.188   4.809   5.771  0.1203 -0.0403 -0.3189
 4107TIP3    H133736   3.096   4.795   5.746  0.3720  1.3833 -2.1840
 4107TIP3    H233737   3.238   4.788   5.692  1.1941  1.6080 -0.1156
 4108TIP3   OH233738   6.181   3.028   1.782 -0.1562  0.8702 -0.1229
 4108TIP3    H133739   6.097   3.042   1.739 -0.8591 -0.0734  0.9335
 4108TIP3    H233740   6.230   2.971   1.722 -0.8099  0.2647 -0.0863
 4109TIP3   OH233741   0.005   5.328  15.655  0.5189  0.7179  0.2605
 4109TIP3    H133742   0.099   5.325  15.638  0.5293  4.0677 -0.6577
 4109TIP3    H233743  -0.020   5.237  15.670  3.8569 -0.2527  0.3265
 4110TIP3   OH233744   5.049   0.226  16.543  0.5589  0.1017  0.1757
 4110TIP3    H133745   5.030   0.251  16.633 -1.4493  3.7369 -1.1558
 4110TIP3    H233746   5.144   0.238  16.535  0.5707  0.9626  1.4589
 4111TIP3   OH233747   6.103   4.609   4.987  0.0174 -0.0579  0.1303
 4111TIP3    H133748   6.082   4.566   4.904 -0.1903 -0.4675  0.3957
 4111TIP3    H233749   6.142   4.540   5.041  1.7702  0.6211 -0.2476
 4112TIP3   OH233750   5.215   5.361   0.282 -0.3400  0.5256  0.5799
 4112TIP3    H133751   5.121   5.346   0.268  0.0271 -0.5867 -0.7175
 4112TIP3    H233752   5.237   5.432   0.223  0.0032 -0.3759 -0.3778
 4113TIP3   OH233753   3.365   3.436   4.334 -0.3790 -0.0545  0.1109
 4113TIP3    H133754   3.363   3.508   4.271  1.2903 -1.1631 -1.2544
 4113TIP3    H233755   3.445   3.450   4.385 -0.3939 -0.5527  0.2821
 4114TIP3   OH233756   6.389   3.026   5.853  0.3195 -0.0175  0.6208
 4114TIP3    H133757   6.408   3.027   5.947  1.3863  1.8063  0.4119
 4114TIP3    H233758   6.472   3.001   5.812 -0.1758 -0.9226  0.1526
 4115TIP3   OH233759   5.924   5.792  15.489  0.3576 -0.0118 -0.0354
 4115TIP3    H133760   5.941   5.735  15.564  2.2682 -0.9151 -1.1266
 4115TIP3    H233761   5.842   5.836  15.511 -0.0753 -1.6345  1.7602
 4116TIP3   OH233762   1.054   2.668  12.977  0.2715  0.7090  0.0878
 4116TIP3    H133763   1.106   2.689  13.054 -0.6236  0.6059  0.7224
 4116TIP3    H233764   1.025   2.753  12.944  0.6465  0.7523 -0.1380
 4117TIP3   OH233765   0.030   0.413  12.656 -0.5510 -0.0019 -0.4014
 4117TIP3    H133766   0.003   0.371  12.575  0.3276 -1.4462  0.0381
 4117TIP3    H233767  -0.047   0.406  12.713 -0.3192 -1.2681 -0.2386
 4118TIP3   OH233768   4.737   1.218   1.129  0.1503  0.0185 -0.7022
 4118TIP3    H133769   4.784   1.221   1.212  1.0087  0.2921 -1.1921
 4118TIP3    H233770   4.790   1.271   1.070 -0.6478  0.1200 -1.3272
 4119TIP3   OH233771   3.626   6.219   1.450 -0.5869 -0.2166 -0.0190
 4119TIP3    H133772   3.673   6.229   1.367 -0.8111  0.3979 -0.0734
 4119TIP3    H233773   3.563   6.290   1.451 -0.5405 -0.1786  0.7127
 4120TIP3   OH233774   5.033   1.609  14.968  0.4599  0.0687 -0.2816
 4120TIP3    H133775   4.978   1.664  14.913 -2.5442 -1.8728  0.6944
 4120TIP3    H233776   5.044   1.659  15.049  0.7409  0.7609 -0.7391
 4121TIP3   OH233777   3.878   2.052  13.519  0.2002  0.6770  0.2566
 4121TIP3    H133778   3.860   2.093  13.604 -1.0553  0.3357  0.1727
 4121TIP3    H233779   3.873   1.958  13.537  1.8230  0.5748  0.1906
 4122TIP3   OH233780   4.984   1.842  13.153 -0.3829  0.1772  0.2443
 4122TIP3    H133781   5.065   1.803  13.121  0.3208  0.1716  1.9366
 4122TIP3    H233782   4.940   1.876  13.075  2.3498  2.2299 -0.4657
 4123TIP3   OH233783   6.313   5.292   4.042 -0.1297  0.1592 -0.7746
 4123TIP3    H133784   6.289   5.206   4.006 -0.3679 -0.0214 -0.1931
 4123TIP3    H233785   6.407   5.299   4.028  0.3388 -1.3055  1.5027
 4124TIP3   OH233786   0.692   4.451   5.344  0.4019 -0.1766 -0.2682
 4124TIP3    H133787   0.749   4.517   5.382 -0.5637  0.5977 -0.1481
 4124TIP3    H233788   0.634   4.499   5.285 -1.4733 -0.6181  1.1532
 4125TIP3   OH233789   3.496   4.529  13.214  0.3287  0.1898 -0.1489
 4125TIP3    H133790   3.467   4.449  13.258 -0.0417  0.3557 -0.0929
 4125TIP3    H233791   3.415   4.575  13.191  0.5260  0.2759 -0.6867
 4126TIP3   OH233792   5.522   3.168  15.827  0.1080 -0.3414 -0.3413
 4126TIP3    H133793   5.556   3.204  15.745  0.9336  0.7113  0.4542
 4126TIP3    H233794   5.428   3.161  15.812  0.2372 -0.0724 -1.3458
 4127TIP3   OH233795   0.486   5.810  12.453 -0.0638 -0.1328  0.0680
 4127TIP3    H133796   0.565   5.760  12.435  1.0961  1.8289 -0.4653
 4127TIP3    H233797   0.461   5.784  12.542  1.3104 -0.6056  0.3358
 4128TIP3   OH233798   5.652   0.022   4.954 -0.1958  0.0580 -0.2232
 4128TIP3    H133799   5.604   0.008   4.872 -0.8785  1.4675 -0.0768
 4128TIP3    H233800   5.620  -0.046   5.013 -0.5243 -0.2603 -0.7681
 4129TIP3   OH233801   2.997   1.098   3.434  0.7963  0.2695 -0.4259
 4129TIP3    H133802   2.933   1.169   3.444 -1.9097 -2.3162  1.5005
 4129TIP3    H233803   3.061   1.114   3.504 -0.1834  0.4605  0.4526
 4130TIP3   OH233804   2.002   1.668  11.478  0.4492  0.1973  0.2188
 4130TIP3    H133805   2.094   1.682  11.457  0.3767  0.2244 -0.0961
 4130TIP3    H233806   1.981   1.734  11.543  0.7733 -0.1099  0.6370
 4131TIP3   OH233807   4.496   1.550  15.661 -0.0966  0.0017  0.0117
 4131TIP3    H133808   4.480   1.644  15.666  0.5608  0.0925  0.4243
 4131TIP3    H233809   4.441   1.513  15.730  0.7928  0.2323  0.8567
 4132TIP3   OH233810   3.542   1.578  15.288  0.4172 -0.5962 -0.3881
 4132TIP3    H133811   3.615   1.578  15.225  1.9611  0.2767  1.3671
 4132TIP3    H233812   3.573   1.522  15.359 -0.9966 -0.9202 -0.0210
 4133TIP3   OH233813   4.805   2.729  12.151 -0.7624  0.4683 -0.1530
 4133TIP3    H133814   4.779   2.807  12.200  1.1565  1.7094 -1.0191
 4133TIP3    H233815   4.898   2.742  12.133  0.1084 -2.9728  1.3901
 4134TIP3   OH233816   0.663   0.664   2.811  0.4753 -0.2483 -1.1540
 4134TIP3    H133817   0.615   0.735   2.853  0.1959 -0.8660 -0.4145
 4134TIP3    H233818   0.595   0.605   2.779  0.7131 -1.2960  0.1891
 4135TIP3   OH233819   5.227   4.651   2.140  0.0514 -0.5367  0.4259
 4135TIP3    H133820   5.155   4.601   2.103  0.6670 -2.2947  1.5573
 4135TIP3    H233821   5.207   4.657   2.234  0.1992  0.9899  0.3859
 4136TIP3   OH233822   2.261   4.951  11.763 -0.3262 -0.2799 -0.4123
 4136TIP3    H133823   2.243   4.860  11.785  0.3256 -0.2215  0.3939
 4136TIP3    H233824   2.355   4.953  11.744 -0.0210  0.5306  1.1295
 4137TIP3   OH233825   2.659   0.216   0.053  0.8678  0.4877  0.4744
 4137TIP3    H133826   2.735   0.176   0.009  0.2866  0.0448 -0.1318
 4137TIP3    H233827   2.628   0.148   0.113 -0.9993 -0.5274 -1.5939
 4138TIP3   OH233828   4.086   1.368  13.439 -0.3667 -0.0179  0.2660
 4138TIP3    H133829   3.990   1.368  13.434 -0.2727 -0.9513 -2.0249
 4138TIP3    H233830   4.113   1.439  13.380  0.4565 -2.6428 -2.6236
 4139TIP3   OH233831   6.328   6.634  13.650  0.1986 -0.0192 -0.1061
 4139TIP3    H133832   6.388   6.595  13.586  0.3040 -1.6965  0.9622
 4139TIP3    H233833   6.353   6.726  13.654 -0.0266  0.1739 -2.6980
 4140TIP3   OH233834   1.694   3.732   3.371 -0.2445 -1.2591  0.2361
 4140TIP3    H133835   1.789   3.721   3.359 -0.0697  1.8779 -1.8119
 4140TIP3    H233836   1.655   3.667   3.313  0.6649 -0.6250 -1.1104
 4141TIP3   OH233837   3.150   5.286  12.452 -0.0808 -0.1075 -0.1271
 4141TIP3    H133838   3.162   5.236  12.371  0.2862 -1.3093  0.6592
 4141TIP3    H233839   3.231   5.272  12.501  1.1497  3.4707 -1.0603
 4142TIP3   OH233840   4.736   1.030   5.935 -0.0034 -0.4928  0.1562
 4142TIP3    H133841   4.733   1.101   5.871 -0.2805 -0.0798  0.6279
 4142TIP3    H233842   4.712   1.071   6.018 -1.0453 -1.3109  0.2724
 4143TIP3   OH233843   4.717   4.480   2.981 -0.4665  0.0866  0.1487
 4143TIP3    H133844   4.634   4.518   2.952 -1.9780 -1.4140  2.3454
 4143TIP3    H233845   4.748   4.539   3.049  0.4735  0.8259 -0.8997
 4144TIP3   OH233846   5.775   1.821  16.609 -0.0778 -0.1805 -0.4694
 4144TIP3    H133847   5.827   1.901  16.610 -0.8844  0.3503  0.0254
 4144TIP3    H233848   5.829   1.758  16.562  0.8646  0.4492 -0.2464
 4145TIP3   OH233849   1.847   6.569   0.758  0.8357  0.4819  0.6137
 4145TIP3    H133850   1.907   6.605   0.823 -1.2560  0.1206  2.8238
 4145TIP3    H233851   1.775   6.532   0.809 -0.7777 -0.0254 -1.9094
 4146TIP3   OH233852   1.534   6.511  11.458 -0.1287  0.0071 -0.0564
 4146TIP3    H133853   1.529   6.514  11.554  1.6743 -1.6906  0.1303
 4146TIP3    H233854   1.562   6.599  11.433  0.4422  0.1644  1.0705
 4147TIP3   OH233855   5.820   4.777   5.720  0.0678 -0.0947 -0.0568
 4147TIP3    H133856   5.785   4.851   5.770 -0.1675 -0.5459  0.4518
 4147TIP3    H233857   5.899   4.811   5.678 -0.6585  0.7788 -0.7524
 4148TIP3   OH233858   4.259   0.453   0.155 -0.3018 -0.2449  0.0082
 4148TIP3    H133859   4.278   0.448   0.249 -0.3981  0.4136  0.0716
 4148TIP3    H233860   4.164   0.438   0.149 -0.2159 -0.7773 -0.0346
 4149TIP3   OH233861   4.369   0.143  15.491 -0.7907 -0.5322 -0.5197
 4149TIP3    H133862   4.361   0.233  15.459  1.0222  0.1184  0.7178
 4149TIP3    H233863   4.359   0.151  15.586 -0.1055 -1.5546 -0.3530
 4150TIP3   OH233864   3.250   0.626   5.568 -0.0194 -0.2787  0.2925
 4150TIP3    H133865   3.232   0.543   5.614  1.7529 -1.7075 -1.5257
 4150TIP3    H233866   3.163   0.665   5.555 -1.0194 -2.4919  0.0092
 4151TIP3   OH233867   3.789   6.410   2.706  0.5336 -0.1851 -0.3722
 4151TIP3    H133868   3.731   6.448   2.771  0.5640 -1.0976  0.1885
 4151TIP3    H233869   3.746   6.329   2.679  0.5843  0.1165 -1.3896
 4152TIP3   OH233870   4.303   4.243   5.139  0.1221 -0.2919 -0.2811
 4152TIP3    H133871   4.385   4.199   5.117  0.4400 -0.7979  1.7852
 4152TIP3    H233872   4.234   4.185   5.105  0.5847 -1.0402  0.0512
 4153TIP3   OH233873   5.554   2.807   6.707  0.4508  0.5621 -0.2012
 4153TIP3    H133874   5.619   2.738   6.722  0.9980  1.2250  0.5979
 4153TIP3    H233875   5.597   2.867   6.646 -0.5156 -0.4452 -1.8942
 4154TIP3   OH233876   4.818   0.225  13.323  0.3111  0.4810  0.3230
 4154TIP3    H133877   4.729   0.261  13.320  0.7002  1.3510 -0.9567
 4154TIP3    H233878   4.816   0.152  13.261  0.4204  0.2997  0.5287
 4155TIP3   OH233879   0.221   5.889   1.007  0.3614  0.4404 -0.3605
 4155TIP3    H133880   0.309   5.866   0.975  0.2414  1.3086 -1.3530
 4155TIP3    H233881   0.228   5.884   1.102  0.8501 -1.7708 -0.4875
 4156TIP3   OH233882   1.280   6.004  16.601  0.1269  0.0866  0.4975
 4156TIP3    H133883   1.363   6.050  16.604  0.6308 -0.8525  1.2051
 4156TIP3    H233884   1.303   5.914  16.576 -0.6538 -0.2080  0.8148
 4157TIP3   OH233885   4.330   4.634  11.559 -0.1602  0.6076  0.1783
 4157TIP3    H133886   4.301   4.725  11.566 -1.8647 -0.1029  3.0055
 4157TIP3    H233887   4.337   4.604  11.649  0.3854 -2.0947 -0.7169
 4158TIP3   OH233888   2.597   3.267   2.335 -1.1090  0.3297  0.2031
 4158TIP3    H133889   2.597   3.241   2.243 -1.4542  0.1561  0.2515
 4158TIP3    H233890   2.520   3.322   2.344 -2.9742 -2.3172  1.1289
 4159TIP3   OH233891   0.385   5.110  16.519 -0.2477 -0.3115 -0.8570
 4159TIP3    H133892   0.408   5.202  16.529 -1.5713 -0.0968  0.2755
 4159TIP3    H233893   0.293   5.105  16.543  0.2572 -2.2158  0.8110
 4160TIP3   OH233894   5.185   1.706  13.026 -0.2515  0.0482  0.4891
 4160TIP3    H133895   5.270   1.747  13.016 -1.0609  1.1110 -2.6402
 4160TIP3    H233896   5.203   1.625  13.074  2.5839 -0.0117 -0.5820
 4161TIP3   OH233897   6.287   5.139   2.756 -0.2289  0.0588  0.3087
 4161TIP3    H133898   6.263   5.112   2.844  1.7338  1.6078  1.3455
 4161TIP3    H233899   6.227   5.090   2.699 -3.3050  1.0342  2.5857
 4162TIP3   OH233900   3.133   2.952   0.834 -0.3535  0.0029 -0.7655
 4162TIP3    H133901   3.091   3.012   0.897  1.0666 -0.1006  0.3056
 4162TIP3    H233902   3.200   2.907   0.885  0.3713 -0.5835 -2.2027
 4163TIP3   OH233903   2.875   5.384  16.303 -0.2306 -0.0802  0.5422
 4163TIP3    H133904   2.913   5.410  16.387  0.0857  0.4580  0.2369
 4163TIP3    H233905   2.907   5.295  16.289  0.3201  0.0977  0.6438
 4164TIP3   OH233906   6.762   4.084  14.376  0.4810  0.1130 -0.3988
 4164TIP3    H133907   6.697   4.128  14.430  0.5086 -0.8119  0.3935
 4164TIP3    H233908   6.830   4.056  14.438  1.5231  0.8669 -1.1850
 4165TIP3   OH233909   3.630   6.687   1.251 -0.6741 -0.3116 -0.6624
 4165TIP3    H133910   3.558   6.708   1.311 -0.4094  1.1167 -0.8270
 4165TIP3    H233911   3.708   6.682   1.307 -0.6293 -0.1852 -0.7128
 4166TIP3   OH233912   1.821   0.633   0.944 -0.0374  0.3028 -0.1234
 4166TIP3    H133913   1.838   0.584   0.863  1.4604 -1.3706  1.1618
 4166TIP3    H233914   1.801   0.565   1.009 -1.9833  1.6757  0.7535
 4167TIP3   OH233915   2.139   2.692  16.484  0.4803  0.5716 -0.5528
 4167TIP3    H133916   2.046   2.690  16.458  0.1109  2.1697  0.5614
 4167TIP3    H233917   2.138   2.666  16.576  0.9713  1.9927 -0.1395
 4168TIP3   OH233918   1.853   4.675  12.613  0.2262 -0.3570  0.3303
 4168TIP3    H133919   1.925   4.669  12.551  0.7162  0.5943  0.7996
 4168TIP3    H233920   1.872   4.753  12.665 -0.7086 -0.5665  1.0035
 4169TIP3   OH233921   4.889   3.410   2.974  0.0082  0.1805  0.1387
 4169TIP3    H133922   4.963   3.427   2.916 -1.1790 -0.1162 -1.5007
 4169TIP3    H233923   4.918   3.442   3.059  2.6702 -1.5072 -0.0675
 4170TIP3   OH233924   2.079   0.306  13.829  0.9764  0.1955 -0.0704
 4170TIP3    H133925   2.119   0.343  13.907  1.2470 -0.3238  0.0393
 4170TIP3    H233926   2.069   0.213  13.849  3.1191 -0.3701 -1.5244
 4171TIP3   OH233927   4.212   5.656  14.789  0.3324 -0.1346  0.1615
 4171TIP3    H133928   4.306   5.637  14.787  0.4995  0.7745 -1.2334
 4171TIP3    H233929   4.206   5.746  14.758 -1.1138 -0.5771 -0.8539
 4172TIP3   OH233930   4.617   0.129   4.689  0.4383  0.2007  0.0480
 4172TIP3    H133931   4.616   0.066   4.762  0.4678 -1.0467 -1.0055
 4172TIP3    H233932   4.653   0.209   4.727  0.0382 -0.2933  1.5215
 4173TIP3   OH233933   2.329   3.174  15.724  0.0935 -0.1132 -0.2681
 4173TIP3    H133934   2.324   3.217  15.809  1.1661 -0.5570  0.0188
 4173TIP3    H233935   2.254   3.115  15.722  0.4263 -0.5685  0.6224
 4174TIP3   OH233936   3.685   0.701  12.448  0.4275 -0.2402  0.6303
 4174TIP3    H133937   3.698   0.648  12.370 -2.3566 -0.5259  0.3077
 4174TIP3    H233938   3.720   0.648  12.520  1.0445 -0.8919 -0.1461
 4175TIP3   OH233939   2.859   0.742  10.498 -0.1382 -0.1883 -0.6720
 4175TIP3    H133940   2.872   0.698  10.415  0.9688 -1.0641 -0.0366
 4175TIP3    H233941   2.900   0.685  10.563  1.9809  2.1261  0.0759
 4176TIP3   OH233942   3.871   5.849  16.745  0.0294 -0.2960  0.0101
 4176TIP3    H133943   3.956   5.885  16.768 -0.1382 -0.6755  1.2754
 4176TIP3    H233944   3.809   5.895  16.802 -0.4700 -0.8608 -0.0656
 4177TIP3   OH233945   6.466   5.680  13.577 -0.4780  0.1834 -0.0811
 4177TIP3    H133946   6.492   5.629  13.501  1.0934 -0.0090  0.5699
 4177TIP3    H233947   6.546   5.723  13.606 -1.3468  1.3506  0.6474
 4178TIP3   OH233948   0.475   2.525  13.943  0.3560 -0.1512 -0.1371
 4178TIP3    H133949   0.450   2.507  14.034 -0.9787  0.1386 -0.4355
 4178TIP3    H233950   0.570   2.532  13.945  0.3610 -0.4900  1.1826
 4179TIP3   OH233951   2.144   5.073   3.323 -0.7776  0.0748  0.6944
 4179TIP3    H133952   2.048   5.073   3.329 -0.8448 -0.9707 -0.1898
 4179TIP3    H233953   2.169   4.984   3.348 -0.0941  0.0962  0.0804
 4180TIP3   OH233954   1.771   4.894   0.977  0.4463 -0.0125  0.1276
 4180TIP3    H133955   1.758   4.801   0.959  2.5223 -0.7010  1.9984
 4180TIP3    H233956   1.840   4.920   0.916  0.7214  0.0100  0.4514
 4181TIP3   OH233957   2.150   5.333   0.644  0.0446  0.7887  0.4080
 4181TIP3    H133958   2.081   5.378   0.693  1.1030  1.1577  1.5834
 4181TIP3    H233959   2.222   5.322   0.707  0.5015 -0.9247 -0.3816
 4182TIP3   OH233960   0.423   4.961  11.955  0.4767 -0.2845 -0.3538
 4182TIP3    H133961   0.486   4.895  11.983  0.5176 -0.4453 -0.8277
 4182TIP3    H233962   0.355   4.959  12.023  1.8757  1.1688  1.1314
 4183TIP3   OH233963   0.063   2.261   2.735  0.0632 -0.4724  0.3673
 4183TIP3    H133964   0.081   2.340   2.684  1.4279  0.2790  1.9585
 4183TIP3    H233965   0.087   2.189   2.677  2.3028  0.3817  0.1558
 4184TIP3   OH233966   2.463   3.072  10.636 -0.8259 -0.5921  0.2897
 4184TIP3    H133967   2.507   3.084  10.720 -0.3199 -1.4094  0.1426
 4184TIP3    H233968   2.422   3.156  10.618 -0.8206 -0.3728  1.2925
 4185TIP3   OH233969   4.628   1.435  13.709 -0.2217  0.0042 -0.1928
 4185TIP3    H133970   4.600   1.359  13.659  0.3735 -1.2278  1.3159
 4185TIP3    H233971   4.698   1.474  13.656 -0.2521 -0.7256 -0.7774
 4186TIP3   OH233972   5.156   4.927   3.035  0.0227  0.0488 -0.2436
 4186TIP3    H133973   5.218   4.921   3.107  1.3387 -0.9473 -1.4201
 4186TIP3    H233974   5.122   5.017   3.039  0.0058 -0.0399  1.6458
 4187TIP3   OH233975   4.065   1.635   2.390 -0.0163 -0.3891 -0.0378
 4187TIP3    H133976   3.984   1.589   2.369 -0.8902  0.6184  1.1011
 4187TIP3    H233977   4.079   1.694   2.315  0.0180 -1.0404 -0.5415
 4188TIP3   OH233978   3.101   4.697   0.212 -0.2422 -0.5709  0.3414
 4188TIP3    H133979   3.135   4.770   0.263  1.1775 -1.0137  0.0340
 4188TIP3    H233980   3.046   4.649   0.273  0.0618 -0.1253  0.9713
 4189TIP3   OH233981   4.443   0.783  10.761 -0.2171  0.5512  0.2503
 4189TIP3    H133982   4.483   0.868  10.738 -0.9542  0.6927 -0.5429
 4189TIP3    H233983   4.469   0.726  10.689  0.2171  0.1129  0.7521
 4190TIP3   OH233984   6.460   2.519  15.505  0.3533  0.6871  0.2129
 4190TIP3    H133985   6.513   2.472  15.569 -1.0441 -1.8818 -0.4339
 4190TIP3    H233986   6.509   2.512  15.423 -0.2275 -0.3704 -0.0538
 4191TIP3   OH233987   6.477   6.194   0.973 -0.0330 -0.6152 -0.2546
 4191TIP3    H133988   6.486   6.179   1.067  0.3041 -1.7072 -0.4553
 4191TIP3    H233989   6.567   6.201   0.941 -0.1491  2.6154 -0.0745
 4192TIP3   OH233990   4.331   2.690   3.117  0.0186  0.2806  0.4707
 4192TIP3    H133991   4.367   2.751   3.182 -1.5273 -0.5252  2.1087
 4192TIP3    H233992   4.267   2.639   3.165 -1.7557  0.2096 -1.8981
 4193TIP3   OH233993   4.178   1.764   0.466 -0.0992 -0.0880 -0.2662
 4193TIP3    H133994   4.183   1.703   0.539 -0.1390 -0.3874 -0.5109
 4193TIP3    H233995   4.095   1.809   0.478  0.4391  0.7086  0.5323
 4194TIP3   OH233996   1.009   6.448  11.835  0.2322  0.6063 -0.6085
 4194TIP3    H133997   0.989   6.393  11.911  0.5754  0.9584 -0.2691
 4194TIP3    H233998   0.943   6.422  11.770  1.3291 -1.3187 -1.0058
 4195TIP3   OH233999   4.818   3.082   1.081 -0.0730  0.0490  0.0344
 4195TIP3    H134000   4.865   3.001   1.100 -0.9477 -0.7259 -1.0677
 4195TIP3    H234001   4.848   3.143   1.149  1.0223 -1.0104  0.5313
 4196TIP3   OH234002   4.655   4.369  13.740  0.3174  0.4962  0.0062
 4196TIP3    H134003   4.620   4.423  13.670  0.1197 -0.3669 -0.5636
 4196TIP3    H234004   4.651   4.426  13.818 -0.3156  1.1412 -0.4851
 4197TIP3   OH234005   5.692   1.554  11.747  0.3266  0.0769  0.3190
 4197TIP3    H134006   5.608   1.572  11.705  0.0177  1.3792  1.4521
 4197TIP3    H234007   5.683   1.592  11.834  2.8384  2.0927 -0.2544
 4198TIP3   OH234008   3.272   4.011  12.636  0.2858 -0.1884  0.1367
 4198TIP3    H134009   3.177   4.014  12.625  0.3155 -1.3739 -0.4940
 4198TIP3    H234010   3.298   4.103  12.642 -0.5836  0.2698 -2.4197
 4199TIP3   OH234011   4.071   4.652  12.361  0.1628  0.4959  0.7085
 4199TIP3    H134012   3.982   4.619  12.349  0.4452 -0.6285  1.6476
 4199TIP3    H234013   4.115   4.631  12.278 -0.3920  0.9231  0.2979
 4200TIP3   OH234014   4.482   1.571   2.140  0.3943  0.2573 -0.4477
 4200TIP3    H134015   4.416   1.510   2.108  0.2067  0.7054 -0.9226
 4200TIP3    H234016   4.454   1.592   2.229 -0.5705  1.1012 -0.9428
 4201TIP3   OH234017   1.852   3.563  13.605 -0.0736  0.2128 -0.1444
 4201TIP3    H134018   1.784   3.547  13.540  0.5037  3.0254 -1.5331
 4201TIP3    H234019   1.829   3.649  13.642  1.2442 -0.0144  1.2516
 4202TIP3   OH234020   3.937   0.652   3.860 -0.1661  0.1823 -0.7874
 4202TIP3    H134021   3.972   0.731   3.900  0.0334  0.3687 -1.3231
 4202TIP3    H234022   3.977   0.580   3.909 -0.6487  0.4171 -0.0465
 4203TIP3   OH234023   0.764   4.244  11.434 -0.2639  0.4252  0.1312
 4203TIP3    H134024   0.787   4.154  11.456 -0.6390 -0.0226 -1.2652
 4203TIP3    H234025   0.778   4.250  11.339 -1.5134  1.4491 -0.0044
 4204TIP3   OH234026   4.443   0.193  16.018  0.2052  0.0906 -0.0837
 4204TIP3    H134027   4.372   0.136  15.988  0.0797  0.3572 -0.3068
 4204TIP3    H234028   4.518   0.135  16.027  0.2106 -0.0236 -0.8059
 4205TIP3   OH234029   6.233   4.346   2.303  0.0025  0.0757 -0.5085
 4205TIP3    H134030   6.250   4.439   2.320 -0.8618 -0.0832  1.3938
 4205TIP3    H234031   6.293   4.299   2.361  1.1311 -0.5807 -2.1845
 4206TIP3   OH234032   4.037   2.110   6.911  0.0140 -0.5682  0.1583
 4206TIP3    H134033   4.106   2.096   6.975  0.6193  0.2906 -0.2866
 4206TIP3    H234034   4.032   2.205   6.902 -0.7015 -0.6519 -0.3786
 4207TIP3   OH234035   3.154   0.545   0.736 -0.2190 -0.6336 -0.0918
 4207TIP3    H134036   3.162   0.541   0.832  1.4147  0.2362 -0.1656
 4207TIP3    H234037   3.209   0.620   0.711  2.2381 -3.0017 -2.0282
 4208TIP3   OH234038   3.431   5.101  16.887 -0.2149 -0.2566 -0.0522
 4208TIP3    H134039   3.372   5.034  16.922 -0.1771  0.2459  0.9938
 4208TIP3    H234040   3.518   5.072  16.913  0.1179 -1.4336 -2.3093
 4209TIP3   OH234041   4.750   4.475  14.600  0.2493 -0.1891 -0.6862
 4209TIP3    H134042   4.717   4.385  14.607  0.2214 -0.2445 -1.4776
 4209TIP3    H234043   4.671   4.529  14.601  0.2298 -0.2141 -0.7835
 4210TIP3   OH234044   2.135   2.504   0.530 -0.5742 -0.6048 -0.5500
 4210TIP3    H134045   2.041   2.514   0.539 -0.5289  0.9465 -1.4488
 4210TIP3    H234046   2.161   2.576   0.471  0.9111 -2.0272 -1.6866
 4211TIP3   OH234047   0.317   4.343   1.188  0.6577 -0.0456  0.4111
 4211TIP3    H134048   0.308   4.335   1.093  2.3048  1.6364  0.0618
 4211TIP3    H234049   0.322   4.253   1.219 -1.8866 -0.6696 -0.8527
 4212TIP3   OH234050   0.808   4.878  13.048  0.0528  0.3103  0.0164
 4212TIP3    H134051   0.740   4.854  12.985  0.6269 -0.0470 -0.4704
 4212TIP3    H234052   0.814   4.974  13.041 -0.2542  0.3218 -0.0835
 4213TIP3   OH234053   1.587   1.359   2.069 -0.2393  0.4556 -0.4463
 4213TIP3    H134054   1.631   1.283   2.030  0.0668  0.5433 -0.2737
 4213TIP3    H234055   1.642   1.383   2.144  0.0530  1.2820 -0.9205
 4214TIP3   OH234056   0.805   4.730  12.511  0.2006 -0.4706  0.3586
 4214TIP3    H134057   0.856   4.733  12.592 -0.4293  2.8422  0.7142
 4214TIP3    H234058   0.788   4.637  12.496  3.9073 -1.4358  1.7294
 4215TIP3   OH234059   0.067   4.539   1.932 -0.2391 -0.2170 -0.1123
 4215TIP3    H134060   0.067   4.504   1.843 -0.7359 -0.4122 -0.0374
 4215TIP3    H234061   0.081   4.633   1.920 -0.1616 -0.2606 -0.3864
 4216TIP3   OH234062   6.720   4.494  12.659 -0.5628 -0.0307 -0.2335
 4216TIP3    H134063   6.731   4.450  12.575 -1.0892 -0.0321 -0.2996
 4216TIP3    H234064   6.642   4.455  12.698 -0.2080 -0.1761  0.3504
 4217TIP3   OH234065   3.280   0.678   2.748 -0.2370  0.6257 -0.4068
 4217TIP3    H134066   3.294   0.592   2.708  1.3534  0.2073  0.9559
 4217TIP3    H234067   3.322   0.740   2.689  0.4933  0.2155 -0.3256
 4218TIP3   OH234068   4.039   5.273   2.062  0.1671 -0.1661 -0.2571
 4218TIP3    H134069   4.005   5.337   2.000  0.7724  1.9860  1.5936
 4218TIP3    H234070   3.961   5.229   2.096 -0.4543  1.4608  0.4605
 4219TIP3   OH234071   6.304   3.685  16.332 -0.0984  0.0854  0.1268
 4219TIP3    H134072   6.339   3.696  16.244 -1.3078  0.2505 -0.3481
 4219TIP3    H234073   6.338   3.761  16.381  0.9687 -0.2669 -0.0534
 4220TIP3   OH234074   6.257   6.512  14.991 -0.2726  0.3553  0.0877
 4220TIP3    H134075   6.181   6.570  14.990 -0.1033  0.6290  1.5175
 4220TIP3    H234076   6.316   6.550  14.925 -0.6163  1.1857  0.2449
 4221TIP3   OH234077   0.966   1.202  13.286  0.1099 -0.4181  0.6300
 4221TIP3    H134078   1.051   1.242  13.267 -0.0998  0.4212  1.3692
 4221TIP3    H234079   0.924   1.191  13.201 -0.1140  1.6447  0.4482
 4222TIP3   OH234080   0.127   1.457   6.177 -0.1563 -0.3761  1.0142
 4222TIP3    H134081   0.059   1.516   6.206 -0.0427  0.1452  0.2361
 4222TIP3    H234082   0.201   1.474   6.235 -0.0583  0.3859  0.6664
 4223TIP3   OH234083   1.112   6.600  13.217  0.1442 -0.0502  0.3601
 4223TIP3    H134084   1.080   6.596  13.127  0.0792  0.6124  0.3468
 4223TIP3    H234085   1.076   6.522  13.260  0.1488 -0.3475 -0.1768
 4224TIP3   OH234086   3.636   3.758  11.165 -0.5659 -0.5143  0.3493
 4224TIP3    H134087   3.669   3.828  11.109  0.2611 -0.1434  1.2991
 4224TIP3    H234088   3.554   3.731  11.123 -0.4352  0.4041 -0.5153
 4225TIP3   OH234089   0.798   2.671   4.211  0.1547  0.0133 -0.2644
 4225TIP3    H134090   0.850   2.682   4.290  0.0157 -1.3514  0.0294
 4225TIP3    H234091   0.762   2.758   4.194  1.9666  0.8334 -0.0901
 4226TIP3   OH234092   4.479   6.603   4.704 -0.2424  0.4814 -0.4718
 4226TIP3    H134093   4.406   6.663   4.717  0.2217  0.9586 -0.0195
 4226TIP3    H234094   4.445   6.536   4.645 -1.1732  0.4572  0.0895
 4227TIP3   OH234095   1.259   6.368   1.918  0.5846 -0.8531 -0.1040
 4227TIP3    H134096   1.237   6.277   1.937 -0.3070 -0.2178  2.0458
 4227TIP3    H234097   1.222   6.384   1.832  0.9980 -2.5888 -0.6316
 4228TIP3   OH234098   0.183   5.317   1.255  0.4947 -0.8183  0.1698
 4228TIP3    H134099   0.252   5.352   1.199 -0.2768 -0.9313 -0.8609
 4228TIP3    H234100   0.177   5.224   1.231 -0.8448 -0.5432 -0.6332
 4229TIP3   OH234101   0.256   3.363   5.427 -0.3258  0.4199 -0.5690
 4229TIP3    H134102   0.293   3.338   5.511  0.0593  1.3459 -0.4587
 4229TIP3    H234103   0.187   3.298   5.411 -0.5734  0.3949  0.5727
 4230TIP3   OH234104   5.595   5.733  15.019  0.5728 -0.1061  0.4504
 4230TIP3    H134105   5.678   5.733  14.971  0.5270  1.0148  0.3494
 4230TIP3    H234106   5.531   5.700  14.957  0.2714  2.5339 -0.7393
 4231TIP3   OH234107   2.138   1.799   2.771 -0.3918  0.4180  0.0450
 4231TIP3    H134108   2.184   1.791   2.688 -2.7968  0.4793 -1.3339
 4231TIP3    H234109   2.098   1.886   2.769 -0.9395  0.2012  0.9934
 4232TIP3   OH234110   4.611   5.760  12.465  0.1561  0.1097 -0.0766
 4232TIP3    H134111   4.570   5.778  12.381 -0.2773  0.2119  0.1575
 4232TIP3    H234112   4.645   5.671  12.457  0.3863  0.2324 -0.4663
 4233TIP3   OH234113   1.420   4.050   2.258  0.3044 -0.1770 -0.2284
 4233TIP3    H134114   1.496   4.108   2.253  1.2527 -1.3395  0.4756
 4233TIP3    H234115   1.363   4.080   2.188  1.6271  0.4058 -1.0806
 4234TIP3   OH234116   1.345   1.727   6.420  0.0724 -0.2704 -0.3069
 4234TIP3    H134117   1.275   1.793   6.420 -0.6141 -0.9908  0.5142
 4234TIP3    H234118   1.411   1.763   6.362 -0.1583  1.3124  0.3733
 4235TIP3   OH234119   3.840   1.216   0.437  0.2111  0.8748 -0.0255
 4235TIP3    H134120   3.804   1.276   0.371 -0.8210 -0.0347 -0.2889
 4235TIP3    H234121   3.933   1.240   0.442 -0.1432  2.3883 -0.2530
 4236TIP3   OH234122   3.343   0.741  11.985  0.4789 -0.1084  0.1369
 4236TIP3    H134123   3.379   0.729  12.073 -1.1226  2.4620  1.2068
 4236TIP3    H234124   3.371   0.829  11.959 -0.8633 -0.0033 -1.0290
 4237TIP3   OH234125   1.239   0.932   4.305 -0.7132 -0.4828 -0.5083
 4237TIP3    H134126   1.298   0.897   4.239 -1.8032 -1.5979 -0.9102
 4237TIP3    H234127   1.193   0.856   4.340 -0.2379  0.1083  1.4692
 4238TIP3   OH234128   5.124   4.213  13.885  0.2710  0.7938  0.3987
 4238TIP3    H134129   5.173   4.200  13.803  0.7539  1.3168  0.6013
 4238TIP3    H234130   5.033   4.202  13.860  0.4792 -0.1887  0.0107
 4239TIP3   OH234131   1.869   0.069  12.654 -0.9024 -0.1289  0.2575
 4239TIP3    H134132   1.832   0.090  12.568 -2.2601  1.1304  1.1288
 4239TIP3    H234133   1.960   0.046  12.635 -1.0977  0.4358 -1.4886
 4240TIP3   OH234134   3.987   0.592   2.722 -0.2868  0.9996 -0.2317
 4240TIP3    H134135   4.004   0.529   2.653 -0.5045  1.1990 -0.4668
 4240TIP3    H234136   3.912   0.555   2.770  1.5387 -0.4905  1.5493
 4241TIP3   OH234137   4.529   5.644   6.392 -0.3304  0.1975 -0.1146
 4241TIP3    H134138   4.468   5.717   6.402  1.0292  1.1050  2.0057
 4241TIP3    H234139   4.473   5.566   6.384 -1.7582  1.2225 -0.2639
 4242TIP3   OH234140   0.679   4.178  11.838 -0.1579 -0.7366 -0.1015
 4242TIP3    H134141   0.756   4.122  11.851  1.8363  1.7182 -1.0025
 4242TIP3    H234142   0.640   4.146  11.757  1.8766  0.1100 -1.4642
 4243TIP3   OH234143   1.496   2.441   1.446 -0.0495  0.0735 -0.3268
 4243TIP3    H134144   1.410   2.481   1.457  0.4406  0.9076  0.5964
 4243TIP3    H234145   1.478   2.355   1.409 -1.2800  0.2250 -0.1096
 4244TIP3   OH234146   0.419   1.937   0.796 -0.3394 -0.2426  0.6661
 4244TIP3    H134147   0.330   1.903   0.785 -0.1648 -0.8089  1.0176
 4244TIP3    H234148   0.445   1.910   0.884  0.5916 -0.9995  0.1659
 4245TIP3   OH234149   0.239   3.791  13.671 -1.0840 -0.2149 -0.4994
 4245TIP3    H134150   0.311   3.843  13.708 -1.4240  1.7052 -2.4507
 4245TIP3    H234151   0.259   3.786  13.578 -2.2906 -1.6537 -0.7019
 4246TIP3   OH234152   0.724   6.386   1.796  0.5129  0.2772  0.0456
 4246TIP3    H134153   0.758   6.476   1.797 -2.2274  1.4254 -1.6083
 4246TIP3    H234154   0.780   6.340   1.734  0.9505  1.2925 -0.3228
 4247TIP3   OH234155   1.239   2.814   0.285  0.5638 -0.0247  0.2658
 4247TIP3    H134156   1.149   2.827   0.254  0.0236 -2.2508  0.8214
 4247TIP3    H234157   1.294   2.853   0.217 -0.8194  2.2998  0.4063
 4248TIP3   OH234158   0.914   4.419  11.016  0.1832 -0.3638  0.3441
 4248TIP3    H134159   0.840   4.463  10.974  0.3885 -0.1058  0.2512
 4248TIP3    H234160   0.965   4.490  11.056 -0.8165 -0.7191  2.3441
 4249TIP3   OH234161   5.093   5.866  11.734 -0.7512  0.3465  0.1311
 4249TIP3    H134162   5.150   5.877  11.658 -1.5599  0.5798 -0.4457
 4249TIP3    H234163   5.027   5.935  11.725 -0.9221  0.3082  0.9872
 4250TIP3   OH234164   3.217   2.089  11.643  0.0608 -0.2003  0.5628
 4250TIP3    H134165   3.291   2.078  11.703 -1.3327  1.1651  2.6036
 4250TIP3    H234166   3.219   2.011  11.588  1.6882 -1.2508  2.0613
 4251TIP3   OH234167   3.537   4.728   3.884  0.0549  0.0448 -0.4593
 4251TIP3    H134168   3.459   4.723   3.940  0.0486  0.5807 -0.4241
 4251TIP3    H234169   3.514   4.675   3.807 -1.1912  2.0046 -1.4709
 4252TIP3   OH234170   2.112   1.325   1.032  0.0749 -0.1929  0.2621
 4252TIP3    H134171   2.142   1.239   1.002 -1.3493 -0.0515 -1.6205
 4252TIP3    H234172   2.027   1.307   1.073 -0.2079  0.3128 -0.1058
 4253TIP3   OH234173   6.510   5.351  14.598 -0.7065  0.1661 -0.1575
 4253TIP3    H134174   6.589   5.394  14.564  1.0459 -1.7388  1.3258
 4253TIP3    H234175   6.521   5.259  14.573 -2.0063 -0.2824  0.9030
 4254TIP3   OH234176   0.703   0.623  16.468 -0.5811  0.1604 -0.3158
 4254TIP3    H134177   0.713   0.715  16.444  3.5477 -0.0666  0.0879
 4254TIP3    H234178   0.701   0.577  16.385 -1.9637  0.5573 -0.5044
 4255TIP3   OH234179   2.234   5.934   1.516  0.0659  0.0172 -0.7910
 4255TIP3    H134180   2.283   5.926   1.434  1.2766  0.6944 -0.1560
 4255TIP3    H234181   2.205   5.845   1.535 -0.0346 -0.1858 -1.8395
 4256TIP3   OH234182   2.082   2.005  15.806  0.1159  0.2093  0.0122
 4256TIP3    H134183   2.073   1.925  15.755  0.0773  0.3721 -0.2337
 4256TIP3    H234184   2.045   1.982  15.892  1.5665 -0.5284  0.4701
 4257TIP3   OH234185   1.714   5.026  13.647 -0.0585  0.0750 -0.2233
 4257TIP3    H134186   1.721   4.962  13.718  0.6573  0.5501  0.1404
 4257TIP3    H234187   1.726   5.111  13.690  0.7239  0.3421 -0.9510
 4258TIP3   OH234188   1.279   2.149  14.758  0.2424  0.1697 -0.5338
 4258TIP3    H134189   1.301   2.081  14.695  0.3151  0.4506 -0.8127
 4258TIP3    H234190   1.190   2.175  14.734 -1.1931 -2.3169  1.7949
 4259TIP3   OH234191   2.710   0.408   5.407 -0.2752 -0.1342  0.2101
 4259TIP3    H134192   2.709   0.498   5.374 -1.2004 -0.2760 -0.1623
 4259TIP3    H234193   2.687   0.355   5.331  2.0367 -0.8459 -0.0233
 4260TIP3   OH234194   1.237   3.870   4.650  0.6126  0.0360  0.1210
 4260TIP3    H134195   1.155   3.913   4.628  0.0255 -1.1274 -0.0297
 4260TIP3    H234196   1.294   3.940   4.682 -0.3717  0.8774  0.0395
 4261TIP3   OH234197   3.639   1.503  12.871  0.3526  0.2251  0.5745
 4261TIP3    H134198   3.650   1.408  12.860 -3.0924 -0.0581 -0.8088
 4261TIP3    H234199   3.675   1.540  12.791 -1.4287 -0.1823 -0.4440
 4262TIP3   OH234200   6.570   2.805   6.357 -0.1396  0.8761  0.2493
 4262TIP3    H134201   6.507   2.749   6.403 -0.5077  0.8661 -0.2615
 4262TIP3    H234202   6.638   2.823   6.422  0.1127 -0.3722  0.3482
 4263TIP3   OH234203   1.852   5.544   3.630  0.6791  0.1043  0.3441
 4263TIP3    H134204   1.872   5.464   3.678 -0.0639 -0.5144 -0.3579
 4263TIP3    H234205   1.818   5.604   3.696  1.2789 -0.1417  0.8820
 4264TIP3   OH234206   3.069   2.391   4.670 -0.0273  0.2312 -0.1012
 4264TIP3    H134207   3.121   2.328   4.720 -1.4095 -0.5177  0.4159
 4264TIP3    H234208   3.131   2.431   4.609  1.2137 -0.4247  0.7212
 4265TIP3   OH234209   5.726   3.749  13.391 -0.6321  0.0834  0.0185
 4265TIP3    H134210   5.681   3.670  13.422  1.1939 -0.7816  0.5178
 4265TIP3    H234211   5.768   3.785  13.469  0.1845  0.4529 -0.5879
 4266TIP3   OH234212   5.221   5.859   6.085  0.0499  0.1011 -0.4103
 4266TIP3    H134213   5.262   5.888   6.167 -1.3555  1.5865 -0.2028
 4266TIP3    H234214   5.170   5.782   6.110 -0.1119  0.3539  0.0469
 4267TIP3   OH234215   5.422   0.297   0.394 -0.4256  0.2449 -0.0591
 4267TIP3    H134216   5.364   0.332   0.461 -0.5654 -3.1655  1.6687
 4267TIP3    H234217   5.366   0.285   0.317 -1.0122  1.0155  0.2410
 4268TIP3   OH234218   6.595   5.525  16.787  0.3487 -0.2161 -0.1982
 4268TIP3    H134219   6.590   5.450  16.727 -0.2628 -2.3913  2.4888
 4268TIP3    H234220   6.514   5.522  16.837  0.7282  1.7017  0.5938
 4269TIP3   OH234221   2.781   5.625  11.330  0.3535 -0.0879 -0.2981
 4269TIP3    H134222   2.802   5.545  11.282  1.6663 -0.4335  0.8259
 4269TIP3    H234223   2.716   5.598  11.396  0.0150 -0.0103 -0.5981
 4270TIP3   OH234224   1.000   1.701  15.840 -0.2532 -0.3690  0.0777
 4270TIP3    H134225   0.952   1.783  15.851  2.9251  1.5529  0.2532
 4270TIP3    H234226   1.003   1.687  15.745 -0.2674  0.0682  0.0129
 4271TIP3   OH234227   6.042   1.968  15.792  0.3536 -0.4391  0.2317
 4271TIP3    H134228   6.063   2.018  15.714  0.5462  0.0208  0.5756
 4271TIP3    H234229   6.123   1.967  15.843  0.4801 -1.4833  0.0191
 4272TIP3   OH234230   4.957   0.341   1.211  0.0303  0.3045  1.1871
 4272TIP3    H134231   5.002   0.423   1.189 -1.7133  1.3785  1.5071
 4272TIP3    H234232   4.897   0.327   1.138  0.4171 -0.7644  1.0759
 4273TIP3   OH234233   1.251   3.230  11.453  0.0261  0.6478  0.1602
 4273TIP3    H134234   1.225   3.257  11.541 -0.1379  3.6101 -0.7461
 4273TIP3    H234235   1.340   3.263  11.442 -0.4378  1.4866 -1.2505
 4274TIP3   OH234236   3.333   3.134  14.333  0.2721  0.1454 -0.1448
 4274TIP3    H134237   3.348   3.111  14.425 -1.0065 -2.0362 -0.4403
 4274TIP3    H234238   3.390   3.075  14.284  2.0734  2.3451 -0.7155
 4275TIP3   OH234239   3.627   5.316   2.425  0.0153  0.1314  0.4028
 4275TIP3    H134240   3.547   5.328   2.477  0.4896  0.5232  1.0574
 4275TIP3    H234241   3.687   5.381   2.460  0.8734 -0.6655  0.4196
 4276TIP3   OH234242   2.519   0.645  11.570 -0.0318 -0.0680  0.6410
 4276TIP3    H134243   2.565   0.647  11.486 -0.8796  1.0164  0.1958
 4276TIP3    H234244   2.527   0.554  11.600  0.2726 -0.4547 -0.6090
 4277TIP3   OH234245   2.398   4.821   3.909  0.4095  0.5115  0.4436
 4277TIP3    H134246   2.472   4.881   3.899 -0.4173  1.6393  0.9278
 4277TIP3    H234247   2.321   4.877   3.900 -0.3983 -0.8154 -1.0540
 4278TIP3   OH234248   0.774   4.224  14.817  0.5235 -0.3159 -1.0519
 4278TIP3    H134249   0.806   4.134  14.816 -0.3694 -0.6810  1.1419
 4278TIP3    H234250   0.805   4.260  14.900 -1.0396  0.6956 -0.8902
 4279TIP3   OH234251   5.935   4.146   2.420 -0.2533  0.0151  0.7002
 4279TIP3    H134252   5.874   4.086   2.378  1.6812 -1.4243 -0.1394
 4279TIP3    H234253   5.895   4.166   2.505 -2.2365 -0.2785 -0.1550
 4280TIP3   OH234254   0.864   2.562   4.461 -0.8169 -0.1912  0.0683
 4280TIP3    H134255   0.877   2.618   4.537  0.8383 -1.0770  0.4553
 4280TIP3    H234256   0.852   2.474   4.498 -2.0304 -0.3315 -0.6070
 4281TIP3   OH234257   0.500   3.585  13.071 -0.8098 -0.4310 -0.3012
 4281TIP3    H134258   0.466   3.578  13.161 -0.5498 -1.0508 -0.2538
 4281TIP3    H234259   0.498   3.679  13.053 -0.0893 -0.2272  0.6509
 4282TIP3   OH234260   4.603   4.364  14.289 -0.5113  0.2112 -0.1385
 4282TIP3    H134261   4.566   4.307  14.222  2.0410 -0.6619 -0.8757
 4282TIP3    H234262   4.619   4.447  14.245  1.4391 -0.4532 -0.7532
 4283TIP3   OH234263   4.273   2.778  14.604 -0.7894  0.1013 -0.4535
 4283TIP3    H134264   4.346   2.793  14.543 -0.6475 -0.3324 -0.3940
 4283TIP3    H234265   4.207   2.843  14.579 -0.7993 -0.1831 -1.1724
 4284TIP3   OH234266   5.470   4.886  14.051  1.1126  0.1143 -0.7473
 4284TIP3    H134267   5.414   4.846  13.985  1.6528 -0.4600 -0.8559
 4284TIP3    H234268   5.544   4.922  14.002  1.0068  0.5934 -0.5667
 4285TIP3   OH234269   2.907   6.272   5.880 -0.0960 -0.0877 -1.0251
 4285TIP3    H134270   2.973   6.248   5.815  0.7054  1.2623 -0.7469
 4285TIP3    H234271   2.829   6.291   5.828 -0.0379 -0.9146 -1.4262
 4286TIP3   OH234272   4.534   0.953   1.347 -0.0556 -0.4371 -0.3155
 4286TIP3    H134273   4.476   0.880   1.329 -1.0549  0.0112  1.0098
 4286TIP3    H234274   4.590   0.923   1.418 -1.1348  0.4266  0.9125
 4287TIP3   OH234275   6.549   6.442   4.786 -0.1685  0.1970 -0.6187
 4287TIP3    H134276   6.499   6.509   4.832  0.5739  1.0276 -1.0001
 4287TIP3    H234277   6.592   6.489   4.714  1.3537 -0.4371 -0.1593
 4288TIP3   OH234278   5.188   1.506  13.953 -0.3018  0.0659  0.1134
 4288TIP3    H134279   5.134   1.481  14.027  0.1617 -3.7076 -0.7119
 4288TIP3    H234280   5.240   1.427  13.933  1.7286  1.9194 -2.3277
 4289TIP3   OH234281   0.645   4.724   3.895  0.2456 -0.0699 -0.4721
 4289TIP3    H134282   0.738   4.731   3.914 -0.2412  1.4600  1.5832
 4289TIP3    H234283   0.621   4.636   3.921  0.6401  0.3459  1.3405
 4290TIP3   OH234284   2.416   6.394  16.914 -0.2510  0.4144  0.3414
 4290TIP3    H134285   2.366   6.465  16.955  2.5722  2.4863  0.3976
 4290TIP3    H234286   2.380   6.389  16.825 -2.6430 -0.3115  1.3067
 4291TIP3   OH234287   0.264   5.840   2.330 -0.1408 -0.0598  0.3264
 4291TIP3    H134288   0.215   5.758   2.334 -0.9877  0.4270  0.0327
 4291TIP3    H234289   0.244   5.884   2.413  0.1537 -0.0496  0.3959
 4292TIP3   OH234290   6.140   1.821  13.560  0.2487  0.4012  0.2480
 4292TIP3    H134291   6.216   1.868  13.527  1.0969 -0.6113  0.7130
 4292TIP3    H234292   6.175   1.766  13.631 -0.8165 -0.4535  0.1200
 4293TIP3   OH234293   4.651   3.626   0.936  0.1344  0.2935  0.3888
 4293TIP3    H134294   4.700   3.590   1.009 -0.9691 -0.7738  0.6306
 4293TIP3    H234295   4.642   3.553   0.874 -1.9719  0.1457  0.8037
 4294TIP3   OH234296   0.789   6.254  13.575  0.6086 -0.3649  0.2882
 4294TIP3    H134297   0.700   6.279  13.550  0.7432  0.3432  0.5019
 4294TIP3    H234298   0.806   6.304  13.655  1.4152 -0.0388 -0.0806
 4295TIP3   OH234299   4.031   3.796   1.703  0.3794  0.6162  0.0895
 4295TIP3    H134300   3.989   3.715   1.674  1.2671  0.7861 -1.7767
 4295TIP3    H234301   3.974   3.830   1.772 -0.4515 -1.1459  0.3004
 4296TIP3   OH234302   5.373   4.183   2.477 -0.1807 -0.5024 -0.3598
 4296TIP3    H134303   5.430   4.140   2.414 -0.1710 -2.4494  0.9203
 4296TIP3    H234304   5.285   4.171   2.441 -0.1717 -1.5740 -0.0511
 4297TIP3   OH234305   2.566   0.656  14.982 -0.2722  0.7903  0.1154
 4297TIP3    H134306   2.639   0.595  14.996  1.4359  2.5899 -0.7644
 4297TIP3    H234307   2.587   0.732  15.035 -1.6373  1.2525  0.0144
 4298TIP3   OH234308   3.109   1.575   2.277 -0.6264  0.5450  0.0145
 4298TIP3    H134309   3.086   1.643   2.214  0.5364  1.7950  0.9020
 4298TIP3    H234310   3.084   1.613   2.362  2.1158  0.8399  0.7446
 4299TIP3   OH234311   0.470   1.063   0.007 -0.2053 -0.5235  0.0051
 4299TIP3    H134312   0.537   1.005   0.045 -0.9081 -2.0855 -1.0955
 4299TIP3    H234313   0.460   1.133   0.071  1.6777 -0.8652  0.7129
 4300TIP3   OH234314   3.261   3.577  12.482  0.0532 -0.1005  0.0137
 4300TIP3    H134315   3.199   3.570  12.555 -0.1782 -0.7448 -0.2359
 4300TIP3    H234316   3.270   3.487  12.450 -0.1328  0.2207 -0.9805
 4301TIP3   OH234317   1.292   3.229   3.259 -0.6578 -0.0543 -0.0594
 4301TIP3    H134318   1.332   3.276   3.332  3.1544 -0.5990 -1.6958
 4301TIP3    H234319   1.293   3.137   3.286  0.6288 -0.2408 -0.7280
 4302TIP3   OH234320   2.969   1.135  16.920  0.0407  0.0548  0.5070
 4302TIP3    H134321   2.890   1.092  16.953 -0.8185 -0.3558 -2.0377
 4302TIP3    H234322   2.980   1.210  16.979 -2.5788  0.4605  0.5797
 4303TIP3   OH234323   4.008   2.762  11.832  0.2356  0.5070  0.0158
 4303TIP3    H134324   3.932   2.820  11.828  1.1889  1.7918  0.1381
 4303TIP3    H234325   4.004   2.711  11.752 -0.1337  1.3784 -0.5313
 4304TIP3   OH234326   2.624   3.146  14.476  0.0826 -0.0191  0.3623
 4304TIP3    H134327   2.591   3.113  14.392  2.1757 -0.9563 -0.1100
 4304TIP3    H234328   2.594   3.082  14.540 -0.7619  0.2281  0.2280
 4305TIP3   OH234329   6.118   4.837   3.346  0.2121 -0.2656  0.0019
 4305TIP3    H134330   6.095   4.929   3.331 -0.5376 -0.1361  1.8195
 4305TIP3    H234331   6.046   4.787   3.308 -0.3486 -0.0360  0.7596
 4306TIP3   OH234332   2.382   4.656  14.984 -0.8198  0.2535  0.5831
 4306TIP3    H134333   2.344   4.585  15.036  0.7122 -1.0420 -0.0081
 4306TIP3    H234334   2.407   4.722  15.049  0.6521 -1.1495  1.4738
 4307TIP3   OH234335   6.004   4.293   1.899 -0.0760 -0.3134 -0.4681
 4307TIP3    H134336   6.023   4.243   1.978 -1.1549 -1.8652 -1.1849
 4307TIP3    H234337   5.944   4.362   1.929 -1.9489 -2.0019 -0.2682
 4308TIP3   OH234338   4.440   0.786  11.062  0.2533 -0.6753  0.2886
 4308TIP3    H134339   4.443   0.799  10.968  2.7491 -1.1226  0.2832
 4308TIP3    H234340   4.468   0.696  11.075  1.5055 -0.1200  1.5484
 4309TIP3   OH234341   4.576   1.281  15.246  0.0961 -0.0159  0.0887
 4309TIP3    H134342   4.493   1.233  15.254  0.1739 -0.0575  0.6888
 4309TIP3    H234343   4.617   1.245  15.168 -1.2453  1.2276 -1.2270
 4310TIP3   OH234344   2.907   5.027   5.983  0.3230 -0.0222 -0.2218
 4310TIP3    H134345   2.868   5.070   6.059 -0.7108  0.9439 -1.2819
 4310TIP3    H234346   2.912   4.935   6.008  0.7566  0.4100  1.3285
 4311TIP3   OH234347   2.242   3.568  14.333 -0.0022 -0.1225 -0.2755
 4311TIP3    H134348   2.187   3.550  14.409  0.6337 -1.2927 -0.0770
 4311TIP3    H234349   2.279   3.483  14.309 -1.5886 -0.0856 -3.0082
 4312TIP3   OH234350   0.215   6.245   3.802  0.2792  0.2155 -0.6353
 4312TIP3    H134351   0.139   6.190   3.783  0.8119 -0.5383 -0.6309
 4312TIP3    H234352   0.289   6.198   3.761  0.7339  0.9526 -0.6692
 4313TIP3   OH234353   2.572   5.183  12.981  0.3873 -0.3436  0.0001
 4313TIP3    H134354   2.575   5.173  12.885 -3.1184  1.6091 -0.3968
 4313TIP3    H234355   2.656   5.223  13.003  1.8753 -2.1769 -2.0510
 4314TIP3   OH234356   5.067   2.973  12.209 -0.4114  0.0094 -0.4567
 4314TIP3    H134357   4.995   3.009  12.157  1.2414  2.5588 -1.0760
 4314TIP3    H234358   5.142   2.970  12.149  0.7100  0.0547  0.9010
 4315TIP3   OH234359   5.678   3.130   4.558 -0.1076  0.6434  0.0166
 4315TIP3    H134360   5.762   3.172   4.574  0.0392  0.0845  0.7579
 4315TIP3    H234361   5.680   3.103   4.466  0.9585 -0.3448  0.3249
 4316TIP3   OH234362   4.675   2.307  13.378  0.2242 -0.0204  0.3432
 4316TIP3    H134363   4.724   2.363  13.438  0.6343 -0.6426  0.6002
 4316TIP3    H234364   4.688   2.347  13.292  0.4049  0.3543  0.5450
 4317TIP3   OH234365   0.901   2.577   3.777 -0.3611  0.1585  0.1897
 4317TIP3    H134366   0.878   2.500   3.828  0.4290 -0.2425 -0.0501
 4317TIP3    H234367   0.923   2.544   3.690  2.0412  0.3740  0.6659
 4318TIP3   OH234368   1.683   4.188  12.336 -0.2326 -0.2297 -0.3032
 4318TIP3    H134369   1.695   4.226  12.248 -1.2291 -0.9936 -0.7799
 4318TIP3    H234370   1.645   4.260  12.387  0.7725  0.3567 -0.3728
 4319TIP3   OH234371   3.432   0.879  15.465  0.4311 -0.0305 -0.4916
 4319TIP3    H134372   3.479   0.814  15.413 -1.1478 -2.0313  0.4647
 4319TIP3    H234373   3.436   0.844  15.555 -0.9761  0.8780 -0.0660
 4320TIP3   OH234374   3.296   2.885  16.291  0.2471 -0.0107  0.3221
 4320TIP3    H134375   3.336   2.873  16.378 -0.8249 -1.3275  0.6590
 4320TIP3    H234376   3.315   2.976  16.268 -1.4946  1.0957  2.9912
 4321TIP3   OH234377   3.198   5.152   0.454  0.6457  0.1224  0.4987
 4321TIP3    H134378   3.202   5.155   0.359 -0.8497 -0.0863  0.4144
 4321TIP3    H234379   3.286   5.175   0.483  0.7639  1.4963 -0.8970
 4322TIP3   OH234380   4.049   1.068   5.712 -0.1551 -0.3263  0.3335
 4322TIP3    H134381   4.084   1.053   5.800  0.0041  1.4569  0.5921
 4322TIP3    H234382   3.963   1.026   5.713 -0.0906 -0.4451  1.2908
 4323TIP3   OH234383   5.284   4.998  12.516 -0.5642  0.3433  0.4164
 4323TIP3    H134384   5.313   5.063  12.581  1.4454  0.3376 -0.4222
 4323TIP3    H234385   5.290   5.045  12.432  1.6919 -1.1382 -0.2908
 4324TIP3   OH234386   3.368   3.353  16.213 -0.6446 -0.2709 -0.7956
 4324TIP3    H134387   3.450   3.401  16.220  0.5993 -2.3622 -0.5590
 4324TIP3    H234388   3.328   3.386  16.132  0.4151  0.7887 -0.9021
 4325TIP3   OH234389   0.451   5.917  16.633  0.7379  0.2706  0.1616
 4325TIP3    H134390   0.438   5.985  16.700  0.7059  1.8285 -1.3893
 4325TIP3    H234391   0.377   5.928  16.573  1.0182 -0.8095 -0.3848
 4326TIP3   OH234392   1.957   1.617   3.083  0.6622  0.6128 -0.1131
 4326TIP3    H134393   1.910   1.673   3.021  0.6263 -0.3430 -0.9487
 4326TIP3    H234394   2.005   1.555   3.029  3.2324  1.8176  0.7263
 4327TIP3   OH234395   3.880   1.279   6.438  0.2780 -0.1091 -0.2802
 4327TIP3    H134396   3.929   1.207   6.397 -0.8494 -1.9649  1.4986
 4327TIP3    H234397   3.944   1.323   6.493  0.1445 -2.0863  1.4952
 4328TIP3   OH234398   3.210   0.902  16.930  0.6550  0.6317 -0.2726
 4328TIP3    H134399   3.196   0.809  16.947  1.1999  0.0539 -2.8353
 4328TIP3    H234400   3.121   0.940  16.931  0.0131 -0.6517 -3.1392
 4329TIP3   OH234401   1.729   4.066   0.949 -0.4762 -0.1335  0.4206
 4329TIP3    H134402   1.673   4.009   1.002 -1.3206  0.9255  0.7105
 4329TIP3    H234403   1.669   4.106   0.886  0.2365 -0.1439 -0.2663
 4330TIP3   OH234404   1.839   3.922   1.728  0.7173  0.0655  0.1999
 4330TIP3    H134405   1.881   3.861   1.789  2.8005  1.0231 -0.2379
 4330TIP3    H234406   1.780   3.867   1.676  0.1516 -1.0239  1.9725
 4331TIP3   OH234407   0.183   1.726   1.169 -0.3812 -0.3185  0.2218
 4331TIP3    H134408   0.205   1.802   1.115  0.3694 -1.3758 -0.9828
 4331TIP3    H234409   0.131   1.763   1.241 -0.4657  1.2624 -0.6111
 4332TIP3   OH234410   1.995   0.459  13.133 -0.0662 -0.2734 -0.5810
 4332TIP3    H134411   1.931   0.464  13.204 -0.0718  0.0591 -0.6096
 4332TIP3    H234412   2.074   0.499  13.169  0.5320 -1.8338 -0.0976
 4333TIP3   OH234413   0.092   0.350  12.184  0.1522 -0.2885  0.5267
 4333TIP3    H134414   0.152   0.422  12.205 -0.2694 -0.1375  1.2280
 4333TIP3    H234415   0.150   0.279  12.156  0.7035 -0.2938  1.6332
 4334TIP3   OH234416   6.650   5.840   2.093 -0.5904 -0.2168 -0.2610
 4334TIP3    H134417   6.571   5.894   2.089 -3.2491 -3.5112  3.5091
 4334TIP3    H234418   6.645   5.785   2.014 -1.5329  0.2945 -0.5691
 4335TIP3   OH234419   6.584   6.739  15.748 -0.6657  0.2169 -0.2561
 4335TIP3    H134420   6.673   6.768  15.726 -0.2854  0.6865  1.7549
 4335TIP3    H234421   6.527   6.795  15.696  0.1540  2.5184  1.2254
 4336TIP3   OH234422   4.722   3.026   0.367 -0.1667 -0.2293 -0.3205
 4336TIP3    H134423   4.706   3.027   0.461  2.8255 -0.1062  0.2304
 4336TIP3    H234424   4.741   3.118   0.345  0.5216 -0.4728 -0.7723
 4337TIP3   OH234425   1.300   2.916  13.490  0.1798  0.1938 -0.2764
 4337TIP3    H134426   1.231   2.849  13.487  0.1225  0.2341  0.1944
 4337TIP3    H234427   1.379   2.870  13.460 -0.0130  0.1077 -0.6665
 4338TIP3   OH234428   3.516   5.409  13.212  0.1119  0.2970  0.3244
 4338TIP3    H134429   3.474   5.417  13.298  1.8906 -0.4839  1.2782
 4338TIP3    H234430   3.502   5.318  13.187 -0.2614  0.4829 -0.1709
 4339TIP3   OH234431   2.999   6.293   3.634 -0.5031 -0.3950 -0.0853
 4339TIP3    H134432   2.942   6.216   3.632 -0.7995 -0.1732 -0.1897
 4339TIP3    H234433   2.939   6.368   3.630 -0.1732 -0.1667 -0.7333
 4340TIP3   OH234434   5.599   2.956  14.184 -0.1233  0.2342 -0.4454
 4340TIP3    H134435   5.675   2.991  14.229  0.6826 -1.4963 -0.4132
 4340TIP3    H234436   5.542   2.924  14.255  0.0750 -0.3498 -0.5448
 4341TIP3   OH234437   0.023   3.029  15.117 -0.0649 -0.2225  0.0597
 4341TIP3    H134438   0.012   2.935  15.103  0.3455 -0.0400 -1.6015
 4341TIP3    H234439  -0.060   3.068  15.090 -0.8595 -0.2529  2.4070
 4342TIP3   OH234440   6.286   5.301   4.337 -0.5307 -0.0076  0.0114
 4342TIP3    H134441   6.293   5.280   4.243  0.6310  0.2244  0.0288
 4342TIP3    H234442   6.245   5.224   4.376 -0.8766 -0.1744 -0.6703
 4343TIP3   OH234443   4.508   0.623  13.177 -0.7862 -1.0206 -0.1597
 4343TIP3    H134444   4.577   0.688  13.160  0.6671 -2.3187  0.6807
 4343TIP3    H234445   4.481   0.594  13.089  0.6471 -1.4334 -0.4758
 4344TIP3   OH234446   3.913   4.384  13.245 -0.4030  0.2024  0.7607
 4344TIP3    H134447   3.829   4.370  13.202  0.8582 -0.3123 -1.6148
 4344TIP3    H234448   3.954   4.455  13.196  1.3254 -0.8066  0.6975
 4345TIP3   OH234449   2.998   2.738   1.874 -0.5085 -0.2050  0.1026
 4345TIP3    H134450   2.944   2.687   1.814 -1.6902  1.1211 -0.0032
 4345TIP3    H234451   2.943   2.750   1.952 -0.0600  0.4869  0.3210
 4346TIP3   OH234452   6.668   2.193   3.883 -0.1362 -0.4389 -0.2260
 4346TIP3    H134453   6.583   2.200   3.839 -0.1497 -2.7575 -0.6263
 4346TIP3    H234454   6.646   2.162   3.971  0.1880  0.5273  0.2009
 4347TIP3   OH234455   5.180   2.093   3.669  0.1001 -0.1986 -0.6303
 4347TIP3    H134456   5.090   2.101   3.636 -0.1225 -2.7938 -0.7912
 4347TIP3    H234457   5.231   2.149   3.611 -0.9316 -1.3404 -2.7189
 4348TIP3   OH234458   5.826   4.810   4.792  0.2829 -0.0121 -0.5327
 4348TIP3    H134459   5.768   4.751   4.840  1.2377 -0.1413  0.4775
 4348TIP3    H234460   5.778   4.830   4.711 -0.4222 -1.4626 -0.4851
 4349TIP3   OH234461   0.017   2.351  12.741  0.1495 -1.0840  0.5149
 4349TIP3    H134462  -0.063   2.318  12.700  1.0310 -2.2406 -0.3102
 4349TIP3    H234463   0.060   2.402  12.673 -0.2992  0.2584  1.2268
 4350TIP3   OH234464   2.042   5.972   5.090  0.1133  0.2560  0.2106
 4350TIP3    H134465   2.118   5.923   5.057 -0.3617 -0.8891  0.7978
 4350TIP3    H234466   1.967   5.925   5.053 -0.3574  0.2210  1.2199
 4351TIP3   OH234467   4.256   5.153  15.277  0.4450  0.3199  0.2741
 4351TIP3    H134468   4.344   5.130  15.246  0.5257 -0.0619  0.7829
 4351TIP3    H234469   4.271   5.206  15.355  0.2500  1.8917 -0.7457
 4352TIP3   OH234470   3.503   2.012  15.389  0.1666  0.0313 -0.0355
 4352TIP3    H134471   3.546   2.067  15.454  0.1189 -1.8539  1.6516
 4352TIP3    H234472   3.414   2.048  15.382  0.5933  1.0835 -0.0846
 4353TIP3   OH234473   6.378   6.781   4.004 -0.6659  0.6201 -0.1343
 4353TIP3    H134474   6.351   6.860   4.052  0.1726  2.3173 -2.3502
 4353TIP3    H234475   6.469   6.768   4.027 -0.4085  1.1385 -0.8258
 4354TIP3   OH234476   5.657   1.935  15.906 -0.1717 -0.2457 -1.1258
 4354TIP3    H134477   5.684   1.875  15.976 -2.1672  0.3683  0.1994
 4354TIP3    H234478   5.722   2.004  15.906 -0.7057  0.2878  0.8461
 4355TIP3   OH234479   2.886   3.688  11.627  0.0026 -0.2552  0.2261
 4355TIP3    H134480   2.922   3.752  11.565 -0.9372 -1.4635 -1.5883
 4355TIP3    H234481   2.799   3.721  11.649 -1.2338 -1.8204 -2.1493
 4356TIP3   OH234482   5.748   5.631  15.243 -0.1803  0.0917 -0.3479
 4356TIP3    H134483   5.751   5.545  15.201  1.5789 -0.2711  0.4648
 4356TIP3    H234484   5.738   5.692  15.170  1.2293 -0.6359 -1.1758
 4357TIP3   OH234485   0.294   3.193  14.497 -0.2429  0.0889 -0.4489
 4357TIP3    H134486   0.300   3.098  14.497 -1.6394 -0.0133 -1.1135
 4357TIP3    H234487   0.340   3.220  14.577  1.7932 -1.0109 -1.1948
 4358TIP3   OH234488   1.057   4.578   4.405  0.3408 -0.4924  0.1707
 4358TIP3    H134489   1.084   4.556   4.315 -0.8281 -1.0952 -0.0365
 4358TIP3    H234490   0.987   4.516   4.425 -0.4255  0.6132  0.9576
 4359TIP3   OH234491   0.624   5.435  12.021 -0.2515 -0.4959 -0.7586
 4359TIP3    H134492   0.622   5.440  11.925 -1.1778  0.2521 -0.7001
 4359TIP3    H234493   0.584   5.517  12.050 -0.2688 -0.8703  0.2704
 4360TIP3   OH234494   2.793   3.828  16.901 -0.1374 -0.4040 -0.4140
 4360TIP3    H134495   2.720   3.784  16.857  1.1749 -1.6295 -1.4311
 4360TIP3    H234496   2.869   3.811  16.844  1.2299 -0.4246  1.3665
 4361TIP3   OH234497   2.000   1.490   5.007  0.7231  0.1206 -0.1279
 4361TIP3    H134498   2.045   1.414   5.044  1.5714 -0.0830 -1.5217
 4361TIP3    H234499   2.044   1.565   5.046  0.2467 -0.0952  0.8361
 4362TIP3   OH234500   2.383   5.940  15.559  0.3715 -0.1954  0.2843
 4362TIP3    H134501   2.371   6.032  15.583  1.3333 -0.0448  0.1942
 4362TIP3    H234502   2.475   5.921  15.580  0.9124 -0.3949 -2.1479
 4363TIP3   OH234503   1.082   6.661   2.426 -0.1165  0.2193  0.2896
 4363TIP3    H134504   0.989   6.662   2.448 -0.3059  1.1350 -0.5132
 4363TIP3    H234505   1.103   6.569   2.413 -1.1915  0.1050 -0.6648
 4364TIP3   OH234506   2.692   6.185  14.888 -0.3903  0.2235  0.6089
 4364TIP3    H134507   2.646   6.207  14.969 -1.0924  0.9330  0.0156
 4364TIP3    H234508   2.771   6.239  14.891 -0.4486  0.3001  0.7811
 4365TIP3   OH234509   1.919   5.151  12.387  0.2193 -0.4897 -0.4343
 4365TIP3    H134510   1.831   5.168  12.354  0.5056 -0.1449 -1.0384
 4365TIP3    H234511   1.953   5.237  12.413 -0.2468 -0.8400  1.4180
 4366TIP3   OH234512   3.384   1.562  14.675  0.0789 -0.2514  0.0547
 4366TIP3    H134513   3.467   1.544  14.718 -0.3471  0.5851  1.2704
 4366TIP3    H234514   3.321   1.569  14.747 -1.0887 -1.1568 -0.8663
 4367TIP3   OH234515   3.877   5.275  14.107  0.2702 -0.3855 -0.2781
 4367TIP3    H134516   3.874   5.190  14.152  0.7043 -1.3195 -1.9730
 4367TIP3    H234517   3.958   5.315  14.137 -0.4161 -0.1069  1.2942
 4368TIP3   OH234518   5.109   2.737   6.057 -0.1585  0.1448 -0.5253
 4368TIP3    H134519   5.067   2.666   6.008  0.4815  1.7207 -3.4437
 4368TIP3    H234520   5.203   2.724   6.042  0.0398  0.7639  0.1578
 4369TIP3   OH234521   3.747   2.431  15.228 -0.4000  0.5530 -0.0870
 4369TIP3    H134522   3.733   2.338  15.248 -0.2670  0.5647  0.0644
 4369TIP3    H234523   3.775   2.432  15.137  0.2739  0.3847  0.1140
 4370TIP3   OH234524   2.918   4.744  13.985  0.0219 -0.0113  0.1780
 4370TIP3    H134525   2.972   4.749  13.906  0.6970  0.1894  0.6440
 4370TIP3    H234526   2.937   4.658  14.022  0.5717  0.3305  0.7178
 4371TIP3   OH234527   2.215   0.197  16.498 -0.4211 -0.1090 -0.3947
 4371TIP3    H134528   2.293   0.164  16.453 -0.3969  0.6176 -0.8962
 4371TIP3    H234529   2.154   0.124  16.498  0.3957 -0.8027  0.3268
 4372TIP3   OH234530   2.961   5.636  13.105  0.3773  0.0439 -0.2291
 4372TIP3    H134531   3.007   5.682  13.035  0.8585 -1.3373 -0.8466
 4372TIP3    H234532   3.011   5.555  13.117 -0.9082 -0.6928  0.2577
 4373TIP3   OH234533   1.644   4.635  15.007 -0.1745  0.3827  0.1989
 4373TIP3    H134534   1.648   4.603  15.098 -1.9003  0.6092  0.3696
 4373TIP3    H234535   1.648   4.730  15.015  0.8901  0.3695 -0.0580
 4374TIP3   OH234536   5.884   2.054  16.624  0.5378 -0.0913 -0.1377
 4374TIP3    H134537   5.891   2.121  16.556  2.2948 -0.8066 -0.7029
 4374TIP3    H234538   5.822   2.090  16.688 -1.1573  0.6003 -2.1004
 4375TIP3   OH234539   2.778   2.813  15.461 -0.0617 -0.1444  0.8733
 4375TIP3    H134540   2.819   2.793  15.545  0.7660 -0.8856  0.2887
 4375TIP3    H234541   2.851   2.826  15.400 -0.6573 -3.2549 -0.5945
 4376TIP3   OH234542   1.268   3.828  16.255 -0.7295  0.0327  0.3953
 4376TIP3    H134543   1.206   3.790  16.317  0.0235  0.8208  1.6457
 4376TIP3    H234544   1.354   3.812  16.294 -0.3502  2.0601  0.4005
 4377TIP3   OH234545   0.101   1.225  13.455  0.4173 -0.8944 -0.5983
 4377TIP3    H134546   0.132   1.162  13.390  2.6337 -3.6936  2.9789
 4377TIP3    H234547   0.158   1.301  13.444  0.8874 -1.4002 -1.7821
 4378TIP3   OH234548   0.491   1.910   4.702  0.1472  0.3008 -0.3381
 4378TIP3    H134549   0.523   1.892   4.613  1.9373  2.3434 -0.1301
 4378TIP3    H234550   0.544   1.855   4.759  0.5578  0.7112 -0.3281
 4379TIP3   OH234551   4.123   6.303   3.011  1.0692  0.1880  0.3663
 4379TIP3    H134552   4.088   6.303   2.922 -1.5877  1.3300  1.3538
 4379TIP3    H234553   4.188   6.233   3.012  1.1121  0.1482 -2.4370
 4380TIP3   OH234554   0.862   0.459   1.512  0.0212 -0.2293  0.6320
 4380TIP3    H134555   0.871   0.420   1.599 -0.6735 -0.3108  0.6695
 4380TIP3    H234556   0.879   0.552   1.525  1.7570 -0.5119  0.5323
 4381TIP3   OH234557   1.274   0.656  16.361 -0.4198 -0.1824  0.0324
 4381TIP3    H134558   1.196   0.711  16.351  0.0486  0.6278  0.7565
 4381TIP3    H234559   1.260   0.608  16.442  0.4280  0.9597  0.8663
 4382TIP3   OH234560   3.498   3.417  12.252  0.7432  0.6610  0.3203
 4382TIP3    H134561   3.510   3.511  12.268 -0.0640  0.7177  0.5944
 4382TIP3    H234562   3.451   3.386  12.328 -1.3304  0.5418 -0.9699
 4383TIP3   OH234563   2.973   2.999  16.382 -0.4098 -0.4591 -0.5292
 4383TIP3    H134564   2.961   2.921  16.328 -1.5427 -0.3703 -0.4097
 4383TIP3    H234565   3.068   3.011  16.385 -0.0037 -3.6035  1.9991
 4384TIP3   OH234566   0.858   3.456   0.739  0.0463 -0.2122  0.2108
 4384TIP3    H134567   0.858   3.552   0.740  0.6961 -0.1476 -2.5335
 4384TIP3    H234568   0.816   3.433   0.656  1.3593 -2.2820  0.0973
 4385TIP3   OH234569   5.016   3.880   4.980  0.4535 -0.1975  0.4998
 4385TIP3    H134570   5.012   3.876   5.076 -1.1019 -0.3766  0.4482
 4385TIP3    H234571   5.058   3.964   4.961 -0.7955  0.6329  1.3321
 4386TIP3   OH234572   4.554   4.755   1.419 -0.2486  0.2936 -0.8093
 4386TIP3    H134573   4.466   4.718   1.413  0.6117 -2.2231  0.8225
 4386TIP3    H234574   4.565   4.806   1.339 -2.5285 -0.8407 -1.8835
 4387TIP3   OH234575   2.318   3.150  12.262 -0.7001 -0.2781 -0.3566
 4387TIP3    H134576   2.395   3.207  12.269 -0.7831 -0.1043 -0.8651
 4387TIP3    H234577   2.331   3.085  12.331 -1.6549  1.5724  1.6200
 4388TIP3   OH234578   6.003   0.590  11.454 -0.6668  0.1275  0.1071
 4388TIP3    H134579   5.979   0.675  11.490 -0.7179 -0.3218  1.1440
 4388TIP3    H234580   5.920   0.543  11.446 -0.4132 -0.5851  1.5245
 4389TIP3   OH234581   6.512   3.295   4.387 -0.1384 -0.4825 -0.3276
 4389TIP3    H134582   6.433   3.335   4.351 -1.1505 -1.2307  0.9941
 4389TIP3    H234583   6.548   3.362   4.445 -0.5850 -0.6430  0.1423
 4390TIP3   OH234584   3.785   6.693   2.296  0.0567  0.0456  0.2875
 4390TIP3    H134585   3.854   6.632   2.323  0.2337 -0.0485 -0.3704
 4390TIP3    H234586   3.829   6.778   2.290 -0.7396  0.7617  3.7311
 4391TIP3   OH234587   4.587   4.379   4.263  0.1655  0.1171  0.3803
 4391TIP3    H134588   4.529   4.418   4.197 -0.2297  1.3041  1.4121
 4391TIP3    H234589   4.555   4.290   4.273 -0.2424  0.1567 -0.4982
 4392TIP3   OH234590   4.293   4.455  11.363 -0.2883 -0.8290 -0.3394
 4392TIP3    H134591   4.340   4.477  11.444 -1.9126 -0.3379  0.4927
 4392TIP3    H234592   4.230   4.389  11.389  0.6248 -2.2471 -1.6633
 4393TIP3   OH234593   1.134   5.203  15.246  0.2906  0.5003  0.4932
 4393TIP3    H134594   1.123   5.281  15.190 -1.1637  1.1312  1.6181
 4393TIP3    H234595   1.133   5.130  15.185 -0.1628  1.2494 -0.4200
 4394TIP3   OH234596   0.065   6.715  16.385  0.5868  0.2616 -0.0869
 4394TIP3    H134597   0.038   6.789  16.330  0.6161  0.9088  0.7589
 4394TIP3    H234598   0.160   6.718  16.384  0.7613 -2.3334 -3.4975
 4395TIP3   OH234599   4.930   1.332   6.211  0.2180  0.0211 -0.2369
 4395TIP3    H134600   4.974   1.290   6.286  0.0581  0.5202  0.1371
 4395TIP3    H234601   4.853   1.277   6.195 -0.1441  0.3256  0.4331
 4396TIP3   OH234602   4.801   4.230  12.026  0.3055 -0.6376 -0.1480
 4396TIP3    H134603   4.814   4.192  12.112  0.8420  0.5574  0.3060
 4396TIP3    H234604   4.792   4.324  12.041 -3.6960 -0.8107 -0.9893
 4397TIP3   OH234605   6.369   6.413   5.856  0.1666  0.0890  0.1050
 4397TIP3    H134606   6.339   6.322   5.862 -0.8745  0.4999  1.4747
 4397TIP3    H234607   6.429   6.423   5.930  1.3143  0.1466 -0.8252
 4398TIP3   OH234608   1.262   5.660   2.317 -0.3028  0.3349 -0.4969
 4398TIP3    H134609   1.350   5.693   2.332 -0.7920  1.7370 -0.6305
 4398TIP3    H234610   1.275   5.583   2.262  1.1542 -2.2594  3.2767
 4399TIP3   OH234611   4.860   3.650   4.249 -0.5677  0.0666 -0.7533
 4399TIP3    H134612   4.885   3.729   4.298  0.3065  0.5475 -1.9464
 4399TIP3    H234613   4.775   3.625   4.286 -0.6237  1.2787 -0.0200
 4400TIP3   OH234614   4.267   1.347  12.400  0.0768  0.3724  0.0718
 4400TIP3    H134615   4.287   1.433  12.363  0.6670 -0.3301 -1.2535
 4400TIP3    H234616   4.213   1.305  12.335 -3.3577  1.1079  2.3268
 4401TIP3   OH234617   1.141   2.542  12.046  0.3586  0.0548  0.1299
 4401TIP3    H134618   1.200   2.477  12.084 -0.4901 -0.0861  1.2420
 4401TIP3    H234619   1.169   2.626  12.082 -0.4174 -0.0731  1.0605
 4402TIP3   OH234620   2.207   3.206   3.055 -0.5672  0.2420  0.0989
 4402TIP3    H134621   2.225   3.231   3.146 -0.3751  0.1229  0.0946
 4402TIP3    H234622   2.140   3.138   3.061 -1.0204  0.6875  0.1158
 4403TIP3   OH234623   0.030   1.957  12.453 -0.3767 -0.3633 -0.2264
 4403TIP3    H134624  -0.051   1.985  12.409 -0.3005 -0.1233 -0.2145
 4403TIP3    H234625   0.089   2.032  12.444  0.2659 -0.9922 -1.3005
 4404TIP3   OH234626   3.684   3.378   6.096 -0.4474 -0.8658  0.3811
 4404TIP3    H134627   3.606   3.420   6.061  1.7712  2.7910 -0.4912
 4404TIP3    H234628   3.675   3.286   6.071 -3.1967 -0.0292 -2.0334
 4405TIP3   OH234629   3.499   1.122   2.738 -0.2240  0.3827 -0.0703
 4405TIP3    H134630   3.584   1.161   2.715 -0.0651 -0.0713 -0.2615
 4405TIP3    H234631   3.436   1.192   2.724 -0.1335  0.1233 -1.9613
 4406TIP3   OH234632   6.759   2.488   3.604  0.3455 -0.2717  0.4403
 4406TIP3    H134633   6.701   2.506   3.678 -0.5828 -0.2479 -0.2688
 4406TIP3    H234634   6.706   2.512   3.527  0.8197 -1.5057 -0.2785
 4407TIP3   OH234635   1.668   4.743   3.606  0.1057 -0.1730  0.1322
 4407TIP3    H134636   1.674   4.649   3.622 -1.0309 -0.8465 -3.0498
 4407TIP3    H234637   1.585   4.769   3.646  0.5589 -0.4471  1.2650
 4408TIP3   OH234638   4.016   4.705  14.009  0.2929  0.0035 -0.1070
 4408TIP3    H134639   4.027   4.681  14.102  2.2035 -1.4091 -0.6573
 4408TIP3    H234640   3.932   4.749  14.006  0.0836 -0.1253  2.2825
 4409TIP3   OH234641   5.394   0.098  16.746 -0.1316 -0.0380  0.4272
 4409TIP3    H134642   5.331   0.027  16.736  0.8874 -0.8465 -0.2700
 4409TIP3    H234643   5.376   0.134  16.833  0.2008 -1.9644  1.3050
 4410TIP3   OH234644   4.216   2.750   2.324 -0.8217 -0.4342 -0.1993
 4410TIP3    H134645   4.257   2.835   2.308  0.6351 -0.9744  0.5587
 4410TIP3    H234646   4.166   2.732   2.245 -0.7331  0.8931 -0.5666
 4411TIP3   OH234647   5.554   6.376  14.604  0.4109  0.3731  0.0812
 4411TIP3    H134648   5.589   6.287  14.598  0.0060  0.2038  0.1882
 4411TIP3    H234649   5.481   6.377  14.543  1.5704  1.2046 -1.3237
 4412TIP3   OH234650   4.112   1.409  15.828 -0.0941 -0.1965 -0.3410
 4412TIP3    H134651   4.123   1.321  15.863  0.2367 -0.6127 -1.4837
 4412TIP3    H234652   4.017   1.421  15.823 -0.1498 -0.0066  0.9978
 4413TIP3   OH234653   3.369   0.405  15.019  0.0168 -0.1928 -0.9383
 4413TIP3    H134654   3.328   0.389  14.934 -0.8157  0.2370 -0.6312
 4413TIP3    H234655   3.463   0.404  15.002 -0.0690 -2.6695 -1.3987
 4414TIP3   OH234656   3.671   4.741  13.740  0.4922 -0.1552  0.2246
 4414TIP3    H134657   3.592   4.738  13.686 -0.2236  0.3840  1.2057
 4414TIP3    H234658   3.735   4.788  13.687 -0.2089  0.3878 -0.1545
 4415TIP3   OH234659   5.893   0.122  14.302  0.1620  0.5450  0.3811
 4415TIP3    H134660   5.848   0.052  14.349 -0.7823 -0.2437 -1.6810
 4415TIP3    H234661   5.830   0.195  14.302  1.5110  1.8150  3.3900
 4416TIP3   OH234662   6.529   0.135  14.308  0.1521 -0.4096 -0.5949
 4416TIP3    H134663   6.451   0.092  14.272 -0.5751 -1.2963  1.9108
 4416TIP3    H234664   6.496   0.217  14.345  0.7351  0.0932 -1.1861
 4417TIP3   OH234665   4.893   5.033  17.073  0.3855 -0.2582 -0.6572
 4417TIP3    H134666   4.849   4.948  17.083 -1.5822  0.7062 -0.8726
 4417TIP3    H234667   4.828   5.088  17.029  1.5463  1.4443 -0.2694
 4418TIP3   OH234668   2.592   0.122  14.511 -0.2592  0.0019  0.1832
 4418TIP3    H134669   2.625   0.108  14.600 -1.7696  1.0018  0.9151
 4418TIP3    H234670   2.614   0.214  14.493 -1.8605  0.4286  0.3585
 4419TIP3   OH234671   2.306   4.336  16.559 -0.5302  0.0586  0.0562
 4419TIP3    H134672   2.338   4.312  16.472 -0.0069 -0.4138  0.3700
 4419TIP3    H234673   2.275   4.426  16.549  1.3941  0.7282 -0.1430
 4420TIP3   OH234674   0.708   4.888  13.781 -0.2062 -0.3624 -0.2866
 4420TIP3    H134675   0.705   4.793  13.768  0.4294 -0.4353  0.0474
 4420TIP3    H234676   0.676   4.925  13.699 -1.3497 -0.8744 -0.0831
 4421TIP3   OH234677   2.186   1.025   2.943 -0.5036 -0.7246 -0.2442
 4421TIP3    H134678   2.118   1.023   3.011 -0.3189 -0.6622 -0.0590
 4421TIP3    H234679   2.138   1.007   2.862 -1.1226  1.5933 -0.4241
 4422TIP3   OH234680   6.719   2.872  17.149  0.2513 -0.0608  0.1808
 4422TIP3    H134681   6.797   2.824  17.123  1.0271  0.8072  0.8737
 4422TIP3    H234682   6.745   2.964  17.146 -0.5085  0.2013  1.1858
 4423TIP3   OH234683   0.928   2.210  16.873  0.5946 -0.1936 -0.3639
 4423TIP3    H134684   1.002   2.266  16.847  0.7580 -0.1121  0.2751
 4423TIP3    H234685   0.852   2.267  16.869  0.4407 -0.4879 -1.8275
 4424TIP3   OH234686   1.079   6.325  15.728 -0.5184  0.4756 -0.1714
 4424TIP3    H134687   1.068   6.417  15.704 -1.1990  0.0646 -1.4867
 4424TIP3    H234688   1.066   6.277  15.646  1.5493 -0.6820  0.1532
 4425TIP3   OH234689   2.929   2.132   1.539  0.6397 -0.1429  0.2437
 4425TIP3    H134690   2.991   2.204   1.525  2.0239 -1.4204 -0.3012
 4425TIP3    H234691   2.894   2.113   1.452 -0.9135  0.8975  0.6181
 4426TIP3   OH234692   2.583   4.969   3.046 -0.6779 -0.3231  0.2649
 4426TIP3    H134693   2.564   4.877   3.030  1.2878 -0.3058 -2.5280
 4426TIP3    H234694   2.497   5.012   3.041 -1.3236 -1.6871 -0.8870
 4427TIP3   OH234695   1.902   3.713   0.167 -0.2276 -0.0170 -0.6278
 4427TIP3    H134696   1.990   3.689   0.197 -0.6272  0.0760  0.6320
 4427TIP3    H234697   1.913   3.802   0.133  0.5454 -0.6930 -2.2044
 4428TIP3   OH234698   0.764   6.420   4.770 -0.0409 -0.1522  0.2159
 4428TIP3    H134699   0.849   6.448   4.805  0.0055  0.2427 -0.2006
 4428TIP3    H234700   0.738   6.347   4.826  1.9044 -2.1458 -1.3701
 4429TIP3   OH234701   0.986   2.066   2.271  0.2274  0.4425  0.2279
 4429TIP3    H134702   0.970   2.152   2.233  0.8322  1.2778  1.8267
 4429TIP3    H234703   0.997   2.082   2.365  1.3675 -1.2289  0.4130
 4430TIP3   OH234704   1.481   4.558   5.622 -0.0299 -0.3393 -0.1838
 4430TIP3    H134705   1.401   4.573   5.673  0.8775 -1.1097  1.5161
 4430TIP3    H234706   1.552   4.587   5.680  0.9870 -0.4114 -1.3647
 4431TIP3   OH234707   2.659   1.202   1.975 -0.5332  0.2785 -0.3530
 4431TIP3    H134708   2.671   1.267   2.045  0.7857 -1.2361  0.8505
 4431TIP3    H234709   2.735   1.214   1.918  0.0156 -0.6149  0.1943
 4432TIP3   OH234710   5.740   0.790   0.433 -0.1960  0.0369 -0.1816
 4432TIP3    H134711   5.669   0.726   0.432  2.0363 -2.5331 -0.0075
 4432TIP3    H234712   5.720   0.847   0.508 -1.8261 -0.9103  0.1272
 4433TIP3   OH234713   4.423   4.573   0.211  0.2118 -0.2961  0.0127
 4433TIP3    H134714   4.384   4.660   0.224 -1.0744 -0.7573 -0.7333
 4433TIP3    H234715   4.412   4.556   0.118  3.3097  0.0723 -0.4577
 4434TIP3   OH234716   3.483   2.596   2.601  0.0988  0.8506  0.3425
 4434TIP3    H134717   3.438   2.655   2.540 -0.5660 -0.7149 -0.7105
 4434TIP3    H234718   3.445   2.615   2.686 -0.2706  1.7792 -0.0272
 4435TIP3   OH234719   5.816   3.910   5.258 -0.6178 -0.0187  0.3697
 4435TIP3    H134720   5.843   4.001   5.253  0.3965 -0.3353 -0.0232
 4435TIP3    H234721   5.731   3.912   5.303 -1.1725  1.2118 -0.7064
 4436TIP3   OH234722   5.159   5.151   4.351 -0.3985 -0.0950 -0.6630
 4436TIP3    H134723   5.217   5.166   4.425 -2.2341 -2.5490  1.3368
 4436TIP3    H234724   5.106   5.231   4.345 -0.1937  0.1512  0.6591
 4437TIP3   OH234725   5.872   3.331  13.282 -0.4912 -1.0599 -0.1795
 4437TIP3    H134726   5.919   3.399  13.330 -2.3511 -1.6080  2.5420
 4437TIP3    H234727   5.939   3.268  13.257  0.9204  0.6720 -0.7933
 4438TIP3   OH234728   2.570   4.745   5.485  0.4005 -0.1943  0.2210
 4438TIP3    H134729   2.623   4.825   5.491  0.2865 -0.0132 -0.9951
 4438TIP3    H234730   2.608   4.686   5.550  1.8926  0.0525 -0.4049
 4439TIP3   OH234731   1.780   5.846  11.085  0.2427 -0.6255  0.0648
 4439TIP3    H134732   1.864   5.826  11.044  1.8033  1.3331  2.1710
 4439TIP3    H234733   1.750   5.762  11.120  1.5563 -1.2445 -0.2593
 4440TIP3   OH234734   2.418   2.555  14.126  0.2143 -0.1608  0.6712
 4440TIP3    H134735   2.351   2.535  14.059  1.1549 -0.7716 -0.1035
 4440TIP3    H234736   2.368   2.591  14.199 -0.8853  0.1461 -0.2071
 4441TIP3   OH234737   3.754   4.637  15.200  0.6681  0.3301  0.1068
 4441TIP3    H134738   3.831   4.668  15.247 -0.6265  0.1655  2.3800
 4441TIP3    H234739   3.785   4.564  15.147  2.4278  1.4237 -0.4052
 4442TIP3   OH234740   2.511   6.617   0.061 -0.0143 -0.1996  0.1093
 4442TIP3    H134741   2.435   6.675   0.062 -1.8111 -2.5198  2.3504
 4442TIP3    H234742   2.579   6.668   0.016 -1.5762  3.5561  1.8407
 4443TIP3   OH234743   3.277   4.722  13.080 -0.0219 -0.4487 -0.2445
 4443TIP3    H134744   3.241   4.685  13.000 -2.8768  1.8198 -0.0982
 4443TIP3    H234745   3.360   4.761  13.053 -0.0421 -1.3651 -1.6899
 4444TIP3   OH234746   1.016   5.162  13.952 -0.1841 -0.4556  1.1218
 4444TIP3    H134747   1.066   5.236  13.987  3.1170 -1.3823 -1.3983
 4444TIP3    H234748   0.948   5.202  13.898  1.0370  0.7657  0.4666
 4445TIP3   OH234749   4.846   1.233  12.174 -0.0221 -0.3638 -0.0235
 4445TIP3    H134750   4.854   1.324  12.146 -0.1941 -0.4363 -0.3204
 4445TIP3    H234751   4.844   1.183  12.092  0.1689 -0.6415  0.1403
 4446TIP3   OH234752   3.283   5.830   0.661 -0.5200 -0.1228 -0.2167
 4446TIP3    H134753   3.270   5.779   0.581 -1.8922  0.0261 -0.1121
 4446TIP3    H234754   3.215   5.898   0.657  0.5675  1.0017  0.1917
 4447TIP3   OH234755   4.364   4.573  14.849 -0.1564 -0.3863 -0.2513
 4447TIP3    H134756   4.283   4.575  14.796 -0.3456 -1.0610  0.0061
 4447TIP3    H234757   4.335   4.594  14.938  0.0007 -0.3225 -0.2149
 4448TIP3   OH234758   3.077   1.924  13.544 -0.0288 -0.2506 -0.1837
 4448TIP3    H134759   3.124   1.886  13.618 -0.1284 -0.9007 -0.4459
 4448TIP3    H234760   3.029   1.999  13.581  0.9160  0.1874  0.1526
 4449TIP3   OH234761   6.158   2.198   6.174 -0.3450  0.5289 -0.4647
 4449TIP3    H134762   6.068   2.186   6.202 -0.3212 -0.2558 -0.7094
 4449TIP3    H234763   6.194   2.261   6.236 -0.3248 -1.1078  1.2339
 4450TIP3   OH234764   3.275   1.363  16.479 -0.0677 -0.1105 -0.0397
 4450TIP3    H134765   3.249   1.306  16.551 -1.7549 -2.1092 -2.1209
 4450TIP3    H234766   3.351   1.320  16.440  1.7402  1.7240  1.3886
 4451TIP3   OH234767   1.681   1.303  11.272  0.0603  0.5820  0.3890
 4451TIP3    H134768   1.752   1.352  11.314 -0.8494  1.8700  0.4590
 4451TIP3    H234769   1.721   1.220  11.246  1.8848  1.7125 -0.5404
 4452TIP3   OH234770   2.950   0.359  14.043 -0.1710 -0.4242  0.0589
 4452TIP3    H134771   2.950   0.280  13.989 -0.1015  0.0168 -0.5872
 4452TIP3    H234772   2.861   0.365  14.077  0.2445 -1.6774  1.4291
 4453TIP3   OH234773   3.207   4.094   0.184  0.4915 -0.0670 -0.2524
 4453TIP3    H134774   3.292   4.093   0.141  0.6453 -0.0719  0.0554
 4453TIP3    H234775   3.144   4.076   0.114  0.8348 -1.2920 -0.2546
 4454TIP3   OH234776   6.529   0.422  16.507 -0.0609 -0.2863  0.0519
 4454TIP3    H134777   6.541   0.327  16.502  2.3715 -0.0196  0.3249
 4454TIP3    H234778   6.565   0.446  16.592 -0.8415  0.8659  0.0626
 4455TIP3   OH234779   0.330   0.980   5.999 -0.2550 -0.4816 -0.3712
 4455TIP3    H134780   0.274   1.019   6.066  0.2353 -0.6408  0.1386
 4455TIP3    H234781   0.382   1.053   5.966  1.7099 -0.9256  1.6176
 4456TIP3   OH234782   5.915   3.161   5.381 -0.4445 -0.4558 -0.6238
 4456TIP3    H134783   5.882   3.168   5.291 -1.8292  0.0714 -0.0984
 4456TIP3    H234784   6.005   3.192   5.376 -0.5689 -0.2435 -1.8025
 4457TIP3   OH234785   3.157   5.629   2.027  0.0272  0.2854 -0.7029
 4457TIP3    H134786   3.212   5.551   2.039  0.6345  0.5508 -1.7047
 4457TIP3    H234787   3.184   5.688   2.096 -0.2781 -0.3043 -0.0732
 4458TIP3   OH234788   0.749   2.847  14.682  0.2250 -0.0640 -0.3279
 4458TIP3    H134789   0.811   2.832  14.611 -0.8026 -0.5756 -1.1215
 4458TIP3    H234790   0.689   2.913  14.649  0.1379  0.1884  0.3188
 4459TIP3   OH234791   3.307   2.404   2.245 -0.3723  0.1253  0.2141
 4459TIP3    H134792   3.241   2.471   2.229 -0.3652  0.2861  0.8295
 4459TIP3    H234793   3.303   2.389   2.339 -1.2184 -1.6197 -0.0788
 4460TIP3   OH234794   6.413   6.612  15.317 -0.4169 -0.1520  0.0969
 4460TIP3    H134795   6.452   6.526  15.298  2.5041  1.0445  0.3427
 4460TIP3    H234796   6.438   6.629  15.408 -1.9032  0.5051  0.3974
 4461TIP3   OH234797   6.667   2.470  15.289 -0.1433 -0.5093  0.1914
 4461TIP3    H134798   6.732   2.508  15.230 -0.8316  1.3470  0.5837
 4461TIP3    H234799   6.630   2.397  15.239  0.3712  0.0631 -1.0640
 4462TIP3   OH234800   0.146   6.607  14.439  0.1986 -0.4588 -0.0714
 4462TIP3    H134801   0.080   6.665  14.477  1.1838  2.2845 -2.3939
 4462TIP3    H234802   0.224   6.622  14.492  0.3481  0.0928 -0.4409
 4463TIP3   OH234803   4.337   1.194  16.931 -0.4738  0.1446  0.0626
 4463TIP3    H134804   4.417   1.245  16.926  0.7769 -1.8986 -1.2431
 4463TIP3    H234805   4.365   1.103  16.924 -2.7595 -0.7054  1.1380
 4464TIP3   OH234806   3.755   2.193  12.485  0.4943  0.3606  0.4750
 4464TIP3    H134807   3.850   2.185  12.479  0.4019 -0.2989 -0.0622
 4464TIP3    H234808   3.723   2.103  12.495 -0.1777  0.4557 -0.7570
 4465TIP3   OH234809   5.588   1.917   1.171 -0.6877  0.3130  0.2247
 4465TIP3    H134810   5.598   1.988   1.234 -1.2030  1.0227 -0.4915
 4465TIP3    H234811   5.667   1.923   1.116 -1.7403  1.6729 -1.1704
 4466TIP3   OH234812   6.303   2.674  15.355 -0.2770  0.5576  0.0323
 4466TIP3    H134813   6.246   2.714  15.421  0.8876  1.7601  0.3324
 4466TIP3    H234814   6.352   2.607  15.402 -1.7779 -0.8416 -0.3364
 4467TIP3   OH234815   3.569   5.850  13.448  0.0089  0.6264  0.3052
 4467TIP3    H134816   3.567   5.857  13.543 -1.2619 -1.1246  0.4322
 4467TIP3    H234817   3.478   5.835  13.423  0.1419  2.3669 -1.3143
 4468TIP3   OH234818   3.040   4.456  10.682 -0.5195  0.5502  0.3975
 4468TIP3    H134819   3.046   4.535  10.628 -1.4221 -1.4925 -2.8148
 4468TIP3    H234820   2.948   4.454  10.710 -0.4806  0.6594  0.5364
 4469TIP3   OH234821   4.978   5.070   5.717  0.0299 -0.2119 -0.2222
 4469TIP3    H134822   5.024   5.065   5.801 -0.3754 -1.1156 -0.0516
 4469TIP3    H234823   5.008   4.993   5.669  0.6281  0.5563 -1.1008
 4470TIP3   OH234824   2.443   4.704  11.024 -0.3332 -0.0359 -0.0602
 4470TIP3    H134825   2.519   4.655  11.057 -0.7714  0.6601  2.0832
 4470TIP3    H234826   2.430   4.672  10.935  1.9142 -0.8268 -0.1278
 4471TIP3   OH234827   3.373   2.049   4.004  0.1557 -0.1685 -0.5361
 4471TIP3    H134828   3.450   2.051   3.947 -1.1668 -0.5356 -2.3584
 4471TIP3    H234829   3.375   1.961   4.043 -0.6118 -1.0295 -2.3789
 4472TIP3   OH234830   0.670   4.549  16.670  0.3353 -0.1567 -0.0364
 4472TIP3    H134831   0.625   4.539  16.586  0.8787 -0.3616 -0.3016
 4472TIP3    H234832   0.720   4.630  16.661 -0.1111  0.1694  0.3249
 4473TIP3   OH234833   1.626   5.533   5.777 -0.4055  0.3858 -1.2059
 4473TIP3    H134834   1.615   5.537   5.872 -0.1548  0.0277 -1.1601
 4473TIP3    H234835   1.613   5.623   5.747  0.4413  0.6719 -0.7286
 4474TIP3   OH234836   3.974   4.729   4.253 -0.6802  0.0143  0.2155
 4474TIP3    H134837   3.958   4.797   4.187 -1.0763 -0.2852  0.0013
 4474TIP3    H234838   4.037   4.768   4.312 -0.1224  0.1980 -0.4910
 4475TIP3   OH234839   3.746   2.872  13.662 -1.1725 -0.1594  0.3074
 4475TIP3    H134840   3.678   2.858  13.596  0.2139  0.7017 -1.3348
 4475TIP3    H234841   3.817   2.915  13.615 -0.1445  0.4655  2.3748
 4476TIP3   OH234842   6.735   4.887   1.272  0.1739  0.0812 -0.0338
 4476TIP3    H134843   6.750   4.936   1.353  2.8955 -1.8027  0.6504
 4476TIP3    H234844   6.701   4.802   1.301 -1.0156  0.2131 -1.0069
 4477TIP3   OH234845   4.621   3.659  15.589 -0.5230 -0.1498 -0.3663
 4477TIP3    H134846   4.678   3.585  15.611 -0.2799  0.6170  1.6930
 4477TIP3    H234847   4.667   3.704  15.518  0.2658 -0.9047 -0.3396
 4478TIP3   OH234848   0.171   2.674   2.127  0.2011  0.4409 -0.0759
 4478TIP3    H134849   0.190   2.632   2.043 -1.7628  1.2486 -0.9607
 4478TIP3    H234850   0.123   2.608   2.177  2.2989 -0.4191  0.8627
 4479TIP3   OH234851   5.303   5.215   5.784 -0.2247  0.1473 -0.0630
 4479TIP3    H134852   5.244   5.274   5.736 -0.0522  1.8968  1.7718
 4479TIP3    H234853   5.247   5.177   5.852  0.2079 -0.0644  0.1709
 4480TIP3   OH234854   5.332   4.742  12.514  1.1271 -0.6110  0.0349
 4480TIP3    H134855   5.343   4.836  12.525 -2.6853 -0.2419  1.5782
 4480TIP3    H234856   5.376   4.703  12.590  1.3981 -0.0023  0.1884
 4481TIP3   OH234857   3.767   6.212   4.844 -0.7882  0.1929  0.6684
 4481TIP3    H134858   3.836   6.191   4.906  0.0275 -0.5636 -0.4734
 4481TIP3    H234859   3.811   6.257   4.772 -1.4333 -0.4410 -0.1431
 4482TIP3   OH234860   1.578   6.449  14.499 -0.1656  0.0515 -0.4424
 4482TIP3    H134861   1.605   6.358  14.487  0.6323 -0.0290  1.7017
 4482TIP3    H234862   1.531   6.450  14.582  0.1889  1.6728 -0.2339
 4483TIP3   OH234863   2.698   5.379   1.776 -0.0748  0.1265 -0.1236
 4483TIP3    H134864   2.761   5.408   1.842 -1.8627  1.8867  0.8676
 4483TIP3    H234865   2.730   5.418   1.694  0.7221  0.0756  0.1592
 4484TIP3   OH234866   6.617   5.101  14.629  1.2839 -0.6561  0.0462
 4484TIP3    H134867   6.663   5.153  14.695  1.6784 -1.1350  0.1556
 4484TIP3    H234868   6.674   5.026  14.614  0.2438 -1.5842  0.6482
 4485TIP3   OH234869   2.071   0.106  14.589  0.1027  0.0127 -0.1855
 4485TIP3    H134870   2.126   0.160  14.533  0.3960 -0.4734 -0.3684
 4485TIP3    H234871   2.131   0.042  14.628 -0.1395  0.1919  0.4900
 4486TIP3   OH234872   2.610   3.834  16.064  0.1581 -0.7682 -0.0332
 4486TIP3    H134873   2.688   3.802  16.110  0.0925 -0.3806  0.3465
 4486TIP3    H234874   2.633   3.827  15.971  0.2986 -1.5318  0.0516
 4487TIP3   OH234875   6.744   1.260   0.774  0.2089  0.4378  0.2118
 4487TIP3    H134876   6.696   1.185   0.808 -2.7318  2.5366  0.9326
 4487TIP3    H234877   6.725   1.260   0.680 -1.5793  1.4805  0.5562
 4488TIP3   OH234878   4.355   2.913  14.070 -0.4146 -0.0007  0.4704
 4488TIP3    H134879   4.294   2.933  14.141 -0.3186 -0.2815  0.6313
 4488TIP3    H234880   4.300   2.876  14.001 -0.5472  0.5277  0.2893
 4489TIP3   OH234881   4.671   5.491  14.714  0.2395 -0.8283  0.5152
 4489TIP3    H134882   4.706   5.402  14.718 -0.2837 -1.1086 -0.7038
 4489TIP3    H234883   4.608   5.496  14.786  0.2692 -1.4517  0.5852
 4490TIP3   OH234884   1.988   0.965   0.258  0.1045 -0.1108  0.4076
 4490TIP3    H134885   2.034   0.962   0.174  0.0573  0.5875  0.3611
 4490TIP3    H234886   2.057   0.966   0.324  0.1416 -0.7559  0.3895
 4491TIP3   OH234887   5.753   0.326   3.261  0.0299  0.0734 -0.0845
 4491TIP3    H134888   5.688   0.305   3.194 -0.3290 -0.9020  0.5551
 4491TIP3    H234889   5.707   0.386   3.321  0.6789  1.7908 -1.2561
 4492TIP3   OH234890   3.586   5.028   2.420 -0.2144 -0.1887 -0.2245
 4492TIP3    H134891   3.498   5.016   2.386 -0.0171 -0.1687 -0.7553
 4492TIP3    H234892   3.594   5.122   2.435  0.0164 -0.0756 -1.0237
 4493TIP3   OH234893   1.713   3.892  12.011  0.4156  0.0826  0.4080
 4493TIP3    H134894   1.701   3.966  11.952  0.7983 -0.5717 -0.5009
 4493TIP3    H234895   1.790   3.915  12.064  0.2606  0.5321  0.4329
 4494TIP3   OH234896   0.951   2.023  17.066 -0.2570 -0.4217 -0.8693
 4494TIP3    H134897   0.949   2.073  16.984  0.2143  0.5314 -0.3208
 4494TIP3    H234898   0.859   2.012  17.090 -0.3621  1.9415  0.0082
 4495TIP3   OH234899   2.229   4.498   3.108 -0.3383  0.3074 -0.2567
 4495TIP3    H134900   2.166   4.517   3.178 -0.6194 -0.8945 -0.1874
 4495TIP3    H234901   2.314   4.494   3.153 -0.2253  1.6387 -0.3101
 4496TIP3   OH234902   1.807   1.670   4.910  0.2631 -0.0587 -0.3788
 4496TIP3    H134903   1.891   1.630   4.933  1.0701  1.1544 -1.1805
 4496TIP3    H234904   1.826   1.725   4.834 -0.9421  1.4748  0.3956
 4497TIP3   OH234905   4.731   6.772  12.648 -0.3303  1.4489  0.2483
 4497TIP3    H134906   4.719   6.867  12.649 -3.5500  1.0880  1.2420
 4497TIP3    H234907   4.720   6.745  12.739  0.2388  0.0530 -0.0748
 4498TIP3   OH234908   1.043   3.585   1.365 -0.0357  0.9778  0.1150
 4498TIP3    H134909   0.991   3.579   1.445 -0.2497 -2.3165 -0.2253
 4498TIP3    H234910   0.993   3.534   1.300  2.0316  0.4109 -1.0684
 4499TIP3   OH234911   0.625   3.944  13.275 -0.4271 -0.0382 -0.2700
 4499TIP3    H134912   0.587   3.918  13.359 -0.0694 -0.4453 -0.2346
 4499TIP3    H234913   0.592   4.033  13.260 -2.9620 -1.0767 -1.1668
 4500TIP3   OH234914   0.256   4.963  11.466  0.0459 -0.4970 -0.2032
 4500TIP3    H134915   0.338   4.915  11.472 -0.0639 -0.6001  0.4713
 4500TIP3    H234916   0.260   5.027  11.537 -0.0448  0.1271 -0.7560
 4501TIP3   OH234917   0.725   6.702  13.817 -0.2499 -0.4334 -0.0017
 4501TIP3    H134918   0.741   6.609  13.801  1.5032 -0.1260 -0.1353
 4501TIP3    H234919   0.757   6.746  13.738 -0.0133  0.3706  0.5322
 4502TIP3   OH234920   4.396   6.463   2.504 -0.3750 -0.3507 -0.1579
 4502TIP3    H134921   4.473   6.516   2.481  0.4128 -1.7050 -0.6674
 4502TIP3    H234922   4.353   6.448   2.420 -0.9763  0.0503  0.0777
 4503TIP3   OH234923   0.499   0.956   2.069 -0.4201 -0.0915 -0.8517
 4503TIP3    H134924   0.441   0.918   2.003  0.2992 -1.8118 -0.5161
 4503TIP3    H234925   0.587   0.934   2.038  0.1319  2.7944 -1.5518
 4504TIP3   OH234926   3.529   1.771   2.908  0.0761  0.3165  0.4650
 4504TIP3    H134927   3.590   1.812   2.847  0.2878 -0.2005  0.3266
 4504TIP3    H234928   3.448   1.823   2.900 -0.5373 -0.8894 -1.6674
 4505TIP3   OH234929   0.673   2.497  14.773 -0.3603 -0.6983  0.4200
 4505TIP3    H134930   0.599   2.558  14.767 -1.4621 -2.0414  0.1520
 4505TIP3    H234931   0.731   2.522  14.701 -0.9433 -0.1608  0.1324
 4506TIP3   OH234932   4.460   2.110   1.757 -0.1082 -0.3775 -0.2787
 4506TIP3    H134933   4.528   2.088   1.693  0.1267  0.3237 -0.2785
 4506TIP3    H234934   4.389   2.145   1.704 -0.0614 -0.1474 -0.1883
 4507TIP3   OH234935   3.798   5.943  11.427 -0.2915  0.1481 -0.3906
 4507TIP3    H134936   3.813   6.028  11.468  1.4888  0.0537 -0.8080
 4507TIP3    H234937   3.730   5.901  11.481  1.1671  0.4924  1.7682
 4508TIP3   OH234938   0.714   5.000   4.185 -0.2087 -0.0640  0.2540
 4508TIP3    H134939   0.786   5.055   4.215 -0.9998  1.1429 -0.0530
 4508TIP3    H234940   0.748   4.911   4.191  0.8879  0.4143  1.2710
 4509TIP3   OH234941   6.601   4.898  13.126  0.9446 -0.2404 -0.2250
 4509TIP3    H134942   6.540   4.921  13.055 -1.1846  0.3302  1.7124
 4509TIP3    H234943   6.561   4.822  13.168  0.8112  0.9812  1.9430
 4510TIP3   OH234944   4.389   0.159  12.097  0.4012  0.0020  0.0215
 4510TIP3    H134945   4.471   0.125  12.134 -0.5189  0.1480  2.2396
 4510TIP3    H234946   4.418   0.219  12.028  2.1246 -1.2888 -0.4176
 4511TIP3   OH234947   1.913   2.423  13.427 -0.2803  0.5925  0.1788
 4511TIP3    H134948   1.890   2.515  13.441 -1.7975 -0.1666  3.2328
 4511TIP3    H234949   2.001   2.414  13.463 -0.0661  0.8911 -0.2735
 4512TIP3   OH234950   0.085   2.625   1.644 -0.5484  0.3261 -0.6248
 4512TIP3    H134951   0.122   2.586   1.564 -0.8616  1.3940 -1.3042
 4512TIP3    H234952   0.069   2.717   1.620 -0.8724  0.5890  0.5940
 4513TIP3   OH234953   1.490   4.373  15.469 -0.4822  0.3906 -0.3995
 4513TIP3    H134954   1.434   4.345  15.396 -1.4333  0.0939  0.4343
 4513TIP3    H234955   1.445   4.448  15.506 -0.3326  0.1509  0.2789
 4514TIP3   OH234956   2.586   4.652  16.213  0.4748  0.5105  0.0606
 4514TIP3    H134957   2.522   4.609  16.156 -0.5966 -0.8369  2.2116
 4514TIP3    H234958   2.601   4.589  16.284  2.1276  1.9504  1.0120
 4515TIP3   OH234959   4.132   5.071  13.664 -0.6632 -0.2004  0.3275
 4515TIP3    H134960   4.188   5.137  13.704 -0.4126  0.0275 -0.4006
 4515TIP3    H234961   4.145   5.082  13.570 -1.5626 -0.4581  0.1680
 4516TIP3   OH234962   6.076   0.731   4.596  0.4574  0.5259  0.1150
 4516TIP3    H134963   6.021   0.722   4.519  1.1624 -1.3251 -0.1757
 4516TIP3    H234964   6.102   0.642   4.619  0.3806  1.0521  2.4023
 4517TIP3   OH234965   1.290   3.359  12.305  0.4013 -0.5704  0.1261
 4517TIP3    H134966   1.207   3.321  12.276 -0.2104 -0.6293  1.9174
 4517TIP3    H234967   1.277   3.454  12.297  1.0617 -0.6219 -1.9683
 4518TIP3   OH234968   0.879   3.063  12.595  0.2579 -0.5464 -0.2350
 4518TIP3    H134969   0.793   3.088  12.630  1.2796  0.1669  1.8401
 4518TIP3    H234970   0.875   3.088  12.502 -0.9781  1.6053  0.3579
 4519TIP3   OH234971   4.174   3.830  12.651 -0.1350 -0.2798  0.2803
 4519TIP3    H134972   4.175   3.890  12.577  0.0423 -0.3592  0.2184
 4519TIP3    H234973   4.104   3.768  12.631 -0.7293  0.2732  0.6359
 4520TIP3   OH234974   2.605   1.515   1.745  0.1455 -0.4028  0.2557
 4520TIP3    H134975   2.669   1.450   1.719  1.1836  0.3557  0.8881
 4520TIP3    H234976   2.623   1.590   1.689 -0.8916 -0.5636 -0.3075
 4521TIP3   OH234977   5.356   2.605  14.833 -0.1569 -0.6040  0.7104
 4521TIP3    H134978   5.406   2.540  14.883 -0.2056 -0.4087  1.0200
 4521TIP3    H234979   5.285   2.631  14.892  0.1744  0.1245  0.7984
 4522TIP3   OH234980   2.436   1.036   4.503  0.3872  0.6550 -0.0943
 4522TIP3    H134981   2.494   1.101   4.463 -0.1405  0.5479 -1.0508
 4522TIP3    H234982   2.363   1.028   4.442  0.1726 -0.4284  0.2862
 4523TIP3   OH234983   6.482   1.677  11.544  0.1356 -0.3261  0.2238
 4523TIP3    H134984   6.553   1.701  11.604  0.4055  0.2401 -0.3178
 4523TIP3    H234985   6.501   1.725  11.464 -0.9254 -0.0896  0.1101
 4524TIP3   OH234986   3.825   6.652  14.137  0.8094 -0.3021 -0.1436
 4524TIP3    H134987   3.852   6.711  14.207 -1.3693  0.0239  0.4642
 4524TIP3    H234988   3.864   6.690  14.058  3.4454 -0.7851  0.8603
 4525TIP3   OH234989   1.333   4.230   0.949  0.0461 -0.1361 -0.2547
 4525TIP3    H134990   1.380   4.238   1.032  1.5456  0.8297 -1.1639
 4525TIP3    H234991   1.245   4.261   0.968 -0.1086 -1.5061  1.3754
 4526TIP3   OH234992   1.669   0.600  15.754  0.5093 -0.4162 -0.1817
 4526TIP3    H134993   1.725   0.677  15.739 -0.7027  0.5094 -0.0386
 4526TIP3    H234994   1.586   0.637  15.784  0.1100 -1.8248  0.4705
 4527TIP3   OH234995   1.282   3.369   1.243  0.2942 -0.0854  0.0527
 4527TIP3    H134996   1.225   3.426   1.192 -0.3345 -0.9317 -0.1988
 4527TIP3    H234997   1.371   3.402   1.228 -0.1095  1.0903  0.2595
 4528TIP3   OH234998   5.250   4.991  15.817 -0.2006 -0.2816 -0.0731
 4528TIP3    H134999   5.299   4.914  15.847  1.3453  0.6095 -0.2936
 4528TIP3    H235000   5.217   5.031  15.897 -1.1158 -1.2167  0.0401
 4529TIP3   OH235001   2.194   5.744  12.358 -0.4153  0.5749  0.0252
 4529TIP3    H135002   2.150   5.672  12.313 -0.4563  0.4455  0.2749
 4529TIP3    H235003   2.287   5.720  12.357 -0.5409  0.0183  1.0238
 4530TIP3   OH235004   6.096   4.926  11.262 -0.5633 -0.6925  0.1299
 4530TIP3    H135005   6.183   4.917  11.300 -0.2770  2.1754  0.2780
 4530TIP3    H235006   6.040   4.951  11.336 -1.2445 -1.2185 -0.1997
 4531TIP3   OH235007   6.349   4.688   4.481 -0.1179 -0.0113  0.0509
 4531TIP3    H135008   6.333   4.594   4.492  1.3413 -0.4871 -1.7310
 4531TIP3    H235009   6.283   4.718   4.418 -1.7356  0.5657  1.9534
 4532TIP3   OH235010   5.776   4.921  16.284 -0.2514  0.1154  0.0428
 4532TIP3    H135011   5.745   5.004  16.249 -0.1731 -0.2253 -0.8581
 4532TIP3    H235012   5.697   4.867  16.292 -0.4277  0.5575  1.4557
 4533TIP3   OH235013   6.343   2.800   5.336  0.0651  0.6235 -0.4823
 4533TIP3    H135014   6.345   2.875   5.395  0.0870  0.3141 -0.0913
 4533TIP3    H235015   6.426   2.804   5.289  0.7116 -0.0122  0.5989
 4534TIP3   OH235016   6.746   4.709   0.789  0.1573 -0.7657 -0.2916
 4534TIP3    H135017   6.771   4.654   0.714  0.0139 -1.5589  0.2350
 4534TIP3    H235018   6.787   4.667   0.864 -0.1878 -0.3085  0.1566
 4535TIP3   OH235019   2.748   0.631  12.404 -0.2346  0.0993  0.4137
 4535TIP3    H135020   2.760   0.580  12.484 -1.3036 -1.2107 -0.2317
 4535TIP3    H235021   2.676   0.691  12.424  2.4961  3.0297  1.9323
 4536TIP3   OH235022   5.361   1.120   0.216  0.1941  0.6131  0.1205
 4536TIP3    H135023   5.429   1.140   0.280  1.3256  0.7656 -1.1285
 4536TIP3    H235024   5.309   1.200   0.211 -0.4193  0.3188  1.4689
 4537TIP3   OH235025   5.993   6.272   2.650  0.1252  0.2885 -0.5095
 4537TIP3    H135026   6.046   6.219   2.709  1.3297 -0.7735 -2.4647
 4537TIP3    H235027   5.993   6.223   2.568 -2.8816  0.8863 -0.9410
 4538TIP3   OH235028   6.407   3.244   1.284 -0.3334 -0.1357 -0.1679
 4538TIP3    H135029   6.492   3.211   1.310  0.3706  0.8334 -1.1701
 4538TIP3    H235030   6.425   3.332   1.251 -1.7026  0.0296 -0.5062
 4539TIP3   OH235031   1.204   5.393  10.591  0.4607 -0.2831 -0.2098
 4539TIP3    H135032   1.136   5.379  10.525  0.4779 -0.5408 -0.1747
 4539TIP3    H235033   1.253   5.311  10.592 -1.5509 -1.5485  2.4419
 4540TIP3   OH235034   4.558   6.714   0.146  0.1471 -0.8548 -0.7419
 4540TIP3    H135035   4.580   6.800   0.182  1.1662 -1.4317  0.0612
 4540TIP3    H235036   4.473   6.726   0.103  0.7606  0.7924 -1.5259
 4541TIP3   OH235037   0.759   2.086   3.894  0.2452  0.3864  0.0301
 4541TIP3    H135038   0.721   2.032   3.964 -2.1330 -0.1045 -1.5845
 4541TIP3    H235039   0.850   2.058   3.889  0.2456 -0.0969  2.4281
 4542TIP3   OH235040   4.260   4.599   4.151 -0.0833 -0.3631 -0.2209
 4542TIP3    H135041   4.293   4.682   4.187 -0.7424  0.4396 -1.4212
 4542TIP3    H235042   4.250   4.542   4.226 -0.3396  0.9077  0.7225
 4543TIP3   OH235043   6.430   2.175   3.758 -0.0750 -0.7134 -0.8932
 4543TIP3    H135044   6.470   2.155   3.674  1.2384  0.7665 -0.6266
 4543TIP3    H235045   6.361   2.239   3.738  1.2808  0.8459 -0.6572
 4544TIP3   OH235046   3.769   0.709  12.917  0.2676  0.0581  0.2231
 4544TIP3    H135047   3.696   0.746  12.867  0.0901 -1.4639 -0.6638
 4544TIP3    H235048   3.843   0.711  12.856  0.6702  0.4459  0.7139
 4545TIP3   OH235049   3.312   3.715   0.813  0.5200  0.1749  0.0967
 4545TIP3    H135050   3.267   3.636   0.785 -1.3045  0.9299  0.8397
 4545TIP3    H235051   3.254   3.754   0.879  0.9073  2.6563 -0.9732
 4546TIP3   OH235052   0.233   2.542   5.227 -0.2851 -0.7600  0.2799
 4546TIP3    H135053   0.214   2.578   5.141 -0.1020 -1.7394 -0.1706
 4546TIP3    H235054   0.152   2.557   5.277 -1.8084 -3.6205 -1.2031
 4547TIP3   OH235055   1.594   4.205  14.399  0.3030  0.2760 -0.3287
 4547TIP3    H135056   1.570   4.272  14.462  0.2961  1.1565 -1.2558
 4547TIP3    H235057   1.653   4.146  14.447  1.3743  1.6833  0.1085
 4548TIP3   OH235058   1.163   0.624   6.036  0.1479  0.0173 -0.1002
 4548TIP3    H135059   1.255   0.635   6.059 -0.1987 -1.6138  2.2821
 4548TIP3    H235060   1.143   0.533   6.061 -1.7073 -0.1394 -2.0222
 4549TIP3   OH235061   6.742   2.015  13.023  0.5153 -0.1275 -0.5339
 4549TIP3    H135062   6.812   1.980  13.078  0.3332 -0.3347 -0.4343
 4549TIP3    H235063   6.786   2.045  12.944  0.4855 -1.9957 -1.2825
 4550TIP3   OH235064   0.501   1.808   0.187  0.0493 -0.0757  0.0273
 4550TIP3    H135065   0.432   1.788   0.124  2.1490  0.1780 -2.4243
 4550TIP3    H235066   0.455   1.849   0.260 -2.5516 -1.1548 -0.9204
 4551TIP3   OH235067   1.799   2.037  13.260  0.6110  0.0643 -0.0809
 4551TIP3    H135068   1.833   1.953  13.227  2.5378  0.6098  0.4298
 4551TIP3    H235069   1.878   2.090  13.275 -0.5994  2.0317 -0.5466
 4552TIP3   OH235070   5.342   2.345   2.664  0.3708 -0.3078 -0.1398
 4552TIP3    H135071   5.335   2.437   2.691  1.4357 -0.5083  0.8293
 4552TIP3    H235072   5.395   2.347   2.585  0.3792 -0.0939 -0.1291
 4553TIP3   OH235073   4.123   3.771   4.791  0.4725 -0.2193  0.3915
 4553TIP3    H135074   4.048   3.815   4.832  1.2492  2.1163 -0.6069
 4553TIP3    H235075   4.085   3.696   4.745 -0.9084 -0.5712  2.0332
 4554TIP3   OH235076   0.160   6.421  14.009  0.5628  0.4688 -0.4355
 4554TIP3    H135077   0.222   6.362  13.966 -2.2964 -2.3027 -0.9541
 4554TIP3    H235078   0.181   6.415  14.102  0.4111 -1.3256 -0.4956
 4555TIP3   OH235079   0.160   2.976   5.939  0.0009  0.3172 -0.3494
 4555TIP3    H135080   0.187   3.008   5.853  0.1591 -0.2684 -0.5211
 4555TIP3    H235081   0.209   3.030   6.001  0.8324 -0.0834 -0.6500
 4556TIP3   OH235082   2.272   3.794   6.208 -0.1386  0.2377  0.0062
 4556TIP3    H135083   2.315   3.754   6.284  0.2855 -0.3646 -0.5383
 4556TIP3    H235084   2.191   3.832   6.242 -0.7465 -1.4430  0.4799
 4557TIP3   OH235085   1.434   6.385   2.831  0.3655  0.1954  0.0734
 4557TIP3    H135086   1.437   6.441   2.909 -1.7900  2.0021 -1.0772
 4557TIP3    H235087   1.341   6.363   2.821  0.9055 -1.8861 -0.7230
 4558TIP3   OH235088   2.256   0.361  16.769 -0.4711  0.4112  0.1015
 4558TIP3    H135089   2.281   0.450  16.748 -1.6237  1.1073  1.5655
 4558TIP3    H235090   2.184   0.341  16.710  0.7983 -0.1236 -1.2941
 4559TIP3   OH235091   6.487   3.051   4.776 -0.4783 -0.0520  0.0219
 4559TIP3    H135092   6.580   3.060   4.758  0.0857  0.3582  2.8284
 4559TIP3    H235093   6.455   3.141   4.784 -0.8979 -0.2030  0.0525
 4560TIP3   OH235094   0.183   2.073  11.365 -0.0029  0.1187 -0.1974
 4560TIP3    H135095   0.184   2.057  11.271 -0.4687  0.5378 -0.2759
 4560TIP3    H235096   0.104   2.029  11.396 -0.0539  0.3042 -0.0619
 4561TIP3   OH235097   0.041   2.112  14.099  0.2494  0.2844 -0.0825
 4561TIP3    H135098   0.002   2.079  14.018  1.5829 -0.1765 -0.5573
 4561TIP3    H235099   0.035   2.039  14.160  2.4001 -0.5801 -0.8603
 4562TIP3   OH235100   5.907   2.218   5.376 -0.4662 -0.4136  0.0601
 4562TIP3    H135101   5.967   2.194   5.305  1.3170 -0.1526  1.4333
 4562TIP3    H235102   5.824   2.237   5.332  1.2072  2.0095 -2.2490
 4563TIP3   OH235103   3.625   2.316   4.649 -0.1331 -0.4419 -0.5307
 4563TIP3    H135104   3.672   2.233   4.647  0.7607  0.1120 -2.7714
 4563TIP3    H235105   3.583   2.323   4.564 -1.1033  0.9155  0.0285
 4564TIP3   OH235106   5.283   6.723  11.544  0.3003  0.4070 -0.2524
 4564TIP3    H135107   5.280   6.647  11.487  0.6532  1.1535 -1.2802
 4564TIP3    H235108   5.261   6.797  11.487  0.6165  1.1537  0.5805
 4565TIP3   OH235109   2.028   1.671   4.005  0.2615 -0.2994 -0.3098
 4565TIP3    H135110   2.018   1.590   4.056  2.6396 -0.3209  0.1844
 4565TIP3    H235111   2.063   1.735   4.067 -0.4532  0.7756 -0.9926
 4566TIP3   OH235112   6.470   6.132  11.186 -0.2842 -0.1719  0.2166
 4566TIP3    H135113   6.452   6.040  11.171 -0.6883 -0.0062 -0.3076
 4566TIP3    H235114   6.552   6.149  11.141 -1.4922  0.3268 -1.8388
 4567TIP3   OH235115   1.195   2.606   6.590 -0.4594  0.3027  0.0808
 4567TIP3    H135116   1.163   2.696   6.595  0.3980  0.6144 -0.0031
 4567TIP3    H235117   1.120   2.556   6.556  0.0882  1.5362 -3.0720
 4568TIP3   OH235118   6.679   4.207  11.153  0.2886 -0.4331 -0.3754
 4568TIP3    H135119   6.762   4.246  11.125 -0.6917  2.0867  0.1450
 4568TIP3    H235120   6.704   4.142  11.219  1.8615  0.2034 -0.3294
 4569TIP3   OH235121   5.520   2.122   5.914 -0.3978 -0.5351 -0.2682
 4569TIP3    H135122   5.474   2.165   5.842 -0.3536 -1.4894 -0.8785
 4569TIP3    H235123   5.450   2.089   5.970 -0.4378 -0.0991 -0.0636
 4570TIP3   OH235124   1.250   1.970   5.257 -0.1752  0.1608  0.6140
 4570TIP3    H135125   1.283   1.998   5.172 -0.9600 -1.8374 -0.3691
 4570TIP3    H235126   1.293   1.886   5.273 -1.9961 -0.7229  0.9792
 4571TIP3   OH235127   0.241   2.192   6.048  1.2347  0.1603  0.0456
 4571TIP3    H135128   0.154   2.154   6.061  0.3550  2.2281  0.3482
 4571TIP3    H235129   0.265   2.225   6.134  2.1667 -0.0659 -0.1269
 4572TIP3   OH235130   2.771   0.999  13.765  0.2577  0.0726 -0.1569
 4572TIP3    H135131   2.784   0.939  13.838  2.0251  0.5936 -0.0088
 4572TIP3    H235132   2.769   0.944  13.687 -2.1553 -0.5387  0.2911
 4573TIP3   OH235133   1.471   1.624   3.858 -0.3499 -0.3769  0.0567
 4573TIP3    H135134   1.489   1.679   3.935 -0.1660 -0.8164  0.3318
 4573TIP3    H235135   1.415   1.678   3.802 -2.5402 -0.9597  1.6169
 4574TIP3   OH235136   4.669   4.843   4.010  0.0985 -0.7100 -0.9932
 4574TIP3    H135137   4.751   4.823   3.966  0.3931  0.3804 -0.9673
 4574TIP3    H235138   4.671   4.790   4.090  0.6221 -0.9454 -1.1605
 4575TIP3   OH235139   5.730   5.155   2.928 -0.0144  1.1401 -0.0113
 4575TIP3    H135140   5.723   5.225   2.863 -0.1251  0.4525 -0.7528
 4575TIP3    H235141   5.649   5.105   2.917 -0.3332  1.3959  1.1060
 4576TIP3   OH235142   4.870   3.444   1.428 -0.0475 -0.2554  0.1023
 4576TIP3    H135143   4.935   3.493   1.378 -0.0411  1.1425  1.4628
 4576TIP3    H235144   4.795   3.503   1.436  0.1792 -0.2260  2.2327
 4577TIP3   OH235145   0.896   0.171   3.505  0.2850 -0.7768 -0.2242
 4577TIP3    H135146   0.877   0.095   3.450  1.2568 -0.1496 -1.4470
 4577TIP3    H235147   0.890   0.137   3.594 -0.4422 -2.0134 -0.7185
 4578TIP3   OH235148   0.813   0.490   5.541  0.3166  0.2910  0.4897
 4578TIP3    H135149   0.881   0.498   5.474 -0.2403  0.0645 -0.1044
 4578TIP3    H235150   0.753   0.424   5.506 -0.9868  1.5223  0.3443
 4579TIP3   OH235151   4.943   6.375  13.090  0.0840  0.1076 -0.4652
 4579TIP3    H135152   4.893   6.334  13.161  2.5113 -0.3206  1.0446
 4579TIP3    H235153   4.876   6.409  13.031 -2.0034  0.1839  1.8490
 4580TIP3   OH235154   4.909   1.500  12.066 -0.1428 -0.1621  0.1339
 4580TIP3    H135155   4.909   1.550  11.985 -1.3151 -0.4933 -0.0726
 4580TIP3    H235156   4.867   1.558  12.130 -0.7436 -0.5519  0.0967
 4581TIP3   OH235157   1.502   5.017  11.376 -0.3793 -0.3032 -0.3376
 4581TIP3    H135158   1.474   5.016  11.468 -1.7761 -0.7116 -0.7533
 4581TIP3    H235159   1.443   5.079  11.333 -1.2661 -1.8658 -1.4178
 4582TIP3   OH235160   0.476   5.919  16.285 -0.4507 -0.1263 -0.7235
 4582TIP3    H135161   0.435   5.857  16.224 -1.6753  1.1003 -1.1667
 4582TIP3    H235162   0.414   5.926  16.358 -0.1358  0.2925 -0.4900
 4583TIP3   OH235163   1.883   0.255   1.635 -0.5741 -0.1248  0.0083
 4583TIP3    H135164   1.808   0.237   1.578  0.3343 -0.2906 -1.1585
 4583TIP3    H235165   1.910   0.344   1.611 -2.1006  1.0129  2.3895
 4584TIP3   OH235166   1.131   2.793  16.736 -0.3467 -0.1789  0.0533
 4584TIP3    H135167   1.189   2.861  16.771 -1.7996  1.1745 -0.1303
 4584TIP3    H235168   1.047   2.809  16.779 -0.4477 -2.5362  0.8142
 4585TIP3   OH235169   0.725   3.895   1.702 -0.1953 -0.2965 -0.0013
 4585TIP3    H135170   0.639   3.913   1.738 -0.1129 -0.6667  0.3723
 4585TIP3    H235171   0.764   3.832   1.761  0.2547 -0.2888 -0.2844
 4586TIP3   OH235172   3.223   4.869  14.914  0.5629 -0.2412 -0.3800
 4586TIP3    H135173   3.180   4.790  14.880 -2.0405  0.6743  0.6228
 4586TIP3    H235174   3.163   4.940  14.891 -0.0904  0.7028  3.8408
 4587TIP3   OH235175   4.740   5.557   3.698  0.5698  0.0151 -0.1853
 4587TIP3    H135176   4.707   5.609   3.771  1.4532 -0.1091  0.3048
 4587TIP3    H235177   4.763   5.473   3.736  0.4990 -0.2503 -0.7138
 4588TIP3   OH235178   4.854   1.188  11.699  0.3403  0.6356  0.5254
 4588TIP3    H135179   4.761   1.180  11.718 -0.0771  1.5754 -1.0467
 4588TIP3    H235180   4.871   1.121  11.632  0.5361  1.2394 -0.0337
 4589TIP3   OH235181   0.137   2.499  12.244 -0.2554  0.1975  0.0431
 4589TIP3    H135182   0.069   2.552  12.202  1.0881  1.2173 -0.8775
 4589TIP3    H235183   0.191   2.466  12.172 -0.3253 -1.4192  0.6898
 4590TIP3   OH235184   5.777   1.062  14.463  0.3090 -0.6227 -0.0091
 4590TIP3    H135185   5.747   1.008  14.536 -0.6914 -0.5944 -0.3896
 4590TIP3    H235186   5.870   1.074  14.479  0.1323 -0.7488  1.1753
 4591TIP3   OH235187   3.671   4.720   0.436 -0.2456 -0.2174 -0.2411
 4591TIP3    H135188   3.683   4.771   0.517 -0.8067  1.7272 -1.3632
 4591TIP3    H235189   3.740   4.752   0.377 -1.8174  0.6529 -1.6360
 4592TIP3   OH235190   2.751   1.312  14.499 -0.0199 -0.1426 -0.4363
 4592TIP3    H135191   2.810   1.376  14.460  0.6297 -0.5703 -0.1686
 4592TIP3    H235192   2.710   1.359  14.572 -0.7568  0.4567 -1.2228
 4593TIP3   OH235193   2.320   3.328  14.608  0.7093 -0.1350  0.0275
 4593TIP3    H135194   2.415   3.325  14.619  0.5688  0.0062  1.2835
 4593TIP3    H235195   2.291   3.398  14.667 -0.1751 -0.1801 -0.3455
 4594TIP3   OH235196   4.110   4.334  13.443  0.3596  0.0632  0.3690
 4594TIP3    H135197   4.118   4.239  13.455  0.2422 -0.1594 -1.1976
 4594TIP3    H235198   4.045   4.343  13.373 -1.1483  1.3690  1.8744
 4595TIP3   OH235199   1.119   5.474  15.151  0.4100 -0.3160 -0.2242
 4595TIP3    H135200   1.142   5.494  15.242  2.1213 -1.6789 -0.3373
 4595TIP3    H235201   1.033   5.515  15.139 -1.1277 -2.4596  2.8626
 4596TIP3   OH235202   2.054   5.086   5.054  0.2897 -0.4321  0.0058
 4596TIP3    H135203   2.116   5.086   5.127  1.0231  1.2429 -0.5969
 4596TIP3    H235204   2.079   5.009   5.002  1.6424  0.0262 -0.0454
 4597TIP3   OH235205   5.810   5.168   1.550  0.0540  0.4622  0.3089
 4597TIP3    H135206   5.859   5.245   1.580  2.8614 -1.0927 -0.1454
 4597TIP3    H235207   5.796   5.183   1.457  0.9522  0.2590  0.1357
 4598TIP3   OH235208   4.662   3.886   4.133  0.2588  0.0853 -0.1524
 4598TIP3    H135209   4.596   3.943   4.092  0.6795 -1.0050 -2.4296
 4598TIP3    H235210   4.618   3.801   4.142 -0.0268  0.4573  2.2859
 4599TIP3   OH235211   5.498   0.418  17.126  0.5607  0.0454 -0.1830
 4599TIP3    H135212   5.577   0.470  17.137  0.3109 -0.0955  2.5941
 4599TIP3    H235213   5.459   0.413  17.213 -2.0643 -0.6204 -1.3122
 4600TIP3   OH235214   6.552   3.571   1.756 -0.0882  0.2234  0.7705
 4600TIP3    H135215   6.553   3.486   1.712  1.5579  0.8875 -0.5166
 4600TIP3    H235216   6.510   3.631   1.694 -0.0464  0.6436  1.1384
 4601TIP3   OH235217   5.402   5.612  11.677  0.2365 -0.5282 -0.0685
 4601TIP3    H135218   5.478   5.556  11.661  1.7933  2.1601 -2.6059
 4601TIP3    H235219   5.354   5.610  11.594  0.8146  2.5314 -0.5201
 4602TIP3   OH235220   3.245   4.008   4.390  0.0215 -0.4216 -0.0607
 4602TIP3    H135221   3.251   3.974   4.479  1.4884 -1.3301 -0.4823
 4602TIP3    H235222   3.318   3.966   4.344 -0.2418  0.6533 -1.4805
 4603TIP3   OH235223   1.212   5.908   5.410  0.1027 -0.0709  0.2161
 4603TIP3    H135224   1.141   5.876   5.466  0.3568  0.4660  0.8553
 4603TIP3    H235225   1.240   5.990   5.451  0.6021  0.0942 -0.4427
 4604TIP3   OH235226   5.577   3.755  11.404  0.2302 -0.5406  0.1782
 4604TIP3    H135227   5.632   3.696  11.455 -0.1201  0.7398  2.1162
 4604TIP3    H235228   5.527   3.697  11.346  1.2943 -1.9670  0.6595
 4605TIP3   OH235229   2.285   5.299   4.543 -0.1192 -0.2697  0.1335
 4605TIP3    H135230   2.296   5.390   4.513  0.6389 -0.0049  1.1794
 4605TIP3    H235231   2.374   5.262   4.541 -0.3690 -0.8686  0.0850
 4606TIP3   OH235232   2.719   0.156  10.911 -0.2629 -0.1738  0.0313
 4606TIP3    H135233   2.742   0.064  10.928 -1.7624 -0.8002 -1.1787
 4606TIP3    H235234   2.762   0.177  10.829  0.8016  0.4946  0.7541
 4607TIP3   OH235235   1.001   3.791  15.385 -0.0719  0.8837 -0.3980
 4607TIP3    H135236   0.913   3.817  15.413 -0.1958 -0.3368  0.3904
 4607TIP3    H235237   1.057   3.812  15.460  0.1333  0.6953 -0.4977
 4608TIP3   OH235238   4.599   6.294  16.474 -0.5273  0.2972 -0.1584
 4608TIP3    H135239   4.542   6.229  16.515 -0.9327  1.2847  0.8728
 4608TIP3    H235240   4.659   6.243  16.421 -3.0814 -0.7127 -2.1796
 4609TIP3   OH235241   4.171   6.303  14.505 -0.3814 -0.6605 -0.1506
 4609TIP3    H135242   4.088   6.293  14.458 -0.1053 -2.1938 -0.3474
 4609TIP3    H235243   4.153   6.370  14.572 -0.7863  1.5454 -2.3852
 4610TIP3   OH235244   5.750   0.421   5.661 -0.0140 -0.2085  0.4261
 4610TIP3    H135245   5.676   0.482   5.661  1.7879  2.1376  4.0090
 4610TIP3    H235246   5.730   0.359   5.731 -0.7062 -2.3968 -1.6479
 4611TIP3   OH235247   1.580   0.645  16.970  1.0798 -0.2555  0.4475
 4611TIP3    H135248   1.529   0.714  17.012  1.7678  0.5778 -0.0797
 4611TIP3    H235249   1.536   0.564  16.996  0.0714  0.3961  0.7965
 4612TIP3   OH235250   4.349   5.635  12.037 -0.1240  0.0141  0.8966
 4612TIP3    H135251   4.405   5.570  12.079  1.8147  1.6659  0.9804
 4612TIP3    H235252   4.296   5.671  12.109  0.8519  0.5251  1.3764
 4613TIP3   OH235253   0.756   2.614   6.419 -0.4091  0.2376  0.0564
 4613TIP3    H135254   0.736   2.591   6.329  2.1838 -0.4467 -0.3876
 4613TIP3    H235255   0.816   2.689   6.413 -0.7584  0.6371  1.2318
 4614TIP3   OH235256   2.319   3.518   1.457  0.2338 -0.1340  0.7313
 4614TIP3    H135257   2.248   3.470   1.498  0.6766 -0.5871  0.9735
 4614TIP3    H235258   2.381   3.535   1.527  0.7917 -0.5374  0.3425
 4615TIP3   OH235259   1.002   3.871   0.698  0.1051 -0.0253  0.0685
 4615TIP3    H135260   1.064   3.835   0.762  0.2636 -0.4456 -0.3214
 4615TIP3    H235261   1.044   3.952   0.668  0.3677 -0.1998 -0.0390
 4616TIP3   OH235262   1.285   4.891   1.311  0.6960  0.1698  0.1039
 4616TIP3    H135263   1.218   4.849   1.257 -0.6472  2.9153 -0.4866
 4616TIP3    H235264   1.353   4.916   1.249  0.1054  1.4844 -0.0348
 4617TIP3   OH235265   5.145   3.202  11.679 -0.0906  0.3050  0.4132
 4617TIP3    H135266   5.078   3.136  11.662  0.6980 -0.4552  0.2220
 4617TIP3    H235267   5.221   3.152  11.708  0.0388  1.2494  1.7558
 4618TIP3   OH235268   6.396   1.793  16.837  0.5421  0.2582  0.0356
 4618TIP3    H135269   6.360   1.708  16.862 -0.7145  0.3206 -1.5011
 4618TIP3    H235270   6.342   1.857  16.883  0.1694  0.2744 -0.4152
 4619TIP3   OH235271   5.609   6.615  11.350 -0.4963 -0.3575  0.1590
 4619TIP3    H135272   5.685   6.558  11.357  0.6850  1.2246  0.3395
 4619TIP3    H235273   5.628   6.689  11.407 -1.7688  0.4903 -0.4796
 4620TIP3   OH235274   1.277   3.742   1.124  0.0002  0.3018  0.2992
 4620TIP3    H135275   1.339   3.700   1.064  0.7260  2.0287 -0.2095
 4620TIP3    H235276   1.294   3.703   1.209  1.7790  0.7263  0.1484
 4621TIP3   OH235277   0.883   5.744   4.194 -0.5979 -0.2970  0.0513
 4621TIP3    H135278   0.788   5.733   4.190 -0.7011 -0.3856  2.2720
 4621TIP3    H235279   0.900   5.822   4.140 -2.0493  0.3533  0.5030
 4622TIP3   OH235280   3.016   4.534   1.950  0.3599 -1.1127  0.0190
 4622TIP3    H135281   2.944   4.485   1.911 -0.1813 -2.0120  2.0714
 4622TIP3    H235282   2.980   4.621   1.966  0.1595 -1.1495 -0.2243
 4623TIP3   OH235283   4.325   1.501  12.048 -0.3611  0.4410  0.6362
 4623TIP3    H135284   4.300   1.542  12.131  1.0721  0.2008  1.2015
 4623TIP3    H235285   4.399   1.445  12.070 -1.4173 -1.4121 -0.3823
 4624TIP3   OH235286   3.702   6.224   3.887  0.3725  0.0800 -0.4348
 4624TIP3    H135287   3.640   6.174   3.834  0.1700 -0.4471  0.3004
 4624TIP3    H235288   3.655   6.303   3.912 -0.2219 -0.5914  0.6217
 4625TIP3   OH235289   1.837   0.684   0.044 -0.4184  0.4570 -0.8080
 4625TIP3    H135290   1.775   0.612   0.040 -0.1472  0.2922 -2.0200
 4625TIP3    H235291   1.818   0.727   0.127 -0.8783 -0.7346 -0.2875
 4626TIP3   OH235292   3.534   0.339   5.359 -0.2464  0.3193  0.5768
 4626TIP3    H135293   3.509   0.272   5.423  0.0256 -0.3256  0.0137
 4626TIP3    H235294   3.579   0.405   5.411 -0.0091 -0.2124  1.0592
 4627TIP3   OH235295   2.612   2.839   4.458  0.4265 -0.5454 -0.4278
 4627TIP3    H135296   2.584   2.836   4.550 -0.8656 -1.6282 -0.8479
 4627TIP3    H235297   2.707   2.853   4.463  0.3059 -0.0908  1.0581
 4628TIP3   OH235298   1.628   1.231   5.617 -0.2268 -0.0824  0.1380
 4628TIP3    H135299   1.716   1.247   5.651  0.9737 -0.0653 -2.8533
 4628TIP3    H235300   1.604   1.313   5.574 -1.6719 -0.1459  0.7927
 4629TIP3   OH235301   0.797   5.145  13.070 -0.2954  0.3402  0.0519
 4629TIP3    H135302   0.879   5.175  13.110 -0.9408 -0.8915  2.3385
 4629TIP3    H235303   0.729   5.172  13.130 -1.1550 -2.8791  0.6309
 4630TIP3   OH235304   3.615   3.092  15.241  0.3499 -0.6691 -0.2576
 4630TIP3    H135305   3.681   3.093  15.310  0.4713 -2.8578 -0.3190
 4630TIP3    H235306   3.665   3.079  15.160  0.1278  0.9901 -0.6836
 4631TIP3   OH235307   1.323   0.932  15.411 -0.1955 -0.8004  0.5465
 4631TIP3    H135308   1.392   0.919  15.347 -0.7044  1.1733 -0.4503
 4631TIP3    H235309   1.294   0.844  15.434  1.3965 -1.5833 -0.3930
 4632TIP3   OH235310   6.617   3.379   3.356 -0.3778 -0.0579  0.1209
 4632TIP3    H135311   6.652   3.304   3.308 -1.8345 -0.5643 -0.1736
 4632TIP3    H235312   6.631   3.358   3.448 -0.7821 -0.7052  0.0397
 4633TIP3   OH235313   5.246   1.144   3.591 -0.3733  0.6671 -0.4726
 4633TIP3    H135314   5.172   1.183   3.543 -1.5743  1.0912  1.6390
 4633TIP3    H235315   5.224   1.051   3.598  0.2615  0.4336 -1.5554
 4634TIP3   OH235316   3.805   2.749   1.852  0.1464 -0.5486  0.0254
 4634TIP3    H135317   3.896   2.722   1.868  0.2225  0.7526  1.8651
 4634TIP3    H235318   3.756   2.715   1.927 -0.3010  1.6776  0.7581
 4635TIP3   OH235319   5.513   3.932  11.712 -0.2132  0.2493 -0.0679
 4635TIP3    H135320   5.548   4.017  11.738 -0.5860  0.4006 -0.0647
 4635TIP3    H235321   5.584   3.870  11.730 -1.1501  0.0523  3.2053
 4636TIP3   OH235322   2.947   6.781   6.278  0.3307  0.5248  0.1705
 4636TIP3    H135323   2.981   6.691   6.285 -0.5039  0.2401  0.6635
 4636TIP3    H235324   2.984   6.814   6.197 -0.1162 -0.5944 -0.4989
 4637TIP3   OH235325   4.934   3.515  17.157 -0.3365  0.4560  0.4689
 4637TIP3    H135326   5.005   3.460  17.187 -0.4110  0.6483  0.9887
 4637TIP3    H235327   4.856   3.459  17.164 -0.1356 -0.0059 -0.8106
 4638TIP3   OH235328   5.028   6.309  16.610 -0.0726  0.2011 -0.4808
 4638TIP3    H135329   5.015   6.266  16.525  1.7963  1.4315 -1.4324
 4638TIP3    H235330   5.040   6.401  16.588 -1.4159  0.8289  1.3210
 4639TIP3   OH235331   5.204   0.773  11.313 -0.1670  0.0059 -0.0967
 4639TIP3    H135332   5.233   0.738  11.229 -0.7377  0.2610 -0.4019
 4639TIP3    H235333   5.147   0.847  11.291 -1.2309 -0.6155  0.4760
 4640TIP3   OH235334   4.945   1.170  12.884 -0.3053  0.3143 -0.0423
 4640TIP3    H135335   4.873   1.140  12.828  0.1502 -0.9437  0.0229
 4640TIP3    H235336   4.924   1.261  12.903 -1.5107  0.1707 -0.6170
 4641TIP3   OH235337   3.034   1.871   4.689 -0.7212 -0.3847  0.8247
 4641TIP3    H135338   3.032   1.780   4.662 -2.6067 -0.5909  1.5929
 4641TIP3    H235339   3.090   1.872   4.767  0.5931 -0.5916 -0.0870
 4642TIP3   OH235340   5.624   2.202   4.967 -0.5622 -0.0085 -0.2185
 4642TIP3    H135341   5.544   2.186   4.917 -0.7308 -0.2337  0.1191
 4642TIP3    H235342   5.602   2.174   5.056 -0.0921 -0.1155 -0.1358
 4643TIP3   OH235343   1.004   1.991   1.924  0.8367  0.4793 -0.0889
 4643TIP3    H135344   0.993   2.038   1.841 -1.1177  2.3926  1.1952
 4643TIP3    H235345   0.999   2.059   1.991 -0.1601 -1.3335  1.7414
 4644TIP3   OH235346   4.675   6.716  12.939 -0.1622  0.5227 -0.0345
 4644TIP3    H135347   4.592   6.674  12.963  0.1636 -0.7184 -0.9816
 4644TIP3    H235348   4.683   6.790  12.998 -1.6335  0.2654  0.5048
 4645TIP3   OH235349   1.222   1.367  14.534 -0.0310  0.3239  0.1367
 4645TIP3    H135350   1.296   1.308  14.519 -0.3274  0.4614 -2.0379
 4645TIP3    H235351   1.262   1.452  14.552  0.3683  0.1735 -0.0348
 4646TIP3   OH235352   5.760   1.640  12.130  0.1404  0.3594 -0.0662
 4646TIP3    H135353   5.833   1.689  12.092 -0.7919  1.1413 -0.8520
 4646TIP3    H235354   5.790   1.549  12.131  0.7729  0.5574 -1.2206
 4647TIP3   OH235355   4.797   4.704   2.786  0.3463  0.2892  0.2005
 4647TIP3    H135356   4.753   4.789   2.792  0.1343  0.2011 -0.0542
 4647TIP3    H235357   4.725   4.640   2.786  0.2574  0.2822 -3.1675
 4648TIP3   OH235358   1.728   3.990   4.165 -0.1906 -0.4778 -0.0340
 4648TIP3    H135359   1.773   3.949   4.091  1.5942 -0.8833  1.2214
 4648TIP3    H235360   1.640   3.955   4.162 -0.8095  1.1769 -3.2248
 4649TIP3   OH235361   5.277   0.990  11.486  0.1719  0.3737  0.4368
 4649TIP3    H135362   5.218   1.052  11.443 -0.1146  0.3967  0.8591
 4649TIP3    H235363   5.264   0.908  11.438  1.1633  0.8438 -0.6587
 4650TIP3   OH235364   3.925   4.855   2.327 -0.8515 -0.4597 -0.1914
 4650TIP3    H135365   3.898   4.943   2.353  0.8616  0.3038 -0.9062
 4650TIP3    H235366   3.994   4.869   2.262 -0.5798 -2.3265 -0.3444
 4651TIP3   OH235367   2.540   0.474   3.544 -0.1275  0.2774 -0.0033
 4651TIP3    H135368   2.468   0.519   3.500 -0.7209 -0.2858  0.3728
 4651TIP3    H235369   2.559   0.399   3.488 -0.4207 -0.0562  0.3399
 4652TIP3   OH235370   6.708   2.377   1.955 -0.6262 -0.1087  0.1319
 4652TIP3    H135371   6.765   2.315   1.910 -0.9705  0.1504 -0.6716
 4652TIP3    H235372   6.758   2.459   1.956 -0.9021  0.0626 -0.3813
 4653TIP3   OH235373   0.338   3.533   4.886  0.0321  0.3298  0.1826
 4653TIP3    H135374   0.287   3.470   4.938 -2.3897  0.9338 -1.3778
 4653TIP3    H235375   0.284   3.612   4.886  0.7773  0.8482 -1.9001
 4654TIP3   OH235376   2.961   3.299   0.370 -0.0008  0.3677 -0.8388
 4654TIP3    H135377   2.867   3.293   0.390 -0.0600  0.1443 -1.1785
 4654TIP3    H235378   2.994   3.210   0.384  0.0764  0.3485 -1.1333
 4655TIP3   OH235379   3.136   3.219  13.624 -0.1542 -0.3838  1.0035
 4655TIP3    H135380   3.216   3.215  13.676  1.9616  0.1979 -2.0714
 4655TIP3    H235381   3.124   3.313  13.606 -0.1322 -0.6825 -0.6051
 4656TIP3   OH235382   1.396   1.366   0.357 -0.3521 -0.2267  0.2280
 4656TIP3    H135383   1.310   1.397   0.330 -1.2534 -2.3402  0.5946
 4656TIP3    H235384   1.426   1.311   0.285 -0.1043 -0.9509  0.8702
 4657TIP3   OH235385   6.500   6.227  11.470  0.3495  0.3884  0.4882
 4657TIP3    H135386   6.477   6.294  11.405 -0.9599 -1.7014 -1.2645
 4657TIP3    H235387   6.501   6.145  11.421  2.0486 -0.8943  2.5796
 4658TIP3   OH235388   0.383   5.912   5.806  0.4452  0.3892  0.4141
 4658TIP3    H135389   0.458   5.894   5.750 -0.1625  1.2285 -0.7004
 4658TIP3    H235390   0.327   5.835   5.797  0.0808  0.7572 -0.6171
 4659TIP3   OH235391   6.759   1.759  15.285  0.2909 -0.0838 -0.6580
 4659TIP3    H135392   6.666   1.770  15.301 -0.0229 -1.5513 -1.3699
 4659TIP3    H235393   6.802   1.815  15.349 -1.0543 -0.7627  0.8496
 4660TIP3   OH235394   6.675   6.188  16.625  0.3526  0.0310  0.3503
 4660TIP3    H135395   6.590   6.143  16.625  0.3640  0.0099  0.0831
 4660TIP3    H235396   6.716   6.160  16.707  0.8118 -1.3046 -0.3178
 4661TIP3   OH235397   3.630   4.138   4.109  0.3641 -0.5362  0.0054
 4661TIP3    H135398   3.712   4.144   4.059  0.0987 -0.0902 -0.3721
 4661TIP3    H235399   3.656   4.160   4.199  0.9518 -1.9101  0.1836
 4662TIP3   OH235400   1.301   5.181  16.305  0.3052  0.5707 -0.5665
 4662TIP3    H135401   1.364   5.234  16.256 -0.1071 -1.0497 -2.9389
 4662TIP3    H235402   1.353   5.110  16.343  0.4754  1.3034  0.5887
 4663TIP3   OH235403   2.558   5.872   1.589  0.8340  0.2242 -0.1259
 4663TIP3    H135404   2.637   5.836   1.628  1.6343  2.6727  0.6044
 4663TIP3    H235405   2.585   5.899   1.501 -0.1943 -2.4682 -1.3088
 4664TIP3   OH235406   1.474   1.258  14.286 -0.3320 -0.2577  0.2450
 4664TIP3    H135407   1.502   1.331  14.341 -2.3948  0.4116  0.4551
 4664TIP3    H235408   1.431   1.198  14.347 -1.0007 -0.3675 -0.3264
 4665TIP3   OH235409   6.762   6.309   2.828  0.1652 -0.1365  0.9937
 4665TIP3    H135410   6.739   6.380   2.768  0.5948 -0.0965  0.8716
 4665TIP3    H235411   6.684   6.297   2.882 -0.9944 -1.5941 -0.9426
 4666TIP3   OH235412   5.305   6.512   3.274 -0.0757  0.0717  0.4116
 4666TIP3    H135413   5.368   6.547   3.336 -0.3720  0.9719  0.2179
 4666TIP3    H235414   5.219   6.535   3.310 -0.3803 -2.9144  1.7166
 4667TIP3   OH235415   4.073   5.191   3.908 -0.6182 -0.3038 -0.0972
 4667TIP3    H135416   4.031   5.185   3.994 -0.6025 -1.3689 -0.1557
 4667TIP3    H235417   4.079   5.285   3.890  2.6903  0.1234  2.6782
 4668TIP3   OH235418   2.649   6.043  13.625  0.0969  0.2485  0.1260
 4668TIP3    H135419   2.607   5.966  13.662 -0.4106  0.2946 -0.3592
 4668TIP3    H235420   2.740   6.036  13.653 -0.1683 -0.0030  0.9260
 4669TIP3   OH235421   6.181   1.483   3.813  0.4313 -0.4387 -0.6477
 4669TIP3    H135422   6.175   1.392   3.783 -1.1584 -1.3490  2.2435
 4669TIP3    H235423   6.104   1.526   3.777  0.4202 -0.5963 -0.8121
 4670TIP3   OH235424   5.536   6.493   5.556  0.2032 -0.7345  0.2437
 4670TIP3    H135425   5.580   6.540   5.628  0.5370  0.7933 -0.9288
 4670TIP3    H235426   5.602   6.431   5.525  1.4541  1.2769 -1.2528
 4671TIP3   OH235427   3.441   0.849   2.594  0.1495 -0.0310 -0.1836
 4671TIP3    H135428   3.515   0.795   2.624 -0.4216 -0.3745  0.6443
 4671TIP3    H235429   3.471   0.939   2.605  0.1040 -0.1608  1.0692
 4672TIP3   OH235430   5.126   4.562  15.792  0.1216  0.3267  0.6352
 4672TIP3    H135431   5.034   4.590  15.782 -0.5354 -0.7663  3.3294
 4672TIP3    H235432   5.164   4.627  15.851  0.4669 -0.5044  1.3288
 4673TIP3   OH235433   0.196   0.793  14.251 -0.4282 -0.3765 -0.1171
 4673TIP3    H135434   0.225   0.753  14.169  0.2341 -0.7621  0.2971
 4673TIP3    H235435   0.157   0.876  14.224 -0.7444 -0.7653 -0.8752
 4674TIP3   OH235436   6.021   2.583  13.639  0.3025  0.5400  0.6888
 4674TIP3    H135437   5.943   2.634  13.614  0.7974  0.3232 -1.3920
 4674TIP3    H235438   5.993   2.492  13.631  1.5333  0.3945 -2.8836
 4675TIP3   OH235439   3.880   5.791   0.211  0.4668  0.0025  0.1573
 4675TIP3    H135440   3.796   5.766   0.249 -0.1069  1.2090 -0.2906
 4675TIP3    H235441   3.875   5.761   0.121 -0.6330  2.5350 -0.6773
 4676TIP3   OH235442   2.314   4.254  13.488  0.8860 -0.0830 -0.3541
 4676TIP3    H135443   2.260   4.212  13.421  2.6687 -0.3019 -1.7061
 4676TIP3    H235444   2.252   4.284  13.554 -0.9672  0.5299 -2.3279
 4677TIP3   OH235445   3.968   2.906   4.832  0.5358  0.1980  0.4986
 4677TIP3    H135446   3.891   2.850   4.820 -0.0802  0.7438  1.7254
 4677TIP3    H235447   3.979   2.910   4.927  0.9049  1.6987  0.4057
 4678TIP3   OH235448   1.401   3.519   2.683  0.3769 -0.0203 -0.2992
 4678TIP3    H135449   1.442   3.434   2.701  1.6541  0.3784 -1.2371
 4678TIP3    H235450   1.317   3.515   2.729 -0.0297 -2.1892 -1.1681
 4679TIP3   OH235451   0.308   4.519  11.007 -0.4482 -0.2276  0.7142
 4679TIP3    H135452   0.288   4.552  11.095 -1.8816  0.8777  0.0071
 4679TIP3    H235453   0.222   4.501  10.969  0.2677 -3.3968  0.5302
 4680TIP3   OH235454   0.564   4.989  12.672  0.2250  0.6763 -0.1266
 4680TIP3    H135455   0.494   4.943  12.626 -0.1339  3.2318 -2.2180
 4680TIP3    H235456   0.521   5.027  12.748 -0.2214  0.5780 -0.3265
 4681TIP3   OH235457   2.282   1.309   0.313  0.3334  0.2997  0.2404
 4681TIP3    H135458   2.294   1.265   0.229 -2.3098 -1.7540  0.8523
 4681TIP3    H235459   2.346   1.380   0.313  1.3270 -0.5281 -2.8997
 4682TIP3   OH235460   1.641   0.514   5.384  0.1517  0.2371 -0.6303
 4682TIP3    H135461   1.564   0.561   5.353  0.4822  0.4005 -1.2016
 4682TIP3    H235462   1.655   0.445   5.319  0.7935  0.5257 -0.8034
 4683TIP3   OH235463   0.349   5.753  10.746 -0.5205  0.5593  0.0787
 4683TIP3    H135464   0.312   5.667  10.728  0.3173 -0.0116  1.0319
 4683TIP3    H235465   0.442   5.737  10.759 -0.7048  1.2615  2.5339
 4684TIP3   OH235466   1.614   0.531  10.997  0.4326 -0.2572  0.1640
 4684TIP3    H135467   1.676   0.471  10.956 -0.1927  0.3064 -1.6701
 4684TIP3    H235468   1.528   0.499  10.971  0.0548  0.7738  0.0999
 4685TIP3   OH235469   4.800   2.762  14.966  1.3612  0.1533 -0.1533
 4685TIP3    H135470   4.717   2.741  14.924  1.5648  0.2648 -0.6148
 4685TIP3    H235471   4.784   2.845  15.011  1.6804  1.0072 -1.5789
 4686TIP3   OH235472   2.098   2.875  11.443 -0.4127 -0.3327  0.0812
 4686TIP3    H135473   2.019   2.861  11.494  0.7183 -0.1930  1.9164
 4686TIP3    H235474   2.123   2.787  11.412 -0.0841 -0.6945  1.3411
 4687TIP3   OH235475   0.369   5.817  14.502  0.0093 -0.1222 -0.0427
 4687TIP3    H135476   0.377   5.834  14.596  0.8520 -0.4957 -0.0422
 4687TIP3    H235477   0.318   5.890  14.469  1.3766  1.0364  0.3870
 4688TIP3   OH235478   3.570   6.535   0.450 -0.2060  0.2364  0.8584
 4688TIP3    H135479   3.514   6.503   0.380 -0.0639  1.0547  0.3650
 4688TIP3    H235480   3.529   6.503   0.531 -0.5438 -0.4326  0.4263
 4689TIP3   OH235481   0.631   4.220  16.188  0.0374 -0.2099 -0.6361
 4689TIP3    H135482   0.713   4.258  16.219 -0.8227  0.1172  1.3007
 4689TIP3    H235483   0.620   4.140  16.241 -1.4596  0.3603 -0.0494
 4690TIP3   OH235484   4.958   0.333   5.325 -0.0895 -0.2532 -0.5259
 4690TIP3    H135485   4.944   0.407   5.384 -1.8176 -1.6540  0.8589
 4690TIP3    H235486   5.048   0.305   5.344 -0.9684 -1.3615  2.2834
 4691TIP3   OH235487   2.150   3.367   4.542 -0.2622 -0.2033 -0.7460
 4691TIP3    H135488   2.112   3.446   4.502  2.0448  1.0629 -0.5394
 4691TIP3    H235489   2.243   3.374   4.523  0.0960 -2.4414  0.0966
 4692TIP3   OH235490   5.986   1.499  13.836  0.0340  0.4563 -0.3655
 4692TIP3    H135491   5.993   1.434  13.766  0.7963 -0.8937  0.9456
 4692TIP3    H235492   5.930   1.568  13.799 -0.2113 -0.5997 -2.0183
 4693TIP3   OH235493   3.243   1.149   5.112 -0.5327  0.6992 -0.5677
 4693TIP3    H135494   3.269   1.239   5.088 -1.4298  0.2223 -3.5723
 4693TIP3    H235495   3.147   1.151   5.111 -0.6122  0.4676  2.5650
 4694TIP3   OH235496   3.463   3.950  13.170  0.3416 -0.1138 -0.1220
 4694TIP3    H135497   3.458   4.010  13.096 -1.4811  0.3162  0.3337
 4694TIP3    H235498   3.418   3.995  13.241  2.5862 -0.2677  1.4547
 4695TIP3   OH235499   4.649   2.626  15.225  0.4106  0.2362 -0.1794
 4695TIP3    H135500   4.712   2.697  15.239  1.6908 -0.4116 -2.4608
 4695TIP3    H235501   4.702   2.551  15.197 -1.1046 -1.1176  0.4827
 4696TIP3   OH235502   1.020   3.554  16.617  0.3319 -0.2750 -0.0906
 4696TIP3    H135503   1.084   3.619  16.585  0.2098 -0.2709 -0.3272
 4696TIP3    H235504   0.950   3.607  16.655  0.7729 -0.2918  0.7523
 4697TIP3   OH235505   4.302   4.121  14.994  0.2629 -0.1602  0.3940
 4697TIP3    H135506   4.296   4.028  15.015 -3.3817 -0.5257 -1.7834
 4697TIP3    H235507   4.235   4.162  15.048 -1.5462  0.4161 -2.1676
 4698TIP3   OH235508   3.911   2.940   0.914  0.8713 -0.2726  0.1976
 4698TIP3    H135509   3.944   2.878   0.979  1.0307  0.4502  0.8174
 4698TIP3    H235510   3.823   2.962   0.945  1.1764  0.5286  0.4825
 4699TIP3   OH235511   3.780   5.772   2.030  0.7855  0.1178  0.2109
 4699TIP3    H135512   3.790   5.684   2.067  0.8878 -1.1402 -2.6454
 4699TIP3    H235513   3.706   5.764   1.970 -0.1582  2.3945  1.0548
 4700TIP3   OH235514   6.335   5.090   5.135 -0.4810  0.6583  0.2080
 4700TIP3    H135515   6.256   5.109   5.084  0.0894  0.4654 -0.7799
 4700TIP3    H235516   6.309   5.021   5.196 -1.5113  1.7783  1.0463
 4701TIP3   OH235517   0.773   3.298  11.913 -0.2232 -0.3726  0.4375
 4701TIP3    H135518   0.817   3.306  11.829  0.7072 -0.2203  0.9234
 4701TIP3    H235519   0.844   3.292  11.977 -0.9088 -0.1395  1.2434
 4702TIP3   OH235520   6.508   2.186   1.129 -0.3369  0.9234 -0.0996
 4702TIP3    H135521   6.567   2.179   1.204 -1.1276 -1.7730  0.3243
 4702TIP3    H235522   6.557   2.149   1.056 -0.7114  0.7233 -0.2477
 4703TIP3   OH235523   4.848   4.201  13.810 -0.3083  0.3777  0.4059
 4703TIP3    H135524   4.794   4.263  13.760  1.0212  0.5918 -0.7880
 4703TIP3    H235525   4.827   4.220  13.902  0.0684  2.6166  0.0690
 4704TIP3   OH235526   2.390   3.284   0.886 -0.2354 -0.4097 -0.3179
 4704TIP3    H135527   2.391   3.241   0.800 -1.6896  0.1173 -0.6160
 4704TIP3    H235528   2.334   3.227   0.940 -1.4068  0.5874 -0.4550
 4705TIP3   OH235529   5.372   0.416  13.014  0.0078  0.3147 -0.0729
 4705TIP3    H135530   5.355   0.495  12.962  1.2492 -0.9693 -2.5116
 4705TIP3    H235531   5.454   0.435  13.059  0.4757  0.2846 -0.9081
 4706TIP3   OH235532   6.035   1.103  13.470  0.6138  0.7165 -0.5090
 4706TIP3    H135533   6.080   1.020  13.485 -0.0984  0.2144 -1.1230
 4706TIP3    H235534   6.075   1.163  13.533 -0.1768 -0.5720  1.2992
 4707TIP3   OH235535   6.532   3.209   4.092  0.1990 -0.3567 -0.0540
 4707TIP3    H135536   6.577   3.277   4.042  0.0924  0.3977  0.8718
 4707TIP3    H235537   6.595   3.137   4.095  1.4336  0.7615  1.3808
 4708TIP3   OH235538   2.249   3.434   1.201 -0.1219  0.0428  0.0517
 4708TIP3    H135539   2.277   3.460   1.289  0.3697  1.2210 -0.4511
 4708TIP3    H235540   2.316   3.371   1.173  1.1497  1.5930 -0.4841
 4709TIP3   OH235541   0.874   3.083  13.880  0.2294  0.0677  0.0998
 4709TIP3    H135542   0.886   3.048  13.791  2.1270 -0.7785  0.6729
 4709TIP3    H235543   0.943   3.147  13.890  1.1254 -1.1190  1.6010
 4710TIP3   OH235544   5.311   5.823  11.877 -0.2844 -0.4172  0.7351
 4710TIP3    H135545   5.217   5.838  11.862  0.0723  1.8284  0.5636
 4710TIP3    H235546   5.331   5.745  11.825 -1.6713  0.1604 -0.7022
 4711TIP3   OH235547   4.318   5.637   3.050  0.1219  0.4779  0.0514
 4711TIP3    H135548   4.283   5.689   2.977  0.0378  1.4658  0.7752
 4711TIP3    H235549   4.351   5.703   3.112 -0.0304 -0.3396  1.0136
 4712TIP3   OH235550   5.752   6.346  16.313  0.5047  0.3923 -0.4623
 4712TIP3    H135551   5.727   6.365  16.403  0.7954  0.3867 -0.3781
 4712TIP3    H235552   5.845   6.368  16.309  0.2476  1.3972 -1.0391
 4713TIP3   OH235553   5.448   1.011  11.000  0.2280 -0.2063 -0.7122
 4713TIP3    H135554   5.356   1.001  11.024  0.4277 -0.7446 -0.1637
 4713TIP3    H235555   5.469   1.101  11.022  0.1289 -0.3993  0.1792
 4714TIP3   OH235556   3.576   4.255  16.101 -0.2898 -0.2443 -0.6536
 4714TIP3    H135557   3.490   4.255  16.142 -2.0811 -3.9229 -4.1106
 4714TIP3    H235558   3.629   4.196  16.155 -1.0745 -0.9614 -0.6623
 4715TIP3   OH235559   1.690   6.462  16.879  0.6115  0.1420  0.3129
 4715TIP3    H135560   1.685   6.546  16.834  0.8925 -1.0495 -2.0128
 4715TIP3    H235561   1.770   6.422  16.845 -1.1324 -2.3784 -1.0050
 4716TIP3   OH235562   2.288   0.135   3.810  0.3883  0.1265 -0.2753
 4716TIP3    H135563   2.236   0.056   3.795 -1.1104  1.1013 -0.3848
 4716TIP3    H235564   2.268   0.160   3.900  1.1036  0.2064 -0.1380
 4717TIP3   OH235565   6.224   2.522  14.320  0.0942 -0.0286 -0.0376
 4717TIP3    H135566   6.174   2.589  14.274 -0.7355  0.3141  1.3427
 4717TIP3    H235567   6.233   2.451  14.256  0.4364  1.1188 -1.2936
 4718TIP3   OH235568   5.682   4.184  10.440  0.0040 -0.0508  0.2526
 4718TIP3    H135569   5.753   4.212  10.382 -1.6577  0.4380 -1.5982
 4718TIP3    H235570   5.678   4.089  10.431  0.4726 -0.0912  0.4469
 4719TIP3   OH235571   4.104   5.600  14.021  0.2503  0.4241 -0.5014
 4719TIP3    H135572   4.012   5.625  14.011 -0.3146 -0.6500  1.7490
 4719TIP3    H235573   4.120   5.538  13.950 -1.1554 -0.4423 -0.0731
 4720TIP3   OH235574   4.626   6.055   6.206  0.0247 -0.0794 -0.2362
 4720TIP3    H135575   4.699   6.028   6.261 -0.2359  0.4378  0.3690
 4720TIP3    H235576   4.624   5.991   6.135  1.9860  0.7533 -1.0758
 4721TIP3   OH235577   0.011   6.053  13.307 -0.1059  0.2625  0.1928
 4721TIP3    H135578   0.029   6.137  13.264 -0.3947  1.1009  1.6578
 4721TIP3    H235579   0.081   6.043  13.371 -1.0663  0.2611  1.2614
 4722TIP3   OH235580   2.891   5.196   3.242  0.4256 -0.5444  0.5350
 4722TIP3    H135581   2.835   5.270   3.264 -0.2044 -0.8962  0.1406
 4722TIP3    H235582   2.884   5.137   3.317  1.5779  0.1680  1.2107
 4723TIP3   OH235583   4.205   4.940   2.698 -0.3065  0.0458  0.1306
 4723TIP3    H135584   4.207   4.912   2.790  0.2780 -1.5008 -0.3334
 4723TIP3    H235585   4.121   4.985   2.688 -0.2327  0.5088  1.5031
 4724TIP3   OH235586   5.463   0.322   0.801 -0.0014  0.2976  0.1577
 4724TIP3    H135587   5.467   0.232   0.768 -0.8754 -0.6889  2.6401
 4724TIP3    H235588   5.532   0.327   0.867 -1.8523  0.5618  2.1015
 4725TIP3   OH235589   5.428   3.968   5.293  0.3712  0.2463  0.2466
 4725TIP3    H135590   5.392   4.008   5.372  1.0498 -0.5424  0.9621
 4725TIP3    H235591   5.354   3.967   5.232 -0.1034  1.0482  0.7860
 4726TIP3   OH235592   6.672   1.060   4.167  0.2010  0.4638 -0.0292
 4726TIP3    H135593   6.734   1.076   4.238 -0.1537  0.7311  0.2250
 4726TIP3    H235594   6.597   1.019   4.210 -0.5444  1.7740 -0.0357
 4727TIP3   OH235595   3.295   4.346   3.140  0.4682  0.2565  0.0838
 4727TIP3    H135596   3.240   4.323   3.065 -0.7692  2.6660  0.1850
 4727TIP3    H235597   3.385   4.330   3.109 -0.0134  1.1885 -1.9399
 4728TIP3   OH235598   5.972   2.236  12.597  0.4326 -0.3190 -0.2647
 4728TIP3    H135599   6.022   2.310  12.562 -2.2954  2.4798  1.5329
 4728TIP3    H235600   5.886   2.245  12.557 -0.8045 -0.8161  2.2205
 4729TIP3   OH235601   6.200   1.630   0.959 -0.2132  0.5282  0.1073
 4729TIP3    H135602   6.154   1.576   1.024 -0.7279  0.9767  0.1173
 4729TIP3    H235603   6.275   1.666   1.006 -0.3302  0.4846  0.3283
 4730TIP3   OH235604   2.291   2.993  13.956 -0.5017  0.2273 -0.8756
 4730TIP3    H135605   2.288   2.901  13.928 -0.9198 -0.0055 -0.0841
 4730TIP3    H235606   2.212   3.004  14.008  0.4307  0.5637  0.4852
 4731TIP3   OH235607   1.801   1.607   1.626  0.0328 -0.1559 -0.6971
 4731TIP3    H135608   1.707   1.590   1.629 -0.1058  0.7134  0.0742
 4731TIP3    H235609   1.839   1.525   1.595 -0.7229 -1.4661  1.6927
 4732TIP3   OH235610   1.344   1.780  14.725  0.0466 -0.2422  0.1130
 4732TIP3    H135611   1.351   1.832  14.805  1.3843 -0.5636  0.2159
 4732TIP3    H235612   1.432   1.743  14.712 -0.7966 -2.2393 -0.1170
 4733TIP3   OH235613   3.100   2.141  12.677 -0.4693  0.0080  0.2736
 4733TIP3    H135614   3.018   2.143  12.726 -1.1916  2.6571 -0.9408
 4733TIP3    H235615   3.156   2.205  12.721 -0.2649  0.6631 -0.9312
 4734TIP3   OH235616   6.547   1.074   0.713  0.2093 -0.5317 -0.2102
 4734TIP3    H135617   6.531   0.980   0.720 -0.4301 -0.3620  0.7483
 4734TIP3    H235618   6.546   1.092   0.619  0.6219 -1.5284 -0.4082
 4735TIP3   OH235619   6.540   3.665  14.140  0.7189 -0.3226 -0.6325
 4735TIP3    H135620   6.491   3.615  14.205  0.3973 -1.6190 -1.8355
 4735TIP3    H235621   6.611   3.707  14.189  1.3981 -2.5102  0.3180
 4736TIP3   OH235622   3.884   3.124  14.121  0.2724 -0.0497 -0.1481
 4736TIP3    H135623   3.904   3.142  14.213  1.5122  0.0783 -0.4264
 4736TIP3    H235624   3.967   3.095  14.083 -0.0098  0.7428 -1.4292
 4737TIP3   OH235625   1.342   3.542   5.486 -0.2732 -0.0352 -0.2820
 4737TIP3    H135626   1.350   3.499   5.571  2.1906  0.0213 -0.4510
 4737TIP3    H235627   1.248   3.554   5.474 -0.7590 -1.6752  1.6110
 4738TIP3   OH235628   2.844   0.286   4.089  0.1042 -0.5623  0.0385
 4738TIP3    H135629   2.892   0.368   4.097 -0.8884 -0.0776  1.0966
 4738TIP3    H235630   2.894   0.224   4.142 -0.1340 -0.1824  0.7196
 4739TIP3   OH235631   2.908   2.577  11.823 -0.4417  0.0792 -0.3628
 4739TIP3    H135632   2.983   2.556  11.767 -0.4527 -3.1976  0.7132
 4739TIP3    H235633   2.922   2.524  11.902 -2.2109  1.9444  1.2539
 4740TIP3   OH235634   6.001   6.549   3.884  0.2006  0.3162  0.1577
 4740TIP3    H135635   6.014   6.468   3.834 -1.2132  0.0288  0.2308
 4740TIP3    H235636   6.032   6.618   3.826  0.4593 -0.1997 -0.3198
 4741TIP3   OH235637   4.743   2.563   5.046  0.2285 -0.3106  0.4598
 4741TIP3    H135638   4.777   2.620   5.115  0.3489 -0.4333  0.5011
 4741TIP3    H235639   4.801   2.579   4.971  0.6380 -0.8336  0.6617
 4742TIP3   OH235640   0.503   3.335  13.579  0.0258  0.2970  0.6566
 4742TIP3    H135641   0.541   3.420  13.555  1.4936 -0.2681  0.9911
 4742TIP3    H235642   0.496   3.337  13.674 -1.4197  0.6572  0.5569
 4743TIP3   OH235643   0.035   6.041   4.099  0.0582 -0.1689  0.7472
 4743TIP3    H135644   0.085   6.105   4.149  0.0291  0.9264 -0.5892
 4743TIP3    H235645   0.095   6.015   4.029 -0.0568 -1.3483  1.0808
 4744TIP3   OH235646   3.517   0.498   5.803  0.6256  0.1774  0.2727
 4744TIP3    H135647   3.514   0.404   5.820  0.4250 -0.0700 -1.0506
 4744TIP3    H235648   3.600   0.527   5.842  1.1522 -0.7277 -0.1594
 4745TIP3   OH235649   3.465   5.795   5.570 -0.3996  0.7168 -0.5841
 4745TIP3    H135650   3.467   5.708   5.611  2.3950  0.6491 -0.7298
 4745TIP3    H235651   3.392   5.840   5.612 -0.8656 -1.1526  0.6706
 4746TIP3   OH235652   3.579   0.428  15.637  0.3491 -0.5038 -0.0495
 4746TIP3    H135653   3.487   0.443  15.662 -0.2150 -1.0432 -1.7035
 4746TIP3    H235654   3.573   0.370  15.560  2.0701 -0.2303 -0.3994
 4747TIP3   OH235655   2.315   5.306  11.441  0.1596 -0.3914  0.1690
 4747TIP3    H135656   2.263   5.239  11.485  0.7805 -0.9299  0.0907
 4747TIP3    H235657   2.373   5.256  11.383  0.3050  0.2395 -0.2242
 4748TIP3   OH235658   2.194   4.604  16.531 -0.3427 -0.7739 -0.5303
 4748TIP3    H135659   2.180   4.663  16.605  1.1902  0.0300 -0.8598
 4748TIP3    H235660   2.131   4.633  16.465  1.1050  1.2617 -1.1073
 4749TIP3   OH235661   0.743   3.617  14.903  0.4202  0.6383  0.2238
 4749TIP3    H135662   0.708   3.531  14.876  0.4252  1.0812 -1.2217
 4749TIP3    H235663   0.794   3.598  14.981  0.5244 -0.7063 -0.1518
 4750TIP3   OH235664   0.262   1.798  13.524  0.1790  0.1202 -0.2325
 4750TIP3    H135665   0.255   1.746  13.444  1.7201 -2.0782  1.0346
 4750TIP3    H235666   0.356   1.817  13.532  0.1452 -0.4271  1.5245
 4751TIP3   OH235667   0.343   2.857  12.229 -0.6929 -0.5367 -0.7310
 4751TIP3    H135668   0.385   2.942  12.242  2.0589 -2.0770  0.7344
 4751TIP3    H235669   0.268   2.858  12.288 -0.5590  0.7649 -0.5711
 4752TIP3   OH235670   4.513   3.752  14.854 -0.1248 -0.4572 -0.1384
 4752TIP3    H135671   4.530   3.806  14.931 -0.4995 -1.6957  0.8396
 4752TIP3    H235672   4.557   3.797  14.783 -1.4542  1.7872  0.4033
 4753TIP3   OH235673   0.102   0.999   4.868  0.6122 -0.5437 -0.5506
 4753TIP3    H135674   0.036   1.030   4.806 -0.0774 -0.6605  0.1179
 4753TIP3    H235675   0.159   0.943   4.816  0.0625 -0.6087 -1.0885
 4754TIP3   OH235676   3.865   2.478  14.986 -0.1446  0.1323  0.1115
 4754TIP3    H135677   3.912   2.562  14.985  0.6592 -0.2747  1.8776
 4754TIP3    H235678   3.914   2.423  14.926 -0.2407  0.6975 -0.4931
 4755TIP3   OH235679   1.290   0.630   3.016  0.2998 -0.2550  0.2165
 4755TIP3    H135680   1.197   0.648   3.030  0.2871  0.8425 -1.1717
 4755TIP3    H235681   1.304   0.546   3.059 -0.9991  0.2503  1.7113
 4756TIP3   OH235682   1.660   5.290  15.527 -0.0493  0.0381  0.9175
 4756TIP3    H135683   1.700   5.377  15.537 -1.1623  0.8274 -1.1276
 4756TIP3    H235684   1.708   5.250  15.455  0.2961 -0.9599  1.6963
 4757TIP3   OH235685   3.985   2.156  15.182  0.0586  0.1763 -0.2050
 4757TIP3    H135686   3.920   2.183  15.117 -0.3870  0.7510  0.4663
 4757TIP3    H235687   4.069   2.171  15.139 -0.2436 -2.2379 -1.7312
 4758TIP3   OH235688   1.029   0.011   3.103 -0.0167  0.4175 -0.5317
 4758TIP3    H135689   1.072   0.064   3.036 -0.9416 -1.7783 -2.9542
 4758TIP3    H235690   1.100  -0.025   3.155  0.6645  3.0070  0.4022
 4759TIP3   OH235691   0.240   2.240   0.134  0.5059 -0.6305  0.1469
 4759TIP3    H135692   0.260   2.197   0.217  1.3921 -1.1932 -0.3467
 4759TIP3    H235693   0.222   2.331   0.158  0.5478 -0.8345  0.9768
 4760TIP3   OH235694   1.935   0.887   2.422 -0.1647 -0.2692 -0.1821
 4760TIP3    H135695   1.867   0.830   2.385  0.3094 -0.8812 -0.1182
 4760TIP3    H235696   1.910   0.975   2.394  0.0372 -0.6979 -1.7464
 4761TIP3   OH235697   1.368   3.699  11.720 -0.2590  0.1441  0.4017
 4761TIP3    H135698   1.431   3.676  11.651 -1.5707 -1.8809 -0.1599
 4761TIP3    H235699   1.404   3.658  11.799  0.2232  0.7931  0.5207
 4762TIP3   OH235700   2.018   1.811  10.665  0.6036 -0.1189 -0.1287
 4762TIP3    H135701   1.932   1.771  10.678  0.8917 -0.8615 -0.5132
 4762TIP3    H235702   2.071   1.743  10.625  2.2108 -0.6115  2.7106
 4763TIP3   OH235703   1.229   2.617   3.157  0.7905  0.1983  0.0720
 4763TIP3    H135704   1.258   2.528   3.136 -0.3986 -0.9926  3.1388
 4763TIP3    H235705   1.147   2.604   3.205 -0.6913  3.1074 -1.5434
 4764TIP3   OH235706   6.368   3.478   0.811 -0.3918  0.3479 -0.6425
 4764TIP3    H135707   6.384   3.424   0.734  0.7507 -0.6452  0.2791
 4764TIP3    H235708   6.280   3.514   0.797 -0.6711 -0.7588 -1.8346
 4765TIP3   OH235709   4.127   5.361  14.190 -0.0230 -0.2250  0.2678
 4765TIP3    H135710   4.152   5.406  14.108  0.6327  2.6200  1.9540
 4765TIP3    H235711   4.206   5.365  14.244 -1.1886  0.1165  1.9690
 4766TIP3   OH235712   6.157   1.944   1.497  0.1887 -0.8021 -0.2508
 4766TIP3    H135713   6.137   1.892   1.575 -1.7059  0.1020 -0.1161
 4766TIP3    H235714   6.202   2.022   1.531 -2.3170  0.5020  0.1529
 4767TIP3   OH235715   4.683   3.639   1.375 -0.8294  0.4638  0.9779
 4767TIP3    H135716   4.719   3.728   1.381 -0.3317  0.1848  2.1714
 4767TIP3    H235717   4.588   3.653   1.370 -0.8886  1.0040  3.1668
 4768TIP3   OH235718   2.437   3.463  12.062  0.1187 -0.1310  0.4548
 4768TIP3    H135719   2.409   3.552  12.085 -2.2513 -0.5366 -0.7202
 4768TIP3    H235720   2.468   3.425  12.144  1.7578  1.9725  0.8584
 4769TIP3   OH235721   3.750   6.632  16.209  0.2183  0.1159  0.3432
 4769TIP3    H135722   3.730   6.588  16.291 -0.2455 -0.3286 -0.0081
 4769TIP3    H235723   3.701   6.584  16.142 -0.9996  1.6800  0.0815
 4770TIP3   OH235724   4.817   3.340   3.738 -0.0874 -0.2872  0.2216
 4770TIP3    H135725   4.771   3.262   3.707 -0.0717  0.6752 -2.3931
 4770TIP3    H235726   4.891   3.306   3.790  0.4722 -2.0559 -1.6567
 4771TIP3   OH235727   2.762   3.225  16.112  0.0678 -0.3341 -0.2613
 4771TIP3    H135728   2.766   3.170  16.190 -1.3681  0.0710  0.1187
 4771TIP3    H235729   2.726   3.168  16.044  0.3113 -0.3831 -0.3491
 4772TIP3   OH235730   2.852   4.329   5.694  0.1870 -0.1371  0.0325
 4772TIP3    H135731   2.867   4.407   5.747  0.1845  0.1319 -0.3561
 4772TIP3    H235732   2.818   4.264   5.755  1.2247 -0.1827  0.5797
 4773TIP3   OH235733   6.418   1.540  14.570 -0.2527  0.0997  0.0401
 4773TIP3    H135734   6.374   1.552  14.485 -1.7341  0.7351  0.8767
 4773TIP3    H235735   6.512   1.540  14.548 -0.6040  0.5037 -1.5727
 4774TIP3   OH235736   0.624   0.945   5.766  0.1682  0.0377 -0.1488
 4774TIP3    H135737   0.644   0.867   5.714  0.8970  1.1871 -1.6269
 4774TIP3    H235738   0.687   1.011   5.735 -0.2590  1.1338  1.2721
 4775TIP3   OH235739   6.473   1.366  16.251  0.8187  0.2704 -0.4281
 4775TIP3    H135740   6.506   1.442  16.298  1.1510 -0.0126 -0.2013
 4775TIP3    H235741   6.474   1.295  16.315 -0.4307  0.3008 -0.3648
 4776TIP3   OH235742   2.923   2.333  13.651 -0.1374  0.0243 -0.5378
 4776TIP3    H135743   2.965   2.418  13.638 -0.9341  0.4760 -0.2081
 4776TIP3    H235744   2.834   2.345  13.620  0.2224 -1.1874 -2.0780
 4777TIP3   OH235745   2.945   2.478  12.821  0.4111  0.1587  0.4880
 4777TIP3    H135746   2.967   2.498  12.730 -0.7960 -0.4829  0.0468
 4777TIP3    H235747   2.870   2.533  12.841  0.5965  0.2135  1.0717
 4778TIP3   OH235748   3.528   0.122  10.556  0.3811  0.5142  0.0672
 4778TIP3    H135749   3.554   0.201  10.604 -3.4657  1.5154  0.6945
 4778TIP3    H235750   3.547   0.142  10.465  1.3725  1.3540  0.4534
 4779TIP3   OH235751   6.412   2.724  15.684 -0.0841 -0.1777 -0.0953
 4779TIP3    H135752   6.497   2.751  15.720  0.8520 -1.5941 -1.2047
 4779TIP3    H235753   6.434   2.671  15.608 -1.9940 -0.0844 -0.7312
 4780TIP3   OH235754   3.712   2.402   0.589  0.1485 -0.1785 -0.4073
 4780TIP3    H135755   3.647   2.457   0.633 -0.0340 -1.1177  0.5175
 4780TIP3    H235756   3.739   2.339   0.655  2.5833  0.6664 -0.5384
 4781TIP3   OH235757   1.087   2.867  12.595  0.0482 -0.2747 -0.0410
 4781TIP3    H135758   1.025   2.940  12.603 -0.5213 -0.7021 -0.5038
 4781TIP3    H235759   1.156   2.901  12.538 -0.7506 -0.4323 -1.1301
 4782TIP3   OH235760   2.680   2.762  13.122  0.2620 -0.2703 -0.8055
 4782TIP3    H135761   2.724   2.767  13.207  0.4085 -0.9116 -0.8414
 4782TIP3    H235762   2.588   2.747  13.144  0.2653 -0.2215 -0.7576
 4783TIP3   OH235763   1.564   4.790   6.032 -0.0298  0.0517 -0.6451
 4783TIP3    H135764   1.584   4.750   5.947 -0.8489 -0.5976 -0.5390
 4783TIP3    H235765   1.649   4.810   6.070  0.3862 -1.3317 -0.8323
 4784TIP3   OH235766   2.876   6.113  13.182 -0.4419  0.2667  0.3259
 4784TIP3    H135767   2.785   6.137  13.168 -1.2750 -3.1754 -0.6667
 4784TIP3    H235768   2.873   6.020  13.205  2.8663 -0.0934 -0.4331
 4785TIP3   OH235769   4.065   3.956   5.204  0.2162  0.5116  0.4176
 4785TIP3    H135770   4.071   3.978   5.111 -1.4311  0.8464  0.3698
 4785TIP3    H235771   4.149   3.915   5.225  0.0179 -1.0015 -1.5946
 4786TIP3   OH235772   6.347   4.802   2.732 -0.2497 -0.4394  0.2634
 4786TIP3    H135773   6.282   4.856   2.688  0.0065  0.4621  0.9822
 4786TIP3    H235774   6.408   4.777   2.663 -0.1051  0.5916  0.0027
 4787TIP3   OH235775   3.125   1.018   0.065  0.0149  0.3780 -0.0915
 4787TIP3    H135776   3.077   0.960   0.006 -0.9876  1.0832  0.0252
 4787TIP3    H235777   3.132   1.101   0.018 -0.2773  0.7635  0.5429
 4788TIP3   OH235778   4.781   4.766  16.601  0.2564  0.1919  0.1898
 4788TIP3    H135779   4.814   4.824  16.533  0.1813 -1.0716 -0.9380
 4788TIP3    H235780   4.768   4.823  16.677 -0.5739  1.7946 -1.1252
 4789TIP3   OH235781   4.327   2.852   5.709 -0.0758 -0.0236  0.4286
 4789TIP3    H135782   4.414   2.844   5.669 -0.6923  0.2740 -1.0192
 4789TIP3    H235783   4.343   2.887   5.796  1.2008  0.7108 -0.0905
 4790TIP3   OH235784   2.606   5.912  12.106 -0.8083 -0.4111  0.2896
 4790TIP3    H135785   2.650   5.834  12.141  0.7912  0.2163 -0.2899
 4790TIP3    H235786   2.594   5.891  12.013  0.2895  0.3123 -0.0268
 4791TIP3   OH235787   0.798   1.544  12.194 -0.6021  0.2811 -0.5456
 4791TIP3    H135788   0.889   1.573  12.194 -1.4777  3.2747 -0.2743
 4791TIP3    H235789   0.800   1.457  12.154  2.3968  0.1275 -0.2013
 4792TIP3   OH235790   2.167   1.035  16.988 -0.3588 -0.6398 -0.8397
 4792TIP3    H135791   2.246   1.067  17.033 -1.0863  0.7216 -0.4853
 4792TIP3    H235792   2.112   1.001  17.059  0.1627 -2.1666 -1.1565
 4793TIP3   OH235793   4.107   2.758   5.950  0.1924 -0.3800  0.5224
 4793TIP3    H135794   4.132   2.710   5.871  0.7379  1.3366 -0.3569
 4793TIP3    H235795   4.021   2.722   5.974 -0.0776 -0.7468 -0.9794
 4794TIP3   OH235796   1.472   6.243   1.617  0.0966  0.2089  0.3894
 4794TIP3    H135797   1.564   6.240   1.590  0.6237  0.2428  2.1488
 4794TIP3    H235798   1.436   6.317   1.568  0.8681 -0.1285 -0.7083
 4795TIP3   OH235799   4.324   5.872   6.298 -0.6164 -0.2558 -0.2563
 4795TIP3    H135800   4.246   5.823   6.273 -0.5188 -0.4088 -0.2645
 4795TIP3    H235801   4.372   5.885   6.216 -0.2818 -0.7835 -0.1517
 4796TIP3   OH235802   3.032   6.648   4.771 -0.0537 -0.7580 -0.5903
 4796TIP3    H135803   3.078   6.686   4.847  1.3947 -2.0276 -0.7987
 4796TIP3    H235804   2.982   6.575   4.807 -0.4945 -0.4755 -0.6343
 4797TIP3   OH235805   5.521   6.576  16.617  0.7125  0.4091  0.2133
 4797TIP3    H135806   5.569   6.494  16.603  1.5791  0.5368  2.1685
 4797TIP3    H235807   5.510   6.613  16.530  0.0887 -1.9097 -0.7283
 4798TIP3   OH235808   2.278   0.831   5.100  0.3924  0.4941  0.2804
 4798TIP3    H135809   2.243   0.824   5.189 -0.9555 -1.9505 -0.3893
 4798TIP3    H235810   2.313   0.920   5.095 -1.2171  1.3197  2.6376
 4799TIP3   OH235811   5.920   1.058  12.887  0.5825  0.2174  0.5674
 4799TIP3    H135812   5.858   1.126  12.862 -0.4733  0.0222  2.5036
 4799TIP3    H235813   5.865   0.984  12.914  1.6833 -0.6473  0.4925
 4800TIP3   OH235814   3.769   4.869  14.609  0.4568 -0.6085 -0.7064
 4800TIP3    H135815   3.814   4.946  14.646 -1.9731  0.2483  0.6009
 4800TIP3    H235816   3.717   4.904  14.537  2.0610 -1.6348 -2.3862
 4801TIP3   OH235817   4.159   5.532  16.397  0.5538  0.3400  0.4251
 4801TIP3    H135818   4.204   5.543  16.313 -0.0118 -0.3960  0.0095
 4801TIP3    H235819   4.162   5.619  16.437  0.7889  0.7142 -0.3807
 4802TIP3   OH235820   4.205   2.656   5.336 -0.4790  0.4598 -0.0490
 4802TIP3    H135821   4.276   2.592   5.339  0.4871  1.4273 -1.6805
 4802TIP3    H235822   4.136   2.618   5.390  0.5293 -1.4086 -0.0435
 4803TIP3   OH235823   2.560   1.969  15.527 -0.7416 -0.0464 -0.0698
 4803TIP3    H135824   2.625   1.979  15.597 -2.0964  1.3063  1.0137
 4803TIP3    H235825   2.601   1.909  15.465  0.9536 -0.3545  1.3188
 4804TIP3   OH235826   5.542   2.207   1.205  1.0074 -0.4272  0.1947
 4804TIP3    H135827   5.631   2.192   1.175  1.0977 -0.0950  0.2926
 4804TIP3    H235828   5.539   2.301   1.226  0.3801 -0.2519 -0.6492
 4805TIP3   OH235829   0.950   3.463  13.199 -0.1803  0.4266  0.0199
 4805TIP3    H135830   0.975   3.374  13.222 -1.4664  0.1528  0.4357
 4805TIP3    H235831   0.888   3.453  13.127  0.1902  1.0251 -0.3858
 4806TIP3   OH235832   5.248   5.114  15.175  0.4814  0.0808 -0.4039
 4806TIP3    H135833   5.263   5.022  15.198  0.2118  0.2663  0.5146
 4806TIP3    H235834   5.154   5.120  15.163  0.6058  0.0176 -1.4236
 4807TIP3   OH235835   1.575   5.885   3.329 -0.2756 -0.1876  0.2385
 4807TIP3    H135836   1.648   5.836   3.368 -1.3050 -1.4277  0.6763
 4807TIP3    H235837   1.591   5.976   3.353  1.0542 -0.4697  0.4441
 4808TIP3   OH235838   3.227   1.259  10.827 -0.1333  0.0105 -0.0375
 4808TIP3    H135839   3.197   1.206  10.902  2.3304 -0.9264  0.3413
 4808TIP3    H235840   3.227   1.198  10.753  0.7749  0.0038 -0.0377
 4809TIP3   OH235841   6.162   2.882  14.970  0.3675 -0.2100 -0.4003
 4809TIP3    H135842   6.171   2.814  15.037 -0.2420  0.1731  0.0711
 4809TIP3    H235843   6.069   2.902  14.969  0.3751 -0.2436 -1.3967
 4810TIP3   OH235844   1.540   4.652  14.752 -0.3328 -0.6611 -0.1302
 4810TIP3    H135845   1.462   4.599  14.737 -0.2069 -0.5495 -1.2165
 4810TIP3    H235846   1.546   4.660  14.847 -1.3963 -1.0413 -0.0267
 4811TIP3   OH235847   4.206   0.098   1.105  0.1707  0.2652  0.2383
 4811TIP3    H135848   4.280   0.141   1.063  1.6710  0.3038  2.7651
 4811TIP3    H235849   4.224   0.004   1.095 -0.7955  0.2583 -1.4193
 4812TIP3   OH235850   6.753   0.318  15.823 -0.0927 -0.1245  0.4859
 4812TIP3    H135851   6.761   0.397  15.877 -0.5778 -0.9575  1.7747
 4812TIP3    H235852   6.837   0.312  15.778 -0.0932  1.2003  0.2696
 4813TIP3   OH235853   5.614   4.281   0.791 -0.1788 -0.5598 -0.1322
 4813TIP3    H135854   5.537   4.228   0.771 -0.3862 -1.1787  2.2552
 4813TIP3    H235855   5.680   4.219   0.820  1.3623 -0.0658 -2.4461
 4814TIP3   OH235856   6.011   1.787  12.113 -0.0627 -0.1525 -0.2987
 4814TIP3    H135857   6.074   1.735  12.063  0.1544  0.3105 -0.5116
 4814TIP3    H235858   6.021   1.757  12.203  0.7123  0.1643 -0.2727
 4815TIP3   OH235859   6.727   5.701  10.552  0.1974 -0.4372 -0.5491
 4815TIP3    H135860   6.782   5.717  10.475  0.9390 -1.3467 -0.2276
 4815TIP3    H235861   6.735   5.780  10.605 -1.6657  0.9003 -2.1884
 4816TIP3   OH235862   2.553   6.436   2.235  0.3087 -0.2138  0.7395
 4816TIP3    H135863   2.563   6.482   2.152  0.6684  0.1353  0.9769
 4816TIP3    H235864   2.461   6.408   2.236  0.6076 -1.3244 -0.3505
 4817TIP3   OH235865   0.129   3.706  12.441  0.5284 -0.9658  0.2226
 4817TIP3    H135866   0.213   3.717  12.396 -0.1862 -3.4047 -1.8070
 4817TIP3    H235867   0.144   3.635  12.504  0.6782  0.3895  1.7586
 4818TIP3   OH235868   1.135   0.653   0.597  0.4847  0.1185 -0.1102
 4818TIP3    H135869   1.221   0.611   0.597 -0.1148 -1.1602 -1.7130
 4818TIP3    H235870   1.098   0.632   0.512 -2.3803 -1.3106  1.4346
 4819TIP3   OH235871   1.987   2.975  12.007 -0.8177 -0.1981 -0.3102
 4819TIP3    H135872   1.935   2.895  12.010  0.6496 -1.3626 -3.4611
 4819TIP3    H235873   2.073   2.948  12.040 -0.8044  0.5216  0.2492
 4820TIP3   OH235874   0.286   5.863   1.281 -0.4915 -0.6382 -0.4640
 4820TIP3    H135875   0.198   5.896   1.296 -0.1300  0.1294 -0.0110
 4820TIP3    H235876   0.339   5.901   1.351  0.1230 -1.4096 -0.4913
 4821TIP3   OH235877   1.648   3.198   1.392 -0.5998  0.8061 -0.5841
 4821TIP3    H135878   1.672   3.169   1.304 -0.6105  3.4807 -1.5043
 4821TIP3    H235879   1.558   3.168   1.403 -0.2869 -0.3575 -1.1045
 4822TIP3   OH235880   0.040   3.324  16.805  0.2730  0.1283 -0.3000
 4822TIP3    H135881   0.054   3.337  16.711 -1.2707 -2.0468 -0.8610
 4822TIP3    H235882  -0.040   3.372  16.825 -0.2056 -0.6393 -0.3908
 4823TIP3   OH235883   0.886   3.997  13.236 -0.3689 -0.2473  0.1060
 4823TIP3    H135884   0.798   3.962  13.248  0.1222 -1.2224  0.9345
 4823TIP3    H235885   0.913   3.964  13.150 -1.3420  1.2469 -0.8057
 4824TIP3   OH235886   0.088   4.273  14.214  0.1117  0.7696  0.5780
 4824TIP3    H135887   0.016   4.315  14.166  0.2869  0.0319 -0.3456
 4824TIP3    H235888   0.050   4.193  14.250  0.2211  0.8545  0.8790
 4825TIP3   OH235889   4.110   6.208  13.925  0.3714  0.2247 -0.1365
 4825TIP3    H135890   4.199   6.193  13.892  0.4906 -0.5112  0.5065
 4825TIP3    H235891   4.121   6.222  14.019 -0.3392 -1.3287  0.1894
 4826TIP3   OH235892   3.297   3.882   3.508  0.3311  0.1170  0.0477
 4826TIP3    H135893   3.213   3.896   3.550  0.0471 -1.4598  0.0299
 4826TIP3    H235894   3.298   3.944   3.435  0.4108  2.1586  1.7364
 4827TIP3   OH235895   1.008   1.958  16.495 -0.2027  0.1733 -0.3009
 4827TIP3    H135896   1.067   1.890  16.463 -1.5156 -2.1496  2.0571
 4827TIP3    H235897   0.944   1.912  16.548 -1.5170  3.1965  0.8693
 4828TIP3   OH235898   4.721   2.222   1.140  0.0299  0.0312  0.4359
 4828TIP3    H135899   4.740   2.253   1.052 -1.6713 -0.7816 -0.2365
 4828TIP3    H235900   4.725   2.127   1.134  0.3988 -0.0227  1.3599
 4829TIP3   OH235901   2.722   1.834   3.969 -0.4144 -0.4176 -0.2769
 4829TIP3    H135902   2.631   1.830   3.998 -0.1904  2.7129  1.0649
 4829TIP3    H235903   2.717   1.847   3.874 -1.3941  0.9282 -0.0408
 4830TIP3   OH235904   6.320   6.314  13.334 -0.3808  0.2936  0.3307
 4830TIP3    H135905   6.289   6.357  13.414 -0.1236  0.8571  0.1325
 4830TIP3    H235906   6.337   6.223  13.360 -2.7122 -0.1756  0.3061
 4831TIP3   OH235907   1.923   0.171  11.614  0.0866 -0.0098  0.3224
 4831TIP3    H135908   2.006   0.135  11.583 -0.2476  0.9630 -1.7397
 4831TIP3    H235909   1.933   0.266  11.606 -2.5614  0.0267 -3.5767
 4832TIP3   OH235910   1.592   5.411   2.838 -0.2045 -0.1242  0.1393
 4832TIP3    H135911   1.574   5.401   2.932 -0.4223 -2.0167 -0.0825
 4832TIP3    H235912   1.579   5.504   2.821  2.7703  0.8430  2.6093
 4833TIP3   OH235913   0.916   1.655  15.570  0.5751  0.7951  0.4576
 4833TIP3    H135914   0.996   1.620  15.533  1.1441  2.3212  0.2173
 4833TIP3    H235915   0.910   1.744  15.536 -0.1447  1.3987  2.0964
 4834TIP3   OH235916   5.205   6.041  11.166  0.0392 -0.6439  0.1746
 4834TIP3    H135917   5.249   6.044  11.081  0.2541  0.3880  0.3101
 4834TIP3    H235918   5.157   5.958  11.166 -0.5932 -0.2916 -1.2675
 4835TIP3   OH235919   4.659   0.465  11.631  0.6548  0.6154 -0.1169
 4835TIP3    H135920   4.618   0.381  11.608 -0.1311  0.7289  0.8786
 4835TIP3    H235921   4.711   0.487  11.554 -0.8619  0.2957 -1.2577
 4836TIP3   OH235922   0.773   3.737  14.323  0.6770 -0.5675  0.1375
 4836TIP3    H135923   0.680   3.716  14.330  0.8945 -1.8392 -0.6924
 4836TIP3    H235924   0.798   3.765  14.411 -0.2325 -1.2978  0.6323
 4837TIP3   OH235925   6.504   1.498  12.515 -0.0494 -1.1371  0.1231
 4837TIP3    H135926   6.502   1.498  12.419  0.4554 -0.9329  0.1155
 4837TIP3    H235927   6.527   1.587  12.539 -0.3023 -1.1544  0.4422
 4838TIP3   OH235928   3.108   6.194  13.586  0.3989 -0.4266  0.0131
 4838TIP3    H135929   3.033   6.249  13.564  0.7173  0.4988  1.1759
 4838TIP3    H235930   3.165   6.199  13.510 -0.1321 -0.1167 -0.3629
 4839TIP3   OH235931   0.008   4.943   3.882 -0.6368 -0.6929 -0.4070
 4839TIP3    H135932  -0.019   5.028   3.848 -0.6806 -0.5005  0.1114
 4839TIP3    H235933  -0.074   4.899   3.904 -0.5727 -0.4885  0.2456
 4840TIP3   OH235934   2.639   2.133   0.441 -0.1128  0.1772 -0.4628
 4840TIP3    H135935   2.720   2.108   0.487  0.1336  0.1426 -0.9100
 4840TIP3    H235936   2.576   2.066   0.467  0.1600 -0.1162 -0.5500
 4841TIP3   OH235937   1.500   5.996  11.331  0.6004  0.0524  0.1387
 4841TIP3    H135938   1.446   5.922  11.303  0.3075 -0.1848  1.2972
 4841TIP3    H235939   1.583   5.958  11.358  1.2234  0.3768 -1.2376
 4842TIP3   OH235940   4.380   1.433  11.574 -0.0588  0.2554 -0.1256
 4842TIP3    H135941   4.409   1.347  11.604 -1.8064 -1.4025 -2.9538
 4842TIP3    H235942   4.436   1.452  11.499 -0.8803  0.7825 -0.6056
 4843TIP3   OH235943   1.796   2.139   5.048  0.0060  0.3041 -0.5525
 4843TIP3    H135944   1.758   2.062   5.091 -2.1529  1.7852  0.2767
 4843TIP3    H235945   1.756   2.140   4.961 -1.5404  1.5702  0.1378
 4844TIP3   OH235946   2.153   2.886   3.304  0.2398  0.1530 -0.1296
 4844TIP3    H135947   2.177   2.824   3.373  0.4211  0.7238  0.3306
 4844TIP3    H235948   2.061   2.868   3.286  0.7297 -1.3491 -1.1604
 4845TIP3   OH235949   1.687   3.605  10.879  0.1581 -0.0666 -0.4161
 4845TIP3    H135950   1.751   3.648  10.822  0.4722  0.2021  0.1333
 4845TIP3    H235951   1.649   3.677  10.930 -0.1837 -0.2956 -0.3506
 4846TIP3   OH235952   2.266   0.800   3.747 -0.0471 -0.1791 -0.2035
 4846TIP3    H135953   2.196   0.749   3.708 -0.0758 -0.2794 -0.0234
 4846TIP3    H235954   2.333   0.736   3.770  0.6632  0.0545 -1.5472
 4847TIP3   OH235955   2.990   1.706   0.228 -0.0097 -0.0628  0.1057
 4847TIP3    H135956   3.042   1.729   0.305  0.2324  0.0050 -0.0745
 4847TIP3    H235957   2.904   1.744   0.244 -0.0196 -0.2263  0.4344
 4848TIP3   OH235958   6.478   0.053  11.679  0.8648 -0.5205  0.2184
 4848TIP3    H135959   6.483   0.119  11.610  0.8529 -0.1286  0.5924
 4848TIP3    H235960   6.531  -0.020  11.646  2.7262  0.5509  0.7779
 4849TIP3   OH235961   3.807   0.739  11.224 -0.4057 -0.2328 -1.1233
 4849TIP3    H135962   3.867   0.671  11.256  0.4681  1.1100  0.1532
 4849TIP3    H235963   3.833   0.752  11.132 -0.6266 -1.6449 -1.4060
 4850TIP3   OH235964   5.404   2.711   3.920 -0.1905  0.0989  0.0687
 4850TIP3    H135965   5.367   2.779   3.975 -0.4568  0.8239 -0.9875
 4850TIP3    H235966   5.330   2.676   3.870 -0.0380 -0.8826  0.5103
 4851TIP3   OH235967   3.474   0.806   1.323 -0.2254  0.8954  0.2442
 4851TIP3    H135968   3.490   0.850   1.239  1.0491  0.1030  0.0629
 4851TIP3    H235969   3.383   0.777   1.317 -0.2363  1.1029 -0.7630
 4852TIP3   OH235970   1.991   2.725   0.773 -0.0404 -0.1374  0.3395
 4852TIP3    H135971   1.947   2.672   0.706 -1.7816  0.1143  1.2487
 4852TIP3    H235972   2.005   2.810   0.731  0.9352 -0.6586 -0.4414
 4853TIP3   OH235973   2.242   4.636  12.978 -0.0505 -0.5148  0.1292
 4853TIP3    H135974   2.278   4.690  13.048 -0.3728  1.5650 -1.2683
 4853TIP3    H235975   2.158   4.677  12.957 -0.7524 -2.1459 -0.2939
 4854TIP3   OH235976   4.688   3.511   2.382  0.3068  0.4125  0.3639
 4854TIP3    H135977   4.735   3.460   2.315  0.3189  1.0036 -0.0885
 4854TIP3    H235978   4.704   3.464   2.463 -0.4215 -0.8011 -0.1811
 4855TIP3   OH235979   2.091   3.508   2.301  0.2387 -0.0027  0.1462
 4855TIP3    H135980   2.044   3.579   2.345  1.3674  1.6232 -1.2442
 4855TIP3    H235981   2.115   3.449   2.373 -1.9831  0.2179  1.1475
 4856TIP3   OH235982   5.226   1.854   4.429 -0.0866 -0.0274 -0.5281
 4856TIP3    H135983   5.202   1.769   4.466 -0.2510 -0.7699 -2.3024
 4856TIP3    H235984   5.298   1.884   4.485  1.1583 -2.1412 -0.9069
 4857TIP3   OH235985   3.798   0.216   3.652 -0.4016  0.2039  0.2260
 4857TIP3    H135986   3.797   0.168   3.734 -2.3864  0.6095  0.4475
 4857TIP3    H235987   3.872   0.276   3.660  1.5125 -2.0813  0.3297
 4858TIP3   OH235988   3.770   1.292   1.087  0.2631 -0.2076  0.2784
 4858TIP3    H135989   3.796   1.200   1.097 -0.0161 -0.4706 -1.2218
 4858TIP3    H235990   3.698   1.303   1.148  0.7646 -0.7959  0.9861
 4859TIP3   OH235991   1.666   3.322   5.478  0.2889  0.5848 -0.3055
 4859TIP3    H135992   1.753   3.304   5.515 -1.0568 -1.2379  2.1346
 4859TIP3    H235993   1.670   3.286   5.389  1.9844  0.4367 -0.1849
 4860TIP3   OH235994   1.773   3.007  16.181 -0.1132  0.5803 -0.1560
 4860TIP3    H135995   1.705   2.943  16.162  1.7040 -1.4311 -0.0721
 4860TIP3    H235996   1.762   3.074  16.113 -2.0451  0.2149 -0.2412
 4861TIP3   OH235997   0.161   0.500   4.342 -0.0499  0.0266  0.1364
 4861TIP3    H135998   0.120   0.582   4.314 -1.5625 -0.7451  0.0076
 4861TIP3    H235999   0.227   0.483   4.276 -1.6171 -0.2725 -1.4054
 4862TIP3   OH236000   1.767   5.796   2.228  0.0584  1.0041 -0.4170
 4862TIP3    H136001   1.803   5.798   2.317 -1.7626 -0.3335  0.3640
 4862TIP3    H236002   1.845   5.792   2.172  1.2105 -1.7668  1.2408
 4863TIP3   OH236003   5.996   0.730  15.060  0.5621  0.5056 -0.4891
 4863TIP3    H136004   5.959   0.816  15.042  3.1318  1.0802 -3.4293
 4863TIP3    H236005   6.065   0.746  15.125 -0.3422  0.2859  0.5609
 4864TIP3   OH236006   3.121   4.574   4.406  0.4434 -0.3920 -0.3701
 4864TIP3    H136007   3.084   4.656   4.374 -1.5191 -1.0964  0.0132
 4864TIP3    H236008   3.113   4.579   4.501 -0.1366 -1.2116 -0.3654
 4865TIP3   OH236009   4.549   2.680   2.079 -0.0426 -0.3569  0.4629
 4865TIP3    H136010   4.629   2.717   2.116  0.6828 -2.1482  0.7313
 4865TIP3    H236011   4.563   2.586   2.082 -1.9782 -0.6649  0.0585
 4866TIP3   OH236012   6.787   2.736  11.227 -0.2995  0.3510  0.2953
 4866TIP3    H136013   6.761   2.683  11.302 -0.7518  0.6068  0.3201
 4866TIP3    H236014   6.737   2.817  11.236 -1.2615 -0.0907 -0.9108
 4867TIP3   OH236015   5.749   3.209  15.648 -0.2190  0.0604 -0.3500
 4867TIP3    H136016   5.835   3.180  15.680 -0.6080 -0.6782  0.0565
 4867TIP3    H236017   5.761   3.301  15.626 -0.1099  0.8039  2.6193
 4868TIP3   OH236018   5.263   0.051   6.500  0.3480  0.0449 -0.0757
 4868TIP3    H136019   5.248   0.056   6.595 -0.5470 -0.7628 -0.1654
 4868TIP3    H236020   5.210   0.121   6.464  0.5027  0.2024  0.0029
 4869TIP3   OH236021   4.370   4.065  17.193 -0.2619 -0.1043  0.2058
 4869TIP3    H136022   4.442   4.117  17.230  0.4603 -1.6276  0.9596
 4869TIP3    H236023   4.322   4.032  17.269 -1.4988  0.4906 -0.2845
 4870TIP3   OH236024   0.856   0.972  16.107  0.5689  0.0130 -0.1276
 4870TIP3    H136025   0.894   1.055  16.078  0.0242  0.1836 -0.3667
 4870TIP3    H236026   0.891   0.907  16.046  1.9985 -0.1329  0.8343
 4871TIP3   OH236027   6.427   3.187  14.066 -0.4502  0.4140 -0.5073
 4871TIP3    H136028   6.450   3.193  13.974 -0.0639 -1.5546 -0.5656
 4871TIP3    H236029   6.490   3.124  14.102  0.5790  2.5126  1.4931
 4872TIP3   OH236030   2.728   5.168   6.699  0.2054  0.1511 -0.3774
 4872TIP3    H136031   2.806   5.174   6.754 -0.5657  1.2982  0.5946
 4872TIP3    H236032   2.760   5.188   6.611  1.3701 -1.3217 -0.3273
 4873TIP3   OH236033   4.220   4.554   6.325  0.2574  0.6662  0.8737
 4873TIP3    H136034   4.173   4.629   6.287 -0.5432  0.0062  0.5425
 4873TIP3    H236035   4.152   4.503   6.370  0.8377  0.2659  1.3136
 4874TIP3   OH236036   1.121   4.292  13.143 -0.2676  0.2416 -0.2728
 4874TIP3    H136037   1.164   4.216  13.103  0.3219  0.1092  0.5842
 4874TIP3    H236038   1.054   4.317  13.080  0.4627 -0.1169 -1.2215
 4875TIP3   OH236039   5.319   5.192   3.795  0.2898  0.4943  0.2897
 4875TIP3    H136040   5.392   5.253   3.784  1.1098 -0.0366  2.4726
 4875TIP3    H236041   5.241   5.245   3.783  1.0121  1.6920  0.8402
 4876TIP3   OH236042   3.988   3.145   0.110  0.2366 -0.3314 -0.0456
 4876TIP3    H136043   3.944   3.131   0.193 -1.2052 -0.1597 -0.7636
 4876TIP3    H236044   3.958   3.232   0.081  1.9306  0.2849 -0.0119
 4877TIP3   OH236045   4.417   2.779   1.627  0.1903  0.0601 -0.5056
 4877TIP3    H136046   4.422   2.834   1.549  0.7975  1.4874  0.5231
 4877TIP3    H236047   4.474   2.822   1.690 -1.5971 -0.1495  1.2952
 4878TIP3   OH236048   1.098   3.675  13.278 -0.3938 -0.7359 -0.1343
 4878TIP3    H136049   1.159   3.635  13.340  0.0588  1.8137  1.1323
 4878TIP3    H236050   1.038   3.605  13.254  1.3986 -2.5953  0.6822
 4879TIP3   OH236051   0.439   4.823   2.516  0.4373 -0.0102  0.2826
 4879TIP3    H136052   0.534   4.813   2.507  0.2790 -0.1368 -1.5042
 4879TIP3    H236053   0.423   4.914   2.491 -0.0999 -0.5042 -1.2048
 4880TIP3   OH236054   6.132   5.893  16.955 -0.1165 -0.0251  0.5776
 4880TIP3    H136055   6.190   5.869  17.027 -0.5768 -0.7902  0.6987
 4880TIP3    H236056   6.050   5.848  16.974 -0.2187 -0.3098 -0.4632
 4881TIP3   OH236057   3.818   2.790  13.186 -0.6329 -0.6421 -0.5713
 4881TIP3    H136058   3.867   2.836  13.118 -0.1825 -0.3318 -0.0396
 4881TIP3    H236059   3.726   2.801  13.162 -0.5860  1.5587  0.2044
 4882TIP3   OH236060   5.142   1.473   6.139  0.2574 -0.4135 -0.0022
 4882TIP3    H136061   5.061   1.434   6.172 -0.0232 -0.3938 -0.6635
 4882TIP3    H236062   5.201   1.399   6.125  1.2838 -0.2341  2.9380
 4883TIP3   OH236063   2.034   3.274  15.084 -0.2715  0.0432 -0.4362
 4883TIP3    H136064   2.055   3.318  15.166  0.2123 -0.9921  0.0144
 4883TIP3    H236065   2.003   3.343  15.026 -3.3725  0.3826  1.5437
 4884TIP3   OH236066   2.056   6.685  14.163 -0.1225 -0.8969 -0.2601
 4884TIP3    H136067   2.006   6.653  14.238  0.5981 -0.5237  0.3823
 4884TIP3    H236068   2.045   6.780  14.166 -0.0816 -0.8791 -0.6253
 4885TIP3   OH236069   5.098   1.831   2.400  0.2850 -0.0620  0.0868
 4885TIP3    H136070   5.069   1.744   2.375 -0.7324  0.6042 -1.0976
 4885TIP3    H236071   5.095   1.882   2.319  2.1297  0.7471  0.4889
 4886TIP3   OH236072   5.521   5.970  12.772  0.0856 -0.6382  0.3218
 4886TIP3    H136073   5.612   5.960  12.800  0.7067  0.3527 -1.3122
 4886TIP3    H236074   5.493   6.054  12.809  0.3881 -0.1143 -0.6318
 4887TIP3   OH236075   2.797   2.984   3.564 -0.4114 -0.3684 -0.1772
 4887TIP3    H136076   2.722   2.924   3.562 -1.0187  0.3531  0.3940
 4887TIP3    H236077   2.858   2.949   3.500 -0.6071 -1.7896  0.4049
 4888TIP3   OH236078   1.575   6.783  15.344  0.5100 -0.4654 -0.5190
 4888TIP3    H136079   1.537   6.737  15.419 -2.8449  0.0338 -1.8254
 4888TIP3    H236080   1.542   6.872  15.351  2.1921  0.2247 -1.2286
 4889TIP3   OH236081   0.453   1.396   1.837  0.2420  0.3915  0.0759
 4889TIP3    H136082   0.475   1.449   1.760  0.3457  0.0510 -0.1338
 4889TIP3    H236083   0.405   1.321   1.801  2.4944 -1.0886  0.0294
 4890TIP3   OH236084   0.785   6.641   2.389 -0.4842 -0.6948 -0.8428
 4890TIP3    H136085   0.806   6.561   2.438  2.0715  0.7244  0.4987
 4890TIP3    H236086   0.699   6.667   2.421  1.2754  0.4028  3.3794
 4891TIP3   OH236087   4.529   5.741   5.956  0.0969 -0.3560 -0.2789
 4891TIP3    H136088   4.475   5.814   5.927 -0.1907  0.1294  1.3797
 4891TIP3    H236089   4.619   5.771   5.947 -0.0277  0.4342  0.8818
 4892TIP3   OH236090   2.865   3.558  12.518  0.5248  0.0978 -0.1777
 4892TIP3    H136091   2.920   3.586  12.445  1.4393  1.1403  0.9018
 4892TIP3    H236092   2.821   3.638  12.547 -1.0637 -0.5971 -0.5857
 4893TIP3   OH236093   4.651   0.676   3.685 -0.5454  0.3640  0.2728
 4893TIP3    H136094   4.739   0.670   3.722  0.0491 -0.3969 -1.2453
 4893TIP3    H236095   4.620   0.763   3.711  2.6145  2.7891 -3.4240
 4894TIP3   OH236096   4.621   1.734  14.266  0.4582  0.0734 -0.3821
 4894TIP3    H136097   4.677   1.694  14.200  0.5026  1.0399 -0.9390
 4894TIP3    H236098   4.576   1.660  14.307  0.0407 -0.5059 -1.8543
 4895TIP3   OH236099   2.895   3.676  14.951 -0.0621  0.2244 -0.3013
 4895TIP3    H136100   2.884   3.632  15.035 -0.0021 -1.2047 -1.0167
 4895TIP3    H236101   2.986   3.657  14.926  0.2443  1.5193 -0.2142
 4896TIP3   OH236102   5.449   1.721   0.350 -0.4453 -0.2006  0.4859
 4896TIP3    H136103   5.374   1.703   0.294 -0.8937  1.7093  0.4451
 4896TIP3    H236104   5.514   1.761   0.292  0.3499 -1.2297  0.6571
 4897TIP3   OH236105   3.109   3.013   2.875  0.6781  0.1682 -0.3558
 4897TIP3    H136106   3.082   3.078   2.810 -0.6997 -0.1010 -0.0566
 4897TIP3    H236107   3.104   2.929   2.828  0.9721  0.1116 -0.2876
 4898TIP3   OH236108   4.909   3.659   1.699  0.1551 -0.0424  0.3497
 4898TIP3    H136109   4.866   3.684   1.618 -0.1256  2.0050  1.1045
 4898TIP3    H236110   4.946   3.740   1.733  1.9462 -1.2303  1.2860
 4899TIP3   OH236111   3.982   1.433  12.960 -0.4471 -0.4083  0.2251
 4899TIP3    H136112   4.057   1.391  13.001 -0.0676 -0.1189 -0.1669
 4899TIP3    H236113   3.907   1.379  12.986 -0.0858 -0.7943  0.4740
 4900TIP3   OH236114   6.259   2.384  13.819 -0.4843  0.3441 -0.2221
 4900TIP3    H136115   6.305   2.446  13.875  1.3831 -1.1689 -0.0544
 4900TIP3    H236116   6.181   2.360  13.869  1.3367 -1.2750  1.9515
 4901TIP3   OH236117   0.008   5.834  16.083  0.0042  0.3765 -0.1547
 4901TIP3    H136118  -0.005   5.835  16.178 -0.2553 -0.2397 -0.1822
 4901TIP3    H236119   0.103   5.847  16.072  0.1465 -0.2881  0.2160
 4902TIP3   OH236120   0.269   0.574   2.600 -0.1174 -0.1780 -0.5959
 4902TIP3    H136121   0.209   0.649   2.598 -1.6495 -1.3723 -0.6512
 4902TIP3    H236122   0.292   0.564   2.693 -2.6721 -1.7230 -0.0605
 4903TIP3   OH236123   3.058   3.893   0.326 -0.1258 -0.4080  0.6607
 4903TIP3    H136124   2.979   3.914   0.275  0.1160 -4.6953 -1.6932
 4903TIP3    H236125   3.130   3.930   0.275 -0.2507 -0.5989  0.3448
 4904TIP3   OH236126   2.862   5.349   2.551  0.2893 -0.2734 -0.0497
 4904TIP3    H136127   2.930   5.375   2.489  0.7692  0.7966  0.9101
 4904TIP3    H236128   2.783   5.394   2.520  0.0017 -1.5624 -1.1962
 4905TIP3   OH236129   6.468   3.927   3.989 -0.0286 -1.1580 -0.9775
 4905TIP3    H136130   6.401   3.990   3.964  0.7389 -0.7071 -1.9454
 4905TIP3    H236131   6.548   3.979   3.998  0.1792 -1.6742  0.2279
 4906TIP3   OH236132   5.833   0.820   1.817 -0.0937 -0.0044  0.3173
 4906TIP3    H136133   5.892   0.888   1.848  2.0599 -0.5894 -2.3207
 4906TIP3    H236134   5.865   0.739   1.857 -0.0972 -0.0750  0.1791
 4907TIP3   OH236135   1.813   0.770   5.851 -0.1724  0.0443 -0.3590
 4907TIP3    H136136   1.794   0.721   5.772 -0.0011  0.7240 -0.8305
 4907TIP3    H236137   1.775   0.856   5.836  0.5077  0.4178 -0.0161
 4908TIP3   OH236138   2.044   0.582   3.674 -0.2736 -0.0913 -0.6030
 4908TIP3    H136139   2.116   0.520   3.669 -0.1133  0.1216 -0.9766
 4908TIP3    H236140   1.980   0.541   3.733  0.5397  0.1108  0.4307
 4909TIP3   OH236141   0.359   6.773   1.428  0.7108  0.0094 -0.3620
 4909TIP3    H136142   0.377   6.814   1.343  0.6843  1.3517  0.2787
 4909TIP3    H236143   0.363   6.845   1.491  0.2116 -0.8955  0.7126
 4910TIP3   OH236144   6.080   5.929   2.291  0.3059  0.5790 -0.1562
 4910TIP3    H136145   5.989   5.910   2.269 -0.3862  2.1702  1.2521
 4910TIP3    H236146   6.109   5.990   2.223  0.1658  0.4882 -0.2982
 4911TIP3   OH236147   3.093   1.217  15.192  0.5329  0.0205  0.4047
 4911TIP3    H136148   3.150   1.154  15.150 -0.5492 -1.1055  0.5892
 4911TIP3    H236149   3.144   1.251  15.266  0.7076 -1.4907  0.9868
 4912TIP3   OH236150   4.618   1.925   0.293  0.4308 -0.9804  0.0449
 4912TIP3    H136151   4.628   2.007   0.244 -0.5266 -1.2927 -0.6880
 4912TIP3    H236152   4.533   1.933   0.336  0.6199 -1.3193  0.4818
 4913TIP3   OH236153   5.014   0.080   4.797 -0.4964  0.6562 -0.5958
 4913TIP3    H136154   4.966   0.090   4.879  0.9782  2.2149  0.1040
 4913TIP3    H236155   5.009   0.166   4.755  1.4148  0.7854 -0.6288
 4914TIP3   OH236156   1.951   2.815   5.276 -0.2734 -0.2128  0.8595
 4914TIP3    H136157   1.979   2.725   5.261 -0.2627  0.2755 -2.4160
 4914TIP3    H236158   2.032   2.865   5.279 -0.4081  0.1361 -0.8244
 4915TIP3   OH236159   5.698   4.530  12.104  0.0509  0.2724  0.7944
 4915TIP3    H136160   5.649   4.612  12.098 -2.4370 -1.2021  0.1719
 4915TIP3    H236161   5.666   4.478  12.030  1.7699 -1.1904  1.0480
 4916TIP3   OH236162   0.919   2.799  15.836  0.5304 -0.3176  0.2635
 4916TIP3    H136163   0.963   2.821  15.918  1.3844 -0.1320 -0.2367
 4916TIP3    H236164   0.956   2.860  15.773 -0.2958 -0.3077 -0.2073
 4917TIP3   OH236165   0.840   6.586   3.087 -0.4094  0.0511 -0.6247
 4917TIP3    H136166   0.895   6.664   3.089 -0.4019  0.0266  0.4337
 4917TIP3    H236167   0.795   6.590   3.002 -0.2771  1.1125 -0.6514
 4918TIP3   OH236168   3.230   6.652  16.959 -0.0340 -0.0599  0.0287
 4918TIP3    H136169   3.207   6.671  16.869  0.4257  1.3422  0.2061
 4918TIP3    H236170   3.177   6.713  17.011  0.4310 -0.1938  0.6650
 4919TIP3   OH236171   2.424   0.537  14.680  0.1311  0.0851  0.4183
 4919TIP3    H136172   2.387   0.455  14.712 -0.3639 -0.3413 -1.1578
 4919TIP3    H236173   2.463   0.578  14.757  0.4314 -1.6538  1.2297
 4920TIP3   OH236174   4.478   2.292  12.794  0.6305 -0.1521 -0.3021
 4920TIP3    H136175   4.486   2.264  12.703 -0.2627 -0.9272 -0.1484
 4920TIP3    H236176   4.465   2.211  12.843 -1.7847  0.4719  0.1622
 4921TIP3   OH236177   4.859   0.367  12.694  0.3468 -0.0653  0.1042
 4921TIP3    H136178   4.895   0.316  12.622  0.1263 -0.2003  0.0854
 4921TIP3    H236179   4.922   0.356  12.766  0.5682  0.0752 -0.0713
 4922TIP3   OH236180   5.480   1.707  17.083 -0.3110  0.2383  0.0882
 4922TIP3    H136181   5.482   1.612  17.073  1.7712  0.0965  1.5049
 4922TIP3    H236182   5.522   1.742  17.004  1.3108 -0.1528  0.7598
 4923TIP3   OH236183   3.661   6.200   3.468  0.3236  0.5085 -0.1727
 4923TIP3    H136184   3.696   6.163   3.387  1.1841  0.7608  0.0778
 4923TIP3    H236185   3.665   6.295   3.456 -0.4432  0.5394 -0.2108
 4924TIP3   OH236186   1.720   6.257  11.782 -0.8521  0.2280 -0.0567
 4924TIP3    H136187   1.787   6.322  11.762 -0.3416 -0.5861 -1.0436
 4924TIP3    H236188   1.723   6.247  11.877 -1.3041  2.0275  0.1656
 4925TIP3   OH236189   5.365   1.767   1.159  0.1435 -0.0876 -0.0976
 4925TIP3    H136190   5.310   1.825   1.212 -0.4918 -0.2114 -0.6229
 4925TIP3    H236191   5.450   1.811   1.157  0.1726 -0.0958  1.0439
 4926TIP3   OH236192   2.412   1.523   4.553  0.4636 -0.3050 -0.1221
 4926TIP3    H136193   2.457   1.547   4.634  1.8394  1.5237 -1.3819
 4926TIP3    H236194   2.464   1.452   4.517  1.0746  0.2927 -0.4391
 4927TIP3   OH236195   3.311   6.496   2.229 -0.4717  0.1567  0.4421
 4927TIP3    H136196   3.395   6.479   2.186 -0.5285  1.5668 -0.2591
 4927TIP3    H236197   3.332   6.503   2.322  0.0914 -0.1358  0.3387
 4928TIP3   OH236198   3.844   1.154   5.104 -0.0192 -0.0614  0.0375
 4928TIP3    H136199   3.877   1.067   5.080  0.3934 -0.3748  1.6642
 4928TIP3    H236200   3.749   1.146   5.096  0.1026 -0.1313 -1.5062
 4929TIP3   OH236201   2.763   5.217   0.791  0.5078  0.2907 -0.3512
 4929TIP3    H136202   2.808   5.278   0.849 -0.1216  0.8960 -0.4961
 4929TIP3    H236203   2.811   5.222   0.708  0.9583 -0.0293 -0.1117
 4930TIP3   OH236204   0.812   0.169   3.103 -0.0499 -0.1497 -0.1247
 4930TIP3    H136205   0.760   0.124   3.170  0.3801  0.2008  0.4403
 4930TIP3    H236206   0.885   0.110   3.086  0.8654  0.6146  1.0824
 4931TIP3   OH236207   1.918   3.197   1.491  0.4546 -0.3399 -0.5254
 4931TIP3    H136208   1.970   3.191   1.411  2.0747  0.3886  0.4500
 4931TIP3    H236209   1.831   3.166   1.465  0.5040  1.3725 -2.9406
 4932TIP3   OH236210   5.935   4.327   4.427  0.0309  0.1974  0.1160
 4932TIP3    H136211   5.856   4.276   4.444 -0.5920  0.7036 -1.1168
 4932TIP3    H236212   5.930   4.401   4.488 -0.8377  0.6152 -0.4412
 4933TIP3   OH236213   1.131   4.534  16.974  0.3746 -0.7671 -0.1054
 4933TIP3    H136214   1.165   4.623  16.967  2.9925 -1.7290 -0.0725
 4933TIP3    H236215   1.078   4.522  16.896 -0.4416  0.9832  0.1544
 4934TIP3   OH236216   1.293   5.768   3.136 -0.2490  0.3361  0.1061
 4934TIP3    H136217   1.217   5.720   3.105  0.3013 -0.2141 -0.3950
 4934TIP3    H236218   1.366   5.736   3.083  0.0631  1.9849 -0.5073
 4935TIP3   OH236219   2.063   5.300   3.558  0.2280  0.1294  0.1882
 4935TIP3    H136220   2.123   5.370   3.585  0.2355  0.6966 -1.2400
 4935TIP3    H236221   2.105   5.261   3.480 -1.5726  0.9725 -1.2358
 4936TIP3   OH236222   3.160   1.640   6.193 -0.6250  0.4120  0.3092
 4936TIP3    H136223   3.143   1.670   6.282 -1.4014 -0.9668  0.6465
 4936TIP3    H236224   3.234   1.693   6.163  0.2379  0.2541  2.0893
 4937TIP3   OH236225   3.543   1.830   0.081 -0.7149  0.5795  0.2754
 4937TIP3    H136226   3.457   1.854   0.047 -0.8568 -0.6260 -0.2453
 4937TIP3    H236227   3.586   1.784   0.009 -1.0218 -2.0103  1.6724
 4938TIP3   OH236228   5.934   0.385  15.984  0.1046  0.6497 -0.2809
 4938TIP3    H136229   5.871   0.315  16.003 -0.0856  1.1050  0.7941
 4938TIP3    H236230   5.951   0.377  15.890  1.6094 -2.1396  0.1441
 4939TIP3   OH236231   6.413   6.561   2.749 -0.5157  0.0812 -0.2359
 4939TIP3    H136232   6.389   6.468   2.748 -0.5750  0.0766  0.8068
 4939TIP3    H236233   6.442   6.577   2.839 -3.0165  1.6908  0.3484
 4940TIP3   OH236234   5.131   0.321  16.115 -0.1427 -0.4102 -0.6830
 4940TIP3    H136235   5.136   0.231  16.083 -0.0457  0.1558 -2.3396
 4940TIP3    H236236   5.161   0.374  16.041 -1.5234  1.0652 -0.2194
 4941TIP3   OH236237   6.288   4.618   2.292  0.4179 -0.0792  0.3759
 4941TIP3    H136238   6.244   4.641   2.211  0.0182 -1.3566  0.2234
 4941TIP3    H236239   6.346   4.692   2.310  0.2218  0.3799 -0.8652
 4942TIP3   OH236240   0.167   4.592  16.834 -0.0771 -0.2904 -0.1326
 4942TIP3    H136241   0.150   4.501  16.811  0.8962 -0.2935 -0.8968
 4942TIP3    H236242   0.164   4.638  16.750  2.5252 -0.1295 -0.1709
 4943TIP3   OH236243   1.470   4.219  16.541 -0.0900 -0.0276 -0.3249
 4943TIP3    H136244   1.454   4.165  16.619 -0.2594  0.5965  0.0728
 4943TIP3    H236245   1.559   4.253  16.552 -0.2747  0.4078 -0.2039
 4944TIP3   OH236246   3.500   1.466  16.604 -0.7663 -0.1696  0.4153
 4944TIP3    H136247   3.409   1.444  16.583 -0.6315  0.0303 -0.3956
 4944TIP3    H236248   3.552   1.403  16.555 -0.3980  1.3645 -1.2100
 4945TIP3   OH236249   5.140   6.063  15.444  0.0923  0.6021 -0.2827
 4945TIP3    H136250   5.174   6.073  15.533  0.7170  0.5111 -0.5036
 4945TIP3    H236251   5.065   6.005  15.453  0.3838  0.2846  0.1378
 4946TIP3   OH236252   2.217   1.410   1.540  0.2507  1.1717  0.2001
 4946TIP3    H136253   2.242   1.380   1.453  1.3012 -0.0272  0.8848
 4946TIP3    H236254   2.271   1.357   1.600 -2.0521  0.3759  1.6496
 4947TIP3   OH236255   0.405   4.125   2.029  0.1951 -0.4900  0.3937
 4947TIP3    H136256   0.316   4.092   2.043 -0.4499 -0.0974 -2.4964
 4947TIP3    H236257   0.393   4.207   1.981  2.0920  0.1459  0.9531
 4948TIP3   OH236258   6.110   5.002   0.538 -0.0290  0.1037  0.2538
 4948TIP3    H136259   6.164   5.048   0.473  0.4606 -0.2175  0.4262
 4948TIP3    H236260   6.121   5.052   0.618  1.5986 -1.0573  0.7958
 4949TIP3   OH236261   4.344   0.444  15.130  0.5502 -0.3105 -0.9198
 4949TIP3    H136262   4.394   0.379  15.182  1.0582  0.3834 -0.5265
 4949TIP3    H236263   4.403   0.520  15.125 -0.0570  0.1290 -1.3532
 4950TIP3   OH236264   6.011   6.773  13.150 -0.4550 -0.3192  0.7231
 4950TIP3    H136265   6.006   6.811  13.062 -1.0212 -0.2659  0.7781
 4950TIP3    H236266   6.006   6.679  13.135  1.3487 -0.4202  0.5561
 4951TIP3   OH236267   2.926   4.512   5.910  0.1363 -0.0397 -0.7843
 4951TIP3    H136268   2.991   4.551   5.851 -0.0722  1.1284 -0.2534
 4951TIP3    H236269   2.928   4.567   5.988  1.0824 -2.1293  0.7096
 4952TIP3   OH236270   5.567   5.356  16.993 -0.0273 -0.5403 -0.1302
 4952TIP3    H136271   5.579   5.421  17.062 -0.3623 -2.5484  1.8453
 4952TIP3    H236272   5.478   5.370  16.961  0.5126  1.1295 -0.9863
 4953TIP3   OH236273   6.396   3.227   2.122  0.5014 -0.4195 -0.3230
 4953TIP3    H136274   6.413   3.188   2.208  1.3435 -0.3808 -0.4670
 4953TIP3    H236275   6.482   3.253   2.090  0.3731 -1.7945 -1.8360
 4954TIP3   OH236276   2.853   5.652  16.231 -0.0636 -0.2969  0.1099
 4954TIP3    H136277   2.807   5.672  16.149  0.9598 -1.7474 -0.8378
 4954TIP3    H236278   2.836   5.558  16.245  0.1002 -0.1470  1.3644
 4955TIP3   OH236279   5.417   6.674  14.329  0.6169  0.2194  0.4681
 4955TIP3    H136280   5.430   6.743  14.264  4.5772 -0.6004  0.2694
 4955TIP3    H236281   5.353   6.710  14.390 -0.2125  2.5654 -1.6818
 4956TIP3   OH236282   0.232   3.152   0.953 -0.3347 -0.0999  0.0213
 4956TIP3    H136283   0.327   3.148   0.942 -0.7527 -1.7634 -3.4845
 4956TIP3    H236284   0.202   3.062   0.938 -2.5367  0.5072  0.5857
 4957TIP3   OH236285   4.754   5.103   0.840 -0.5032 -0.9112  0.0939
 4957TIP3    H136286   4.827   5.141   0.889 -2.6330  2.1015  1.1019
 4957TIP3    H236287   4.715   5.039   0.900 -1.1594  0.4649  1.1625
 4958TIP3   OH236288   0.599   5.169   4.533  0.2303  0.6274 -0.6021
 4958TIP3    H136289   0.550   5.184   4.614  0.5548 -0.2965 -0.2254
 4958TIP3    H236290   0.533   5.174   4.464 -0.4092 -0.5068 -0.1078
 4959TIP3   OH236291   6.067   5.904  11.055 -0.1202 -0.4221 -0.3699
 4959TIP3    H136292   6.002   5.836  11.070 -0.8205  0.3313  0.0364
 4959TIP3    H236293   6.090   5.895  10.962 -2.7517  0.9642 -1.2227
 4960TIP3   OH236294   1.861   3.295   5.730  0.3603 -0.3989 -0.0337
 4960TIP3    H136295   1.864   3.207   5.691  1.0074 -0.0019 -0.9044
 4960TIP3    H236296   1.893   3.353   5.661 -0.6197  0.6024  0.3301
 4961TIP3   OH236297   2.404   4.828   0.712  0.2764  0.2592  0.2156
 4961TIP3    H136298   2.496   4.849   0.729 -0.0171  0.8002  1.2161
 4961TIP3    H236299   2.395   4.829   0.617  0.7339  2.7058  0.1708
 4962TIP3   OH236300   6.159   3.383  12.632 -0.6708  0.2582 -0.0655
 4962TIP3    H136301   6.099   3.309  12.643  1.6286 -1.4494  1.2952
 4962TIP3    H236302   6.156   3.401  12.538  0.2251 -2.9204 -0.7926
 4963TIP3   OH236303   5.601   1.150  13.941  0.6154 -0.7548 -0.1043
 4963TIP3    H136304   5.636   1.211  13.876  1.1860 -1.9536 -0.9323
 4963TIP3    H236305   5.657   1.073  13.935  2.9889  0.4114  4.3307
 4964TIP3   OH236306   4.726   1.129   5.323  0.1544 -0.4723  0.0839
 4964TIP3    H136307   4.796   1.159   5.265 -0.6932 -0.3953 -0.9016
 4964TIP3    H236308   4.760   1.047   5.360  0.9774 -0.1709  0.0190
 4965TIP3   OH236309   0.846   1.404  17.099  0.1622  0.2574 -0.1609
 4965TIP3    H136310   0.785   1.477  17.088 -0.0711 -0.0168 -0.7078
 4965TIP3    H236311   0.906   1.412  17.025 -0.3076 -0.5330 -0.6298
 4966TIP3   OH236312   3.770   4.813  14.041 -0.5205  0.0743 -0.4922
 4966TIP3    H136313   3.678   4.818  14.069 -0.6770  0.0415 -0.9975
 4966TIP3    H236314   3.775   4.868  13.963 -0.1908 -0.2024 -0.6702
 4967TIP3   OH236315   1.979   6.532   5.915  0.5595  0.1722 -0.0373
 4967TIP3    H136316   2.045   6.580   5.965  0.5083  0.5655 -0.3451
 4967TIP3    H236317   2.030   6.484   5.849  0.4948  0.9109 -0.6298
 4968TIP3   OH236318   2.152   3.694   1.339 -0.2610 -0.3332  0.2320
 4968TIP3    H136319   2.172   3.772   1.391 -0.8105 -0.8768  1.2876
 4968TIP3    H236320   2.222   3.633   1.361  0.2227 -0.1090 -0.6700
 4969TIP3   OH236321   4.894   2.561   2.844  0.3942 -0.7793  0.5168
 4969TIP3    H136322   4.909   2.468   2.866  0.6979 -0.7833  0.2912
 4969TIP3    H236323   4.799   2.572   2.852  0.3818 -1.0489  0.7879
 4970TIP3   OH236324   0.593   3.076   2.198 -0.4515 -0.1368 -0.1105
 4970TIP3    H136325   0.642   3.019   2.257 -2.5163 -0.9921  0.8347
 4970TIP3    H236326   0.655   3.096   2.127  0.8498 -2.2172  0.3794
 4971TIP3   OH236327   1.833   0.022   0.641 -0.0377 -0.4882  0.1950
 4971TIP3    H136328   1.821  -0.054   0.698 -0.5355 -1.0588 -0.6596
 4971TIP3    H236329   1.766   0.012   0.572 -0.6893  1.1734  0.5490
 4972TIP3   OH236330   2.913   6.329  14.614  0.5847  0.6402  0.2261
 4972TIP3    H136331   2.992   6.375  14.584  1.0806  1.0345  2.0565
 4972TIP3    H236332   2.855   6.399  14.643  0.3195  0.2465  0.6405
 4973TIP3   OH236333   1.241   4.549   5.761 -0.0859  0.2983 -0.4606
 4973TIP3    H136334   1.198   4.558   5.846 -0.6795 -3.6728 -0.2439
 4973TIP3    H236335   1.173   4.517   5.702  0.7167  1.4893 -2.0957
 4974TIP3   OH236336   4.827   1.842   0.001  0.4571 -0.2744 -0.0485
 4974TIP3    H136337   4.873   1.827   0.084 -1.1641  2.1651  1.3286
 4974TIP3    H236338   4.850   1.931  -0.024  0.0646 -0.6166 -1.7006
 4975TIP3   OH236339   5.168   0.277  15.461  0.0950 -0.1510  0.0390
 4975TIP3    H136340   5.140   0.351  15.513 -1.7906  0.3509 -1.6535
 4975TIP3    H236341   5.137   0.200  15.509 -0.4754  0.2614  0.3297
 4976TIP3   OH236342   0.373   3.367   1.361  0.3488 -0.1655 -0.0730
 4976TIP3    H136343   0.336   3.303   1.421 -1.7782  0.6792 -0.4350
 4976TIP3    H236344   0.371   3.449   1.410 -1.1723  0.4822 -1.1510
 4977TIP3   OH236345   2.703   2.609  14.650  0.3529  0.9157  0.1176
 4977TIP3    H136346   2.676   2.701  14.648  1.0360  1.1710  2.1212
 4977TIP3    H236347   2.620   2.560  14.648 -0.0057  1.5422 -1.1943
 4978TIP3   OH236348   1.963   4.091   2.545  0.4235  0.4789 -0.9668
 4978TIP3    H136349   1.999   4.035   2.613  2.0284  1.7398 -0.7500
 4978TIP3    H236350   1.927   4.030   2.480 -0.5799 -0.7376  0.6951
 4979TIP3   OH236351   4.116   1.524  10.741  0.8480 -0.1508 -0.2234
 4979TIP3    H136352   4.184   1.592  10.736  0.3077  0.4621  0.7036
 4979TIP3    H236353   4.055   1.546  10.670  0.0816  0.9890  0.7768
 4980TIP3   OH236354   4.351   4.507  13.311  0.0269  0.1477  0.4512
 4980TIP3    H136355   4.277   4.480  13.365 -0.4664 -1.3378 -0.9316
 4980TIP3    H236356   4.334   4.467  13.225  0.9008  2.2720 -0.7544
 4981TIP3   OH236357   2.075   5.426  16.710 -0.1718 -0.1660 -0.4723
 4981TIP3    H136358   2.054   5.502  16.656  0.7012  0.8940  0.6483
 4981TIP3    H236359   2.091   5.462  16.797  0.8325 -1.5651 -0.0607
 4982TIP3   OH236360   4.420   6.047   3.626  0.2493  0.6580 -0.5550
 4982TIP3    H136361   4.482   6.001   3.570 -0.6752  1.4188 -2.2577
 4982TIP3    H236362   4.343   5.991   3.628  0.9027 -0.1954  1.3969
 4983TIP3   OH236363   1.357   2.250  14.237  0.2575 -0.7798 -0.1630
 4983TIP3    H136364   1.333   2.158  14.246  0.5661 -1.1832 -2.9788
 4983TIP3    H236365   1.321   2.276  14.152  1.1084  1.3830  0.1111
 4984TIP3   OH236366   2.554   3.611   4.016  0.4526 -0.1388  0.6558
 4984TIP3    H136367   2.480   3.570   4.059  0.0031 -0.2278 -0.1961
 4984TIP3    H236368   2.631   3.572   4.058  0.0279 -1.5892  0.1085
 4985TIP3   OH236369   2.407   1.619  15.076  0.6643  0.6063  0.2596
 4985TIP3    H136370   2.424   1.712  15.088  2.2833  0.5708 -1.5865
 4985TIP3    H236371   2.493   1.581  15.055 -0.0998 -1.1915  0.2726
 4986TIP3   OH236372   1.048   1.611  13.221 -0.0167  0.1284 -0.1139
 4986TIP3    H136373   1.142   1.598  13.207  0.5499  3.4070  0.3018
 4986TIP3    H236374   1.034   1.592  13.313  0.1024 -1.0094 -0.3252
 4987TIP3   OH236375   5.635   0.100   2.083  0.2303 -0.0900 -0.2937
 4987TIP3    H136376   5.723   0.086   2.047 -0.6068 -2.4133 -1.5736
 4987TIP3    H236377   5.579   0.107   2.005 -0.8348  0.3944  0.5159
 4988TIP3   OH236378   4.893   6.070  13.267 -0.1208 -0.2299  0.1687
 4988TIP3    H136379   4.882   6.110  13.353 -0.6318 -0.8267  0.3789
 4988TIP3    H236380   4.805   6.062  13.232 -0.2886 -3.3965  1.1483
 4989TIP3   OH236381   1.026   2.874  14.573 -0.2186 -0.3791  0.1343
 4989TIP3    H136382   1.060   2.853  14.659  2.2986  2.4718 -0.0878
 4989TIP3    H236383   1.019   2.970  14.572 -1.3397 -0.4374 -2.4155
 4990TIP3   OH236384   5.480   4.402  13.286  0.5235 -0.0719  0.2005
 4990TIP3    H136385   5.438   4.318  13.268  1.1518 -0.3626  0.1067
 4990TIP3    H236386   5.410   4.456  13.324  0.0222 -0.5026 -0.1180
 4991TIP3   OH236387   1.493   1.250   0.140  0.3071 -0.0295 -0.2969
 4991TIP3    H136388   1.496   1.189   0.067  1.9849 -2.1134  1.4568
 4991TIP3    H236389   1.568   1.308   0.127 -1.4565  1.9512 -2.1249
 4992TIP3   OH236390   3.240   5.406  16.887 -0.0642 -0.5736 -0.1012
 4992TIP3    H136391   3.189   5.479  16.854  1.4413  0.4055 -0.2944
 4992TIP3    H236392   3.197   5.381  16.969  0.0469  1.2092  0.5069
 4993TIP3   OH236393   4.988   5.873   0.660  0.2720  0.3893 -0.1095
 4993TIP3    H136394   5.020   5.809   0.724 -2.4619 -0.7358  0.1642
 4993TIP3    H236395   5.039   5.952   0.679  4.0784 -1.7372 -0.7579
 4994TIP3   OH236396   5.020   2.901   3.399  0.1254 -0.3304 -0.2779
 4994TIP3    H136397   5.082   2.874   3.331 -0.8859  1.1931 -1.8583
 4994TIP3    H236398   4.985   2.819   3.433  1.3429 -1.1495 -0.9297
 4995TIP3   OH236399   2.764   1.306  11.481  0.2173 -0.1742  0.4970
 4995TIP3    H136400   2.744   1.359  11.404 -0.2484  2.2186  2.2170
 4995TIP3    H236401   2.679   1.289  11.522  0.5021 -1.0361  0.7385
 4996TIP3   OH236402   1.360   5.029  11.622 -0.5892  0.3622  0.8057
 4996TIP3    H136403   1.395   4.996  11.705 -2.0390  0.7369  1.5788
 4996TIP3    H236404   1.272   5.060  11.644 -1.2079 -0.0898 -0.9984
 4997TIP3   OH236405   4.058   0.989   0.313 -0.1297 -0.3860 -0.6818
 4997TIP3    H136406   4.114   1.066   0.305  0.6794 -0.7994  0.9197
 4997TIP3    H236407   3.988   1.004   0.249 -1.1192  2.6624  1.0079
 4998TIP3   OH236408   1.193   3.882  12.167  0.0216 -0.0014 -0.3541
 4998TIP3    H136409   1.174   3.921  12.082  1.1336  1.1415 -0.1195
 4998TIP3    H236410   1.153   3.942  12.230  0.2480 -0.1793 -0.0379
 4999TIP3   OH236411   6.659   1.177   5.810  0.2169  0.5570  0.4181
 4999TIP3    H136412   6.567   1.189   5.831  0.2125  0.4101  0.4808
 4999TIP3    H236413   6.659   1.152   5.717  0.1787  0.3277  0.4803
 5000TIP3   OH236414   4.662   1.118  13.961  0.2717  0.2329 -0.5186
 5000TIP3    H136415   4.636   1.101  14.051  2.5584  1.2800  0.3868
 5000TIP3    H236416   4.637   1.039  13.913  0.8764 -1.1917  1.4538
 5001TIP3   OH236417   4.775   0.647  16.369  0.1668 -1.2486  0.1605
 5001TIP3    H136418   4.723   0.596  16.431 -1.5645 -0.8196 -0.8852
 5001TIP3    H236419   4.866   0.621  16.385 -0.1174 -0.2558  3.6827
 5002TIP3   OH236420   0.309   0.831   4.742  0.2967 -0.5860  0.3973
 5002TIP3    H136421   0.345   0.872   4.663  1.5185 -1.4753  0.4831
 5002TIP3    H236422   0.280   0.745   4.713  1.5058 -1.2367  1.0778
 5003TIP3   OH236423   1.135   4.151   4.196  0.7373  0.1007 -0.3108
 5003TIP3    H136424   1.135   4.062   4.231  1.1765 -0.3506 -1.4217
 5003TIP3    H236425   1.211   4.192   4.236  0.1649  0.1774  0.6986
 5004TIP3   OH236426   0.666   3.328   5.632  0.5976  0.4368 -0.1103
 5004TIP3    H136427   0.625   3.306   5.716 -2.8172  0.4101 -1.7041
 5004TIP3    H236428   0.702   3.245   5.601 -1.6152 -0.4182 -0.4808
 5005TIP3   OH236429   0.955   1.816  11.130  0.1095  0.0783  0.6143
 5005TIP3    H136430   0.980   1.900  11.167 -2.1196  0.7554  0.6514
 5005TIP3    H236431   0.933   1.835  11.038 -0.7596 -0.3842  0.7201
 5006TIP3   OH236432   2.710   3.582  14.774 -0.1008 -0.0090  0.0734
 5006TIP3    H136433   2.654   3.614  14.845 -0.0037  1.2939 -0.4190
 5006TIP3    H236434   2.798   3.612  14.798  0.0700 -0.3218 -0.1604
 5007TIP3   OH236435   1.437   2.671  12.542  0.5187  0.1025  0.2125
 5007TIP3    H136436   1.366   2.662  12.479  2.3565 -0.3097 -1.8392
 5007TIP3    H236437   1.464   2.762  12.535  1.6609 -0.2885 -0.6587
 5008TIP3   OH236438   0.047   1.895  14.259  0.1641  0.1135  0.1457
 5008TIP3    H136439  -0.019   1.838  14.220 -0.8618  0.7649  0.8848
 5008TIP3    H236440   0.126   1.880  14.207 -0.3602 -1.2265 -0.2887
 5009TIP3   OH236441   0.941   5.825  14.737  0.0321  0.1275 -0.0600
 5009TIP3    H136442   0.921   5.779  14.818  0.5574  1.1479  0.6640
 5009TIP3    H236443   0.986   5.904  14.765 -0.4919  0.8870 -1.3066
 5010TIP3   OH236444   2.117   6.258   2.939 -0.0151 -0.1983 -0.8150
 5010TIP3    H136445   2.175   6.301   3.001 -0.0328 -0.5890 -0.5308
 5010TIP3    H236446   2.048   6.322   2.922 -1.6226 -1.1754  1.8024
 5011TIP3   OH236447   3.497   4.951   4.740  0.5931 -0.0760  0.1504
 5011TIP3    H136448   3.417   4.989   4.704  0.7979  1.2514  1.0476
 5011TIP3    H236449   3.546   4.920   4.664 -0.5736 -0.4857 -0.4327
 5012TIP3   OH236450   0.498   3.978  14.873 -0.1556 -0.1643  0.4858
 5012TIP3    H136451   0.469   3.893  14.904  0.6859 -0.2847  0.9650
 5012TIP3    H236452   0.593   3.976  14.883 -0.0606  0.5634 -0.1748
 5013TIP3   OH236453   3.749   1.902  15.425  0.4703 -0.2606 -0.2980
 5013TIP3    H136454   3.691   1.892  15.349 -0.5358 -1.9963  0.6734
 5013TIP3    H236455   3.809   1.827  15.420  1.4366  0.4930 -0.2443
 5014TIP3   OH236456   3.740   2.064  11.956  0.0127  0.1697  0.3888
 5014TIP3    H136457   3.795   2.045  11.879 -1.2327  1.3867 -0.8367
 5014TIP3    H236458   3.694   2.144  11.932 -5.1915 -2.7803 -0.2191
 5015TIP3   OH236459   0.040   2.912   1.756 -0.1501 -0.9668 -1.2366
 5015TIP3    H136460   0.012   2.916   1.664 -3.2672 -3.9463 -0.5236
 5015TIP3    H236461  -0.005   2.985   1.798  0.7153 -0.0300 -1.9060
 5016TIP3   OH236462   2.899   4.764   5.660 -0.4743  0.0959 -0.2900
 5016TIP3    H136463   2.925   4.730   5.574  1.2934  1.9841 -0.5378
 5016TIP3    H236464   2.847   4.693   5.699  0.8095 -1.7825 -1.8900
 5017TIP3   OH236465   1.187   4.793  12.625  0.2667 -0.0295  0.1590
 5017TIP3    H136466   1.221   4.837  12.547 -0.1355  1.0627  0.5972
 5017TIP3    H236467   1.103   4.757  12.598  0.3783 -0.1277 -0.0626
 5018TIP3   OH236468   1.038   5.825   1.130  0.5422  0.2892 -0.7622
 5018TIP3    H136469   1.063   5.738   1.161  0.4164  0.4426 -0.2182
 5018TIP3    H236470   0.950   5.838   1.164  1.1443  1.2487  0.4514
 5019TIP3   OH236471   1.407   1.880   1.623  0.4850  0.8137 -0.2858
 5019TIP3    H136472   1.464   1.871   1.699 -0.5139 -0.8721  0.2996
 5019TIP3    H236473   1.453   1.834   1.552 -1.5522 -3.5241  1.0170
 5020TIP3   OH236474   1.392   3.692  12.575 -0.3630  0.2485 -0.0482
 5020TIP3    H136475   1.475   3.713  12.618 -0.7530  0.8357  0.4264
 5020TIP3    H236476   1.393   3.743  12.494 -0.2436  0.2237 -0.0620
 5021TIP3   OH236477   2.663   0.588   0.842  0.0058 -0.4679  0.3934
 5021TIP3    H136478   2.626   0.536   0.770  0.9200 -0.4613 -0.0807
 5021TIP3    H236479   2.586   0.615   0.893 -0.5947 -1.0364 -0.1945
 5022TIP3   OH236480   6.331   6.618   3.782  0.5382 -0.7550 -0.2909
 5022TIP3    H136481   6.413   6.570   3.793  1.0400  0.2042  0.1565
 5022TIP3    H236482   6.332   6.685   3.850  0.7501  1.1375 -2.1029
 5023TIP3   OH236483   2.116   5.729   4.442 -0.8313 -0.6051  0.3026
 5023TIP3    H136484   2.083   5.753   4.355  0.2283 -0.3273 -0.0273
 5023TIP3    H236485   2.132   5.813   4.485  0.3433 -0.7146  0.1087
 5024TIP3   OH236486   2.952   1.723   0.630 -0.5996 -0.3610  0.0680
 5024TIP3    H136487   2.883   1.742   0.694  0.3458 -0.6163  1.1795
 5024TIP3    H236488   2.980   1.634   0.650  0.4795 -0.0389  0.0205
 5025TIP3   OH236489   5.747   2.167  15.173  0.2098 -0.0324 -0.0264
 5025TIP3    H136490   5.789   2.239  15.124 -0.5514 -0.5436 -1.4750
 5025TIP3    H236491   5.681   2.133  15.112 -0.3329 -1.1005  1.1500
 5026TIP3   OH236492   5.805   2.392   4.994 -0.0701  0.5298  0.0676
 5026TIP3    H136493   5.748   2.322   4.963  2.7071 -0.6531 -2.7083
 5026TIP3    H236494   5.761   2.473   4.967 -2.0735 -0.2187  1.0470
 5027TIP3   OH236495   3.377   2.977   5.466  0.7391  0.1662 -0.3286
 5027TIP3    H136496   3.371   2.969   5.561  1.4659 -1.1198 -0.3832
 5027TIP3    H236497   3.293   3.013   5.439  0.0520 -0.6748  0.6713
 5028TIP3   OH236498   1.276   4.297   3.212  0.0801  0.4529  0.6303
 5028TIP3    H136499   1.305   4.386   3.191 -1.7275  1.3262  1.7147
 5028TIP3    H236500   1.320   4.242   3.147 -0.1741  2.3173 -1.1862
 5029TIP3   OH236501   2.734   2.964  12.194  0.3892 -0.0569  0.0431
 5029TIP3    H136502   2.726   3.049  12.238  2.1494  0.0921  0.0924
 5029TIP3    H236503   2.798   2.979  12.124 -0.3239 -0.9986 -0.8229
 5030TIP3   OH236504   5.774   0.851   2.751  0.4023  0.3377  0.4900
 5030TIP3    H136505   5.757   0.792   2.824  0.2652 -0.1873  0.0405
 5030TIP3    H236506   5.687   0.878   2.721  0.4546  0.4863  0.4727
 5031TIP3   OH236507   1.084   1.087  14.735 -0.3337 -0.0357 -0.3498
 5031TIP3    H136508   1.092   0.991  14.743 -1.7994 -0.1474 -0.1361
 5031TIP3    H236509   1.012   1.099  14.673 -0.4806  0.9437  0.0212
 5032TIP3   OH236510   6.674   0.818   4.494 -0.0087 -0.6158 -0.1987
 5032TIP3    H136511   6.602   0.835   4.555  0.3885 -0.1387  0.1378
 5032TIP3    H236512   6.734   0.891   4.507 -0.5019  0.1526 -2.0423
 5033TIP3   OH236513   5.669   0.868  14.702  0.3726 -0.5255 -0.3051
 5033TIP3    H136514   5.709   0.933  14.760  0.9922 -0.1482 -1.1413
 5033TIP3    H236515   5.665   0.788  14.754  1.6964 -0.4147 -0.0285
 5034TIP3   OH236516   1.049   6.491   5.502  0.1034 -0.5074  0.1727
 5034TIP3    H136517   1.061   6.548   5.578  1.0381 -0.7569  0.2197
 5034TIP3    H236518   1.137   6.459   5.482 -0.1374 -0.4446 -1.0211
 5035TIP3   OH236519   2.325   2.193   1.935  0.3788  0.3308  0.4726
 5035TIP3    H136520   2.257   2.238   1.985  0.7035  0.7289  0.5546
 5035TIP3    H236521   2.324   2.235   1.849  0.4086  0.2264  0.4209
 5036TIP3   OH236522   4.432   0.381   4.567 -0.0325  0.1242 -0.2714
 5036TIP3    H136523   4.416   0.406   4.658  1.3062  1.6635 -0.4550
 5036TIP3    H236524   4.348   0.399   4.523 -0.4665  0.0414  0.5072
 5037TIP3   OH236525   3.784   0.006  13.321  0.3437 -0.1679  0.0404
 5037TIP3    H136526   3.736  -0.077  13.325  0.8175 -0.6322 -2.8663
 5037TIP3    H236527   3.748   0.057  13.393 -0.4197 -2.6481  1.4906
 5038TIP3   OH236528   2.325   6.690   5.692  0.3153  0.4274 -0.6696
 5038TIP3    H136529   2.391   6.622   5.687  0.7615  0.8827 -0.9977
 5038TIP3    H236530   2.359   6.753   5.755  1.3002  1.8348 -2.5587
 5039TIP3   OH236531   5.320   5.236  15.748  0.0064  0.3369 -0.5791
 5039TIP3    H136532   5.298   5.241  15.841  1.2695 -0.0345 -0.2566
 5039TIP3    H236533   5.315   5.143  15.727 -2.9376  0.6487 -1.5694
 5040TIP3   OH236534   6.308   0.222  16.625  0.1434 -0.1550 -0.4124
 5040TIP3    H136535   6.239   0.259  16.681  0.1011 -0.2561 -0.3988
 5040TIP3    H236536   6.289   0.256  16.538 -1.1440 -1.8480 -0.8166
 5041TIP3   OH236537   3.282   3.385  13.237  0.2657 -0.3669  0.0095
 5041TIP3    H136538   3.306   3.298  13.269 -0.4060 -0.5705 -0.0381
 5041TIP3    H236539   3.220   3.419  13.301  1.7940  0.7739  0.9215
 5042TIP3   OH236540   4.087   1.461   2.598  0.1313 -0.1366 -0.2151
 5042TIP3    H136541   4.069   1.541   2.549 -1.1041 -0.4027 -0.1949
 5042TIP3    H236542   4.174   1.476   2.635 -1.1347  2.2909  1.9660
 5043TIP3   OH236543   6.202   0.160  10.956 -0.2314  0.3411  0.2566
 5043TIP3    H136544   6.121   0.202  10.986  0.8611  1.3837  1.8680
 5043TIP3    H236545   6.175   0.102  10.885 -2.6384 -0.6271  1.9020
 5044TIP3   OH236546   4.637   5.174   6.224 -0.3276 -0.1806  0.0080
 5044TIP3    H136547   4.575   5.153   6.294  1.1825 -1.1966  1.0625
 5044TIP3    H236548   4.723   5.154   6.261  0.4425 -1.3670 -2.3733
 5045TIP3   OH236549   2.646   1.604  12.689 -0.0381  0.8226 -0.0666
 5045TIP3    H136550   2.703   1.595  12.613  2.2438  1.7655  1.4750
 5045TIP3    H236551   2.693   1.561  12.760 -1.7669  0.6407  1.0006
 5046TIP3   OH236552   0.363   3.571  16.022 -0.6021 -0.1217  0.3249
 5046TIP3    H136553   0.350   3.531  16.108 -1.0104  0.3631  0.4944
 5046TIP3    H236554   0.417   3.648  16.040 -1.2367  0.3462  0.2420
 5047TIP3   OH236555   6.189   5.056   4.439  0.5785  0.7276  0.4981
 5047TIP3    H136556   6.194   4.977   4.386  1.1169  1.8641 -1.1632
 5047TIP3    H236557   6.161   5.025   4.526  3.4002 -1.6424  0.6315
 5048TIP3   OH236558   0.850   5.932   4.458 -0.3673  0.0467  0.4440
 5048TIP3    H136559   0.814   5.889   4.535 -0.0708 -1.8249 -0.4525
 5048TIP3    H236560   0.784   5.920   4.390  0.7365 -1.0063 -0.4453
 5049TIP3   OH236561   5.142   6.601   3.040  0.1896 -0.1622  0.0716
 5049TIP3    H136562   5.101   6.643   3.116  0.3679  0.4439 -0.1657
 5049TIP3    H236563   5.235   6.597   3.062  0.2941  0.3666 -0.2821
 5050TIP3   OH236564   0.758   5.827   2.312  0.3658 -0.1970  0.2372
 5050TIP3    H136565   0.700   5.789   2.378 -0.0402  0.8706  0.4941
 5050TIP3    H236566   0.846   5.812   2.346  0.2594 -1.9542 -0.2221
 5051TIP3   OH236567   5.518   0.205  11.843  0.1713 -0.1242  0.4717
 5051TIP3    H136568   5.571   0.183  11.766 -0.7351 -1.4182  0.1951
 5051TIP3    H236569   5.433   0.230  11.806  0.6690  2.2529  0.8872
 5052TIP3   OH236570   5.139   4.231   3.286 -0.1478 -0.3514 -0.2217
 5052TIP3    H136571   5.066   4.292   3.280  0.2189  0.0628 -0.4982
 5052TIP3    H236572   5.098   4.144   3.284 -0.8118 -0.1124  2.0983
 5053TIP3   OH236573   4.282   6.220   5.684 -0.4161  0.0087 -0.3709
 5053TIP3    H136574   4.190   6.201   5.666 -0.1280 -0.2619 -1.6050
 5053TIP3    H236575   4.328   6.139   5.661  0.4684  1.1228 -2.6409
 5054TIP3   OH236576   3.906   6.084   2.198 -0.0987  0.4438  0.0720
 5054TIP3    H136577   3.908   6.142   2.122 -0.0456  0.6998  0.2683
 5054TIP3    H236578   3.814   6.057   2.204 -0.0765  0.3035 -0.1683
 5055TIP3   OH236579   0.899   0.723  14.208 -0.1021 -0.3200  0.1573
 5055TIP3    H136580   0.855   0.658  14.262  1.0757 -0.7778  0.5955
 5055TIP3    H236581   0.907   0.682  14.122  2.6158 -1.7010  0.9989
 5056TIP3   OH236582   1.269   4.764  16.519 -0.0650  0.3735 -0.5266
 5056TIP3    H136583   1.203   4.695  16.511 -1.0112  1.4201 -2.2736
 5056TIP3    H236584   1.342   4.734  16.465  0.6074 -0.4512  0.8213
 5057TIP3   OH236585   0.897   2.180  15.391 -0.2996  0.2606  0.1896
 5057TIP3    H136586   0.850   2.227  15.460 -0.0634  1.3440 -0.3812
 5057TIP3    H236587   0.829   2.135  15.341 -0.5246 -0.0242  0.7575
 5058TIP3   OH236588   6.484   2.834   4.596 -0.0163 -0.1539 -0.2452
 5058TIP3    H136589   6.500   2.904   4.659  0.4881  0.1594 -0.7205
 5058TIP3    H236590   6.457   2.879   4.517 -1.1208 -0.5695 -0.1151
 5059TIP3   OH236591   2.004   0.620  14.648 -0.3521  0.3594  0.2567
 5059TIP3    H136592   1.966   0.656  14.568  0.2439  0.1302 -0.1371
 5059TIP3    H236593   1.935   0.628  14.714 -1.3273 -0.6809 -0.6167
 5060TIP3   OH236594   6.659   3.925   4.956  0.6822  0.2199 -0.0427
 5060TIP3    H136595   6.744   3.928   4.913  0.5605 -1.6021 -0.4176
 5060TIP3    H236596   6.608   3.861   4.907 -0.0845 -0.5376  1.6750
 5061TIP3   OH236597   5.091   5.158  11.034 -0.3153  0.3800 -0.1680
 5061TIP3    H136598   5.030   5.179  10.963 -0.3244  3.1176  0.6073
 5061TIP3    H236599   5.168   5.211  11.017 -0.3644  1.1779  1.9398
 5062TIP3   OH236600   5.544   4.535   4.707 -0.1486 -0.4525 -0.2981
 5062TIP3    H136601   5.498   4.571   4.783 -0.6366 -3.2510  0.7806
 5062TIP3    H236602   5.633   4.519   4.738 -0.3269 -1.5188 -0.3087
 5063TIP3   OH236603   2.359   3.756   5.265  0.2515 -0.0627  0.2007
 5063TIP3    H136604   2.305   3.679   5.280  1.3139 -1.4469 -2.7633
 5063TIP3    H236605   2.350   3.775   5.172  1.3182  2.4171  0.5383
 5064TIP3   OH236606   2.095   0.324  12.883 -0.5758 -0.1570 -0.1632
 5064TIP3    H136607   2.066   0.353  12.970  0.6656 -1.1945  0.6262
 5064TIP3    H236608   2.041   0.372  12.822 -0.3369  1.8491  1.1599
 5065TIP3   OH236609   4.088   4.040  11.656 -0.0246 -0.1471 -0.2435
 5065TIP3    H136610   4.001   4.001  11.653 -0.2321  0.4144 -2.3814
 5065TIP3    H236611   4.138   3.984  11.715 -1.0726 -2.0270 -1.1289
 5066TIP3   OH236612   0.412   0.403   4.547 -0.7621  0.0396 -0.2088
 5066TIP3    H136613   0.420   0.420   4.641 -1.3967 -1.4147  0.1280
 5066TIP3    H236614   0.497   0.367   4.521 -0.4867  0.7256 -0.2491
 5067TIP3   OH236615   3.465   3.826  16.959 -0.0185  0.3513 -0.0783
 5067TIP3    H136616   3.411   3.894  16.999  0.6245  0.4983  0.5761
 5067TIP3    H236617   3.543   3.873  16.928 -0.2071  0.1282 -0.8882
 5068TIP3   OH236618   4.397   6.624   3.452 -0.1717  0.0877 -0.3495
 5068TIP3    H136619   4.464   6.560   3.475 -0.4211 -0.0855 -0.1088
 5068TIP3    H236620   4.325   6.607   3.513  0.2807  1.4548  0.5934
 5069TIP3   OH236621   0.967   2.679   0.869 -0.0505  0.2648  0.1388
 5069TIP3    H136622   0.988   2.630   0.948  0.2951  0.8967  0.4475
 5069TIP3    H236623   1.051   2.711   0.838 -0.3285  1.1331  0.2651
 5070TIP3   OH236624   5.475   0.837   2.160 -0.2713 -0.3482  0.4879
 5070TIP3    H136625   5.416   0.773   2.201 -0.3028 -1.8534 -1.7687
 5070TIP3    H236626   5.549   0.844   2.220 -1.7324 -0.1253  2.2875
 5071TIP3   OH236627   0.487   3.117   3.776 -0.9553 -0.2861 -0.4124
 5071TIP3    H136628   0.393   3.103   3.787 -1.0010  0.0288 -0.3986
 5071TIP3    H236629   0.495   3.156   3.688 -0.9566  0.8986  0.1076
 5072TIP3   OH236630   5.650   3.653  12.102 -0.1890 -0.0043 -0.3817
 5072TIP3    H136631   5.608   3.588  12.159  0.2233  0.1058  0.0504
 5072TIP3    H236632   5.586   3.668  12.032  0.1084 -1.6410 -1.0544
 5073TIP3   OH236633   5.337   4.630   4.977 -0.5301  0.0861  0.3584
 5073TIP3    H136634   5.259   4.683   4.962 -0.2852  0.5883  0.8452
 5073TIP3    H236635   5.307   4.540   4.969 -0.6948  0.3134 -1.7488
 5074TIP3   OH236636   3.757   6.759   1.022  0.1775  0.1012  0.1408
 5074TIP3    H136637   3.726   6.843   0.988  0.8275  0.4445  0.4029
 5074TIP3    H236638   3.719   6.753   1.110  0.7094  0.4408  0.3935
 5075TIP3   OH236639   4.642   6.729   3.908 -0.0098 -0.3126 -0.2682
 5075TIP3    H136640   4.590   6.709   3.986  0.9784 -0.5028  0.3430
 5075TIP3    H236641   4.620   6.658   3.847 -0.4691 -0.3924 -0.0177
 5076TIP3   OH236642   3.874   5.398  16.131  0.1645 -0.5588  0.2356
 5076TIP3    H136643   3.839   5.366  16.213  2.5062  0.1766  1.5825
 5076TIP3    H236644   3.909   5.484  16.152  0.1195 -0.0362 -1.7171
 5077TIP3   OH236645   5.258   2.430   0.289 -0.0129  0.3493  0.0321
 5077TIP3    H136646   5.245   2.394   0.376  0.2140  0.1569 -0.0138
 5077TIP3    H236647   5.170   2.454   0.259 -0.1586 -0.1555  0.0650
 5078TIP3   OH236648   0.619   4.224  12.359  0.3813 -0.0930  0.1977
 5078TIP3    H136649   0.705   4.247  12.323  0.8267  1.4636  2.1562
 5078TIP3    H236650   0.558   4.251  12.291  1.4692 -2.2501 -1.7010
 5079TIP3   OH236651   4.202   4.555  12.836  0.2527 -0.6054  0.4147
 5079TIP3    H136652   4.269   4.497  12.871  0.3798 -0.3104  0.6664
 5079TIP3    H236653   4.220   4.560  12.742 -0.9213 -2.5028  0.0649
 5080TIP3   OH236654   4.752   0.771  17.006  0.5141  0.1129 -0.1782
 5080TIP3    H136655   4.738   0.814  16.922  1.3669  1.4036  0.3255
 5080TIP3    H236656   4.791   0.686  16.984 -2.8397 -1.2301 -1.2762
 5081TIP3   OH236657   1.939   0.259   0.532  0.4873 -0.9841 -0.1791
 5081TIP3    H136658   1.930   0.248   0.438  1.3376  0.4454 -0.4356
 5081TIP3    H236659   1.895   0.182   0.569  1.6266 -2.4359 -1.7546
 5082TIP3   OH236660   1.726   4.493   2.637  0.4692 -0.1808 -0.4277
 5082TIP3    H136661   1.717   4.421   2.698 -0.9971  0.7515  0.4956
 5082TIP3    H236662   1.799   4.545   2.670  0.8313 -0.6569 -0.4859
 5083TIP3   OH236663   2.594   3.650   1.605 -0.3787 -0.3324 -0.8258
 5083TIP3    H136664   2.535   3.644   1.680  0.8990 -0.2057  0.1941
 5083TIP3    H236665   2.679   3.619   1.637  1.0019  2.7561 -1.3074
 5084TIP3   OH236666   4.033   0.096  13.277  0.5524 -0.5319 -0.0431
 5084TIP3    H136667   4.068   0.034  13.342 -0.6577 -0.0284  1.1287
 5084TIP3    H236668   3.938   0.086  13.284  0.4065 -0.0839 -1.3710
 5085TIP3   OH236669   1.923   1.748  14.162  0.9329  0.4802 -0.0779
 5085TIP3    H136670   1.883   1.665  14.135  0.3574  0.4196  0.9389
 5085TIP3    H236671   2.015   1.740  14.136  0.8254 -0.3934 -0.1917
 5086TIP3   OH236672   3.976   1.169  11.796  0.2553 -0.2082  0.5377
 5086TIP3    H136673   4.031   1.198  11.723  0.0508  2.5637  1.4247
 5086TIP3    H236674   4.038   1.148  11.866  0.3407 -0.2294  0.4542
 5087TIP3   OH236675   0.288   6.224  16.279 -0.3894 -0.2145 -0.1096
 5087TIP3    H136676   0.270   6.169  16.203  0.2818 -0.4664 -0.0949
 5087TIP3    H236677   0.207   6.224  16.329 -1.3580  1.2672 -1.6319
 5088TIP3   OH236678   0.752   2.456   1.074  0.2725 -0.1580  0.4863
 5088TIP3    H136679   0.764   2.550   1.090  2.2326  0.2913 -3.0744
 5088TIP3    H236680   0.839   2.418   1.089 -0.2463 -1.2131  0.8212
 5089TIP3   OH236681   0.732   3.868   5.343  0.0633 -0.2399  0.0243
 5089TIP3    H136682   0.650   3.843   5.385 -1.2736  2.4422 -0.8191
 5089TIP3    H236683   0.784   3.907   5.413  1.7207 -4.2363  1.1056
 5090TIP3   OH236684   0.915   3.413   1.217 -0.5768  0.1645 -0.2885
 5090TIP3    H136685   0.880   3.413   1.128  0.8202 -2.6933 -0.8833
 5090TIP3    H236686   0.838   3.398   1.273 -1.0464 -0.8910 -1.2045
 5091TIP3   OH236687   4.007   1.365  11.165 -0.2556  0.2074 -0.0390
 5091TIP3    H136688   4.032   1.448  11.125 -1.5215  1.4481  1.6403
 5091TIP3    H236689   3.957   1.320  11.097 -0.3355  1.2367 -0.6712
 5092TIP3   OH236690   6.444   4.815  11.742  0.6159  0.2529  0.1360
 5092TIP3    H136691   6.368   4.860  11.778  1.1411  0.3492  1.1274
 5092TIP3    H236692   6.511   4.882  11.733  0.2920  0.3655 -1.6349
 5093TIP3   OH236693   1.372   2.423  13.670  0.6516  0.4747 -0.2537
 5093TIP3    H136694   1.414   2.339  13.689  3.0905  1.6836 -0.1732
 5093TIP3    H236695   1.282   2.399  13.645  1.2929 -2.1389 -0.2484
 5094TIP3   OH236696   2.310   5.535  15.879 -0.1647  0.0472  0.2871
 5094TIP3    H136697   2.268   5.455  15.910 -1.3831  0.2881 -0.7117
 5094TIP3    H236698   2.285   5.602  15.942  0.8443 -0.3447  1.1157
 5095TIP3   OH236699   3.803   0.009  15.535  0.4140  0.2761 -0.2518
 5095TIP3    H136700   3.811   0.034  15.443  0.7152  0.7299 -0.1032
 5095TIP3    H236701   3.727  -0.050  15.537  2.5085 -2.5859 -1.3823
 5096TIP3   OH236702   5.660   3.464   0.752  0.2065 -0.4677 -0.2651
 5096TIP3    H136703   5.729   3.531   0.751  0.0814 -0.3409 -0.3581
 5096TIP3    H236704   5.684   3.406   0.825  0.4517 -0.4657 -0.3443
 5097TIP3   OH236705   5.656   2.663   1.376 -0.7310  0.0082 -0.2346
 5097TIP3    H136706   5.704   2.616   1.444 -1.9194 -0.7973  0.0554
 5097TIP3    H236707   5.664   2.755   1.401 -1.8784 -0.3320  1.4939
 5098TIP3   OH236708   5.982   5.362  13.399  0.2682  0.2675 -0.3541
 5098TIP3    H136709   5.890   5.360  13.371  0.9781 -1.1680 -2.6815
 5098TIP3    H236710   5.978   5.340  13.492 -1.7369  0.1198 -0.4341
 5099TIP3   OH236711   1.860   5.796  15.970 -0.1998  0.0416  0.2042
 5099TIP3    H136712   1.940   5.757  16.005  0.3225  1.3235  0.4402
 5099TIP3    H236713   1.795   5.726  15.977  1.2168 -1.4801 -1.2825
 5100TIP3   OH236714   1.310   0.258   3.017 -0.4720  0.8876  0.4781
 5100TIP3    H136715   1.361   0.189   2.975  1.3630  1.6859  1.3520
 5100TIP3    H236716   1.270   0.306   2.944  1.6425  1.4681 -0.3395
 5101TIP3   OH236717   1.150   1.626  15.440 -0.0157 -0.1164  0.2297
 5101TIP3    H136718   1.208   1.650  15.367 -1.5650 -0.3429 -1.0924
 5101TIP3    H236719   1.159   1.530  15.446 -0.3638 -0.1684 -0.0720
 5102TIP3   OH236720   6.034   0.195   0.721 -0.1229 -0.0385 -0.3757
 5102TIP3    H136721   5.944   0.228   0.721 -1.1264 -2.5621  2.5223
 5102TIP3    H236722   6.088   0.272   0.739 -1.9449  1.0102  0.7437
 5103TIP3   OH236723   3.437   2.299  16.392  0.3436 -0.3124  0.1277
 5103TIP3    H136724   3.520   2.346  16.394  0.4697 -0.4862 -0.7688
 5103TIP3    H236725   3.456   2.215  16.432  0.7747 -0.6199 -0.7142
 5104TIP3   OH236726   0.396   5.406  14.312  0.3485 -0.1753  0.1156
 5104TIP3    H136727   0.326   5.373  14.256 -0.1864  0.1899  0.5514
 5104TIP3    H236728   0.463   5.437  14.252  0.1705 -0.6077 -0.3075
 5105TIP3   OH236729   6.604   0.480  16.821  0.1614 -0.1442 -0.0033
 5105TIP3    H136730   6.659   0.558  16.812 -0.3819 -0.2769 -6.8183
 5105TIP3    H236731   6.515   0.511  16.801 -0.7278 -1.7885  1.2496
 5106TIP3   OH236732   0.329   4.737   0.059 -0.4152  0.7182  0.0430
 5106TIP3    H136733   0.303   4.732  -0.032 -0.1395  0.5973 -0.0297
 5106TIP3    H236734   0.406   4.680   0.066  1.3180  2.9207 -0.2890
 5107TIP3   OH236735   4.091   6.523  15.938 -0.3150 -0.4942 -0.2464
 5107TIP3    H136736   4.135   6.544  15.856  0.7529 -2.3105 -0.1460
 5107TIP3    H236737   4.108   6.599  15.995  0.6809 -0.1453 -0.9998
 5108TIP3   OH236738   1.598   4.132  16.809  0.2397  0.3867 -0.6599
 5108TIP3    H136739   1.634   4.108  16.894 -0.6171 -0.4847 -0.5375
 5108TIP3    H236740   1.672   4.127  16.749  0.6816  0.2559 -0.1082
 5109TIP3   OH236741   3.496   6.671  12.550  0.6144  0.2341 -0.3473
 5109TIP3    H136742   3.581   6.653  12.511 -0.2393 -2.1843 -1.1590
 5109TIP3    H236743   3.510   6.750  12.603  3.6874 -0.9464  0.6815
 5110TIP3   OH236744   2.580   2.274   4.450 -0.2040  0.0365 -0.4707
 5110TIP3    H136745   2.548   2.187   4.428  0.0132  0.4296 -2.4653
 5110TIP3    H236746   2.674   2.263   4.466  0.1138  0.1396 -2.2102
 5111TIP3   OH236747   6.395   3.826   3.722  0.0940  0.9103 -0.0736
 5111TIP3    H136748   6.451   3.794   3.794 -0.9293 -1.0173 -0.1027
 5111TIP3    H236749   6.412   3.765   3.650 -2.9896 -0.5152  0.3381
 5112TIP3   OH236750   1.033   3.127  15.457 -0.8943  0.1836  0.2211
 5112TIP3    H136751   1.109   3.107  15.403 -0.0979  1.1493  0.9751
 5112TIP3    H236752   0.958   3.098  15.405  0.0368 -1.7178 -0.0898
 5113TIP3   OH236753   4.630   6.186   2.696  0.9423  0.1247  0.0668
 5113TIP3    H136754   4.559   6.192   2.633  1.2740 -2.2242 -0.5490
 5113TIP3    H236755   4.624   6.098   2.732  1.1849  1.1838  2.8362
 5114TIP3   OH236756   2.402   5.441   2.170 -1.0247  0.8433 -0.4296
 5114TIP3    H136757   2.379   5.444   2.263 -0.8505  1.7718 -0.4089
 5114TIP3    H236758   2.325   5.475   2.125 -0.5405  1.8692 -0.5096
 5115TIP3   OH236759   5.706   1.795  15.670 -0.2813  0.1391  0.0533
 5115TIP3    H136760   5.681   1.846  15.747 -1.4203 -1.5585  0.8397
 5115TIP3    H236761   5.625   1.782  15.622  0.2180  0.1732 -0.8054
 5116TIP3   OH236762   5.605   3.874   0.923  0.5332  0.3365 -0.4717
 5116TIP3    H136763   5.565   3.836   0.844  0.0094  0.6030 -0.3408
 5116TIP3    H236764   5.645   3.956   0.893 -1.8332  1.7136 -0.0140
 5117TIP3   OH236765   0.398   2.082  13.053  0.4614 -0.1389 -0.2927
 5117TIP3    H136766   0.342   2.033  12.992  0.8292 -0.4174 -0.4087
 5117TIP3    H236767   0.444   2.145  12.998 -1.8403  2.0589  0.1855
 5118TIP3   OH236768   4.980   1.693  11.090 -0.2011 -0.2156 -0.0335
 5118TIP3    H136769   5.067   1.675  11.054  1.5778  1.4605  3.2229
 5118TIP3    H236770   4.983   1.785  11.115 -2.9517 -0.1301  0.1250
 5119TIP3   OH236771   4.561   6.422   0.625  0.5034  0.3000 -0.0327
 5119TIP3    H136772   4.535   6.353   0.564 -0.4720  0.2355  0.4617
 5119TIP3    H236773   4.552   6.383   0.712  1.2904  0.6004  0.1932
 5120TIP3   OH236774   6.201   4.506   1.758  0.0366  0.4897 -0.0466
 5120TIP3    H136775   6.171   4.430   1.808  4.0989 -0.5034  1.0852
 5120TIP3    H236776   6.171   4.582   1.809 -1.7441 -0.3909  0.2447
 5121TIP3   OH236777   4.355   1.364   0.992  0.6160  0.4218 -0.7306
 5121TIP3    H136778   4.420   1.342   1.059  0.4570 -2.0537 -1.3414
 5121TIP3    H236779   4.278   1.394   1.041  1.4835  1.3753  0.0660
 5122TIP3   OH236780   3.263   3.459   1.457 -0.0198 -0.0194  0.0574
 5122TIP3    H136781   3.264   3.414   1.373 -0.2233  0.7115 -0.3410
 5122TIP3    H236782   3.282   3.550   1.436  2.3734 -0.2445  1.0770
 5123TIP3   OH236783   1.113   0.072   1.686 -0.2082  0.2835  0.2333
 5123TIP3    H136784   1.053   0.015   1.639  0.5288 -1.0728  0.9247
 5123TIP3    H236785   1.056   0.131   1.735 -0.9826 -0.9214  0.7974
 5124TIP3   OH236786   3.046   0.219  10.495  1.2817 -0.1500 -0.1062
 5124TIP3    H136787   3.082   0.296  10.451  1.0249  0.6783  1.1182
 5124TIP3    H236788   3.099   0.146  10.462  0.8217  0.3812 -2.1081
 5125TIP3   OH236789   2.926   4.687   4.077  0.1971 -0.7461 -0.0338
 5125TIP3    H136790   2.947   4.719   4.165 -0.8342  0.7297 -0.3063
 5125TIP3    H236791   2.844   4.640   4.088  0.1674 -0.7279 -0.1810
 5126TIP3   OH236792   4.696   1.413   1.398 -0.4191 -0.2215 -0.4267
 5126TIP3    H136793   4.621   1.388   1.453  0.1911  1.1611  1.1087
 5126TIP3    H236794   4.757   1.340   1.406 -1.4760 -1.2203 -1.4357
 5127TIP3   OH236795   6.378   0.846   4.536  0.3142 -0.2655  0.1435
 5127TIP3    H136796   6.361   0.785   4.606  0.1389 -0.7100 -0.2850
 5127TIP3    H236797   6.328   0.813   4.461 -0.9468  1.1933  0.3162
 5128TIP3   OH236798   2.174   1.588   0.019  0.4007  0.3360 -0.2118
 5128TIP3    H136799   2.098   1.579  -0.039  0.0188  0.5892  0.2451
 5128TIP3    H236800   2.137   1.591   0.107  0.6270  4.1029 -0.1449
 5129TIP3   OH236801   5.899   1.863   3.935  0.2791 -0.2599  0.2942
 5129TIP3    H136802   5.847   1.794   3.895 -1.4229  1.4936 -0.6301
 5129TIP3    H236803   5.953   1.819   4.000  0.3057 -2.6304 -1.3031
 5130TIP3   OH236804   2.772   4.807   0.278  0.2396  0.0130  0.1070
 5130TIP3    H136805   2.714   4.859   0.223  0.6486 -0.5866 -0.9025
 5130TIP3    H236806   2.831   4.763   0.216  0.5479 -0.8481  1.0039
 5131TIP3   OH236807   4.195   1.424  14.335 -0.5761 -0.6880 -0.0675
 5131TIP3    H136808   4.198   1.519  14.319  1.4246 -0.3790  1.7972
 5131TIP3    H236809   4.198   1.385  14.248  4.1146  0.9142 -0.7902
 5132TIP3   OH236810   2.120   4.414  13.157 -0.0378  0.7060  0.0265
 5132TIP3    H136811   2.203   4.452  13.127  2.1570 -2.5216  1.6992
 5132TIP3    H236812   2.096   4.351  13.089  0.1727 -0.0753  0.6653
 5133TIP3   OH236813   4.050   0.274  10.535  0.4347 -0.3843  0.2262
 5133TIP3    H136814   4.019   0.184  10.542  0.5118 -0.4236  0.0536
 5133TIP3    H236815   3.996   0.322  10.598  1.7359 -0.8913  1.7646
 5134TIP3   OH236816   1.558   5.781  12.096  0.3818 -0.1942 -0.1195
 5134TIP3    H136817   1.493   5.765  12.028 -0.8167  1.5857  0.5721
 5134TIP3    H236818   1.509   5.775  12.178  1.5695 -1.1692  0.5339
 5135TIP3   OH236819   5.425   3.133   5.966 -0.1572 -0.2463  0.1189
 5135TIP3    H136820   5.391   3.077   5.896 -2.1932  0.9296  0.1178
 5135TIP3    H236821   5.407   3.083   6.046  0.0684 -0.5846 -0.0420
 5136TIP3   OH236822   5.218   2.970  11.449 -0.6898 -0.0713 -0.3212
 5136TIP3    H136823   5.200   2.892  11.398  0.8258 -0.1912 -0.6926
 5136TIP3    H236824   5.249   2.937  11.534  2.9305  0.0679 -1.5257
 5137TIP3   OH236825   5.774   1.080  14.849  0.1764  0.1036  0.8219
 5137TIP3    H136826   5.868   1.087  14.833 -0.3140  0.4071 -2.0633
 5137TIP3    H236827   5.750   1.165  14.886  1.0754 -0.0832  1.8558
 5138TIP3   OH236828   5.337   0.923  12.893 -0.0308  0.1797  0.3518
 5138TIP3    H136829   5.388   1.002  12.910  1.0726 -0.3527 -0.4202
 5138TIP3    H236830   5.259   0.932  12.948  0.5768  1.3171  1.0387
 5139TIP3   OH236831   0.475   3.094   4.075 -0.0407  0.2028 -0.9109
 5139TIP3    H136832   0.463   3.182   4.111  1.3823  0.6274 -1.4565
 5139TIP3    H236833   0.458   3.105   3.981 -2.9605 -0.7415 -0.5433
 5140TIP3   OH236834   0.328   4.948   4.271 -1.0909 -0.3959  0.1817
 5140TIP3    H136835   0.374   4.889   4.211 -0.9606 -0.3513  0.2373
 5140TIP3    H236836   0.236   4.941   4.246 -1.1603 -1.1330  0.6313
 5141TIP3   OH236837   0.472   4.356  12.952 -0.3684  0.3107  0.0925
 5141TIP3    H136838   0.406   4.387  12.890  1.3432  2.1328 -0.8707
 5141TIP3    H236839   0.553   4.398  12.923  0.8077 -0.2573  2.4985
 5142TIP3   OH236840   5.645   1.970  12.176  0.1724 -0.6027 -0.1993
 5142TIP3    H136841   5.697   2.050  12.172  0.3173 -0.7788 -2.0052
 5142TIP3    H236842   5.562   1.993  12.134 -1.2044 -0.3738  2.4905
 5143TIP3   OH236843   4.882   5.820  13.676  0.4873  0.1601 -0.1482
 5143TIP3    H136844   4.931   5.824  13.594 -0.4649  2.8617 -0.6248
 5143TIP3    H236845   4.879   5.910  13.706  1.2376 -0.8577  3.1483
 5144TIP3   OH236846   0.228   5.241   5.927  0.0904 -0.0706 -0.1955
 5144TIP3    H136847   0.184   5.263   6.009  1.1603 -0.1290  0.4062
 5144TIP3    H236848   0.321   5.247   5.948  0.3722 -0.8013 -1.2098
 5145TIP3   OH236849   3.274   5.068  11.563 -0.1546 -0.5323 -0.3299
 5145TIP3    H136850   3.259   5.135  11.629 -2.5778 -0.5727 -0.7850
 5145TIP3    H236851   3.356   5.094  11.520  0.1519  0.8305  1.0302
 5146TIP3   OH236852   3.754   3.486   1.019 -0.0475  0.0621 -0.5912
 5146TIP3    H136853   3.789   3.465   0.933  1.6835  2.2688 -0.4576
 5146TIP3    H236854   3.747   3.401   1.063 -2.2402 -1.2602 -3.3274
 5147TIP3   OH236855   2.801   2.749   2.812 -0.4126 -0.3423  0.1001
 5147TIP3    H136856   2.869   2.817   2.804 -0.9688  0.2265  0.1771
 5147TIP3    H236857   2.825   2.701   2.891  0.2883 -0.5818 -0.2497
 5148TIP3   OH236858   6.332   3.290  16.873  0.0473  0.1767  0.2560
 5148TIP3    H136859   6.320   3.373  16.919 -2.1477  0.2044 -0.2711
 5148TIP3    H236860   6.299   3.308  16.784 -0.2005 -1.1699  0.0690
 5149TIP3   OH236861   4.753   4.211  12.513 -0.1917 -0.4796 -0.1654
 5149TIP3    H136862   4.817   4.243  12.577 -1.9086  1.4097  0.7013
 5149TIP3    H236863   4.669   4.214  12.561 -0.9171 -2.9226 -1.2527
 5150TIP3   OH236864   1.329   3.998  15.003 -0.1434  0.0822  0.0830
 5150TIP3    H136865   1.315   3.913  15.044 -1.9935  1.1331  1.7101
 5150TIP3    H236866   1.424   4.011  15.005  0.2913 -2.5135 -1.4577
 5151TIP3   OH236867   0.665   0.293   1.703  0.3925  0.3884  0.4402
 5151TIP3    H136868   0.648   0.381   1.738  0.6784  1.1467 -1.2660
 5151TIP3    H236869   0.599   0.238   1.744 -1.2764  1.8448 -0.2099
 5152TIP3   OH236870   2.395   6.257  12.867  0.1851 -0.2555  0.2722
 5152TIP3    H136871   2.408   6.308  12.947  0.3868 -0.0189  0.0885
 5152TIP3    H236872   2.398   6.166  12.897  0.2021 -0.1682  0.5433
 5153TIP3   OH236873   5.033   5.916  16.860  0.1827 -0.6249  0.0278
 5153TIP3    H136874   5.067   5.877  16.779 -0.2579 -0.6743 -0.1360
 5153TIP3    H236875   5.067   6.005  16.860  0.8294 -0.8667  0.1803
 5154TIP3   OH236876   2.003   1.480  15.426  0.7660  0.0464 -0.5798
 5154TIP3    H136877   2.073   1.485  15.491  1.2478 -0.0739 -1.0960
 5154TIP3    H236878   2.045   1.449  15.346  0.3714  1.2214 -1.2536
 5155TIP3   OH236879   6.021   3.275  11.903 -0.2283 -0.0566  0.1611
 5155TIP3    H136880   6.015   3.257  11.809 -0.3415  2.3753 -0.3266
 5155TIP3    H236881   5.942   3.326  11.923 -0.3638 -0.8057  1.6650
 5156TIP3   OH236882   3.411   5.439  13.483 -0.4120 -0.3595 -0.0846
 5156TIP3    H136883   3.493   5.440  13.533  0.1589  2.3754 -0.9865
 5156TIP3    H236884   3.344   5.468  13.546 -0.1076  0.6168 -0.1931
 5157TIP3   OH236885   3.898   0.831   1.148 -0.0018 -0.1166 -0.4025
 5157TIP3    H136886   3.910   0.801   1.058 -0.5945  2.4010 -1.3652
 5157TIP3    H236887   3.957   0.906   1.156 -1.2973  0.7938  0.7175
 5158TIP3   OH236888   1.337   0.735  15.037  0.7246 -0.1389  0.0778
 5158TIP3    H136889   1.251   0.696  15.054  0.8566 -0.2501  0.4918
 5158TIP3    H236890   1.385   0.722  15.119  1.0433  0.1669 -0.0660
 5159TIP3   OH236891   1.123   5.058  13.152  0.3740  0.0738  0.2629
 5159TIP3    H136892   1.166   5.020  13.229 -1.6462  0.4814  1.6417
 5159TIP3    H236893   1.104   5.149  13.177 -1.1304 -0.0474 -0.3450
 5160TIP3   OH236894   4.646   5.885   0.702 -0.3851 -0.3925 -0.2730
 5160TIP3    H136895   4.646   5.974   0.735 -0.6502 -0.2109 -0.7575
 5160TIP3    H236896   4.640   5.894   0.607  0.8766 -0.8970 -0.4156
 5161TIP3   OH236897   1.378   3.809  16.019 -0.0860  0.1368  0.5368
 5161TIP3    H136898   1.415   3.725  15.990 -0.6636 -0.2014  0.7700
 5161TIP3    H236899   1.329   3.788  16.098 -2.2050  0.2433 -0.6887
 5162TIP3   OH236900   2.442   2.544   3.545 -0.9452 -0.2730 -0.2145
 5162TIP3    H136901   2.453   2.617   3.484 -2.0048  0.3960  0.3789
 5162TIP3    H236902   2.423   2.586   3.629 -0.0898 -1.2000  0.4538
 5163TIP3   OH236903   5.761   2.219  16.794 -0.1628  0.2439  0.7119
 5163TIP3    H136904   5.828   2.275  16.833  0.0190  1.2155 -0.9735
 5163TIP3    H236905   5.678   2.253  16.829  0.1116 -0.1766  1.8123
 5164TIP3   OH236906   6.206   1.394   0.593  0.0854  0.5518  0.6307
 5164TIP3    H136907   6.127   1.425   0.638  0.0549 -0.0469  0.9938
 5164TIP3    H236908   6.206   1.299   0.607 -0.4073  0.2300 -1.4167
 5165TIP3   OH236909   2.343   2.742   3.002  0.5989  0.0422 -0.3321
 5165TIP3    H136910   2.249   2.759   2.994  0.0544 -2.0907  1.1693
 5165TIP3    H236911   2.355   2.657   2.961  2.0607  0.7185 -1.3496
 5166TIP3   OH236912   4.296   2.073   4.525 -0.3188 -0.2488 -0.6403
 5166TIP3    H136913   4.327   2.001   4.581 -1.2345 -0.2777 -0.1681
 5166TIP3    H236914   4.293   2.148   4.584 -1.8411 -0.4078 -0.5129
 5167TIP3   OH236915   5.321   3.478   0.274 -0.1175 -0.0879  0.2106
 5167TIP3    H136916   5.363   3.434   0.348 -0.9324 -0.3983  0.4941
 5167TIP3    H236917   5.342   3.424   0.198 -0.5279 -0.5823  0.4470
 5168TIP3   OH236918   5.556   3.193   3.539 -0.5455 -0.4701 -0.7021
 5168TIP3    H136919   5.600   3.131   3.597 -2.4533 -2.0500 -0.8814
 5168TIP3    H236920   5.551   3.149   3.455  0.7371  1.1493 -1.6537
 5169TIP3   OH236921   3.766   3.776  14.446  0.6978  0.0275 -0.2316
 5169TIP3    H136922   3.705   3.754  14.376 -0.0805  1.1920  0.0689
 5169TIP3    H236923   3.832   3.707  14.443 -1.0130 -1.6535 -0.0888
 5170TIP3   OH236924   0.523   1.898   5.351  0.0167  0.0448 -0.2206
 5170TIP3    H136925   0.504   1.987   5.379 -0.0992  0.0998 -0.4690
 5170TIP3    H236926   0.439   1.853   5.355  0.2221 -0.2636  0.6619
 5171TIP3   OH236927   5.649   0.346  11.254  0.2185 -0.0880 -0.0891
 5171TIP3    H136928   5.569   0.293  11.250 -0.6259  1.2554 -1.4571
 5171TIP3    H236929   5.691   0.333  11.169  2.3202 -2.0437  1.1825
 5172TIP3   OH236930   1.853   6.292  13.039  0.0460 -0.4602  0.6105
 5172TIP3    H136931   1.926   6.353  13.031  0.3407 -0.6155  1.9839
 5172TIP3    H236932   1.795   6.332  13.104 -1.8349  0.3652 -1.4890
 5173TIP3   OH236933   3.268   5.843   4.476  0.0363 -0.2664  0.8874
 5173TIP3    H136934   3.176   5.818   4.467 -0.2171  1.1785 -0.8631
 5173TIP3    H236935   3.269   5.908   4.546 -0.8462  2.1843 -1.2480
 5174TIP3   OH236936   6.436   0.761  16.566 -0.6331 -0.1369  0.4458
 5174TIP3    H136937   6.383   0.796  16.494  0.3997 -1.9756 -1.2530
 5174TIP3    H236938   6.523   0.800  16.553 -0.8436  0.7640  1.6464
 5175TIP3   OH236939   4.575   2.895   4.812 -0.0874 -0.8879 -0.6007
 5175TIP3    H136940   4.566   2.802   4.832  0.0285 -1.3632 -2.6791
 5175TIP3    H236941   4.491   2.933   4.838 -0.0293 -1.5022  0.5255
 5176TIP3   OH236942   0.861   0.974  16.415  0.3947  0.4142  0.3836
 5176TIP3    H136943   0.873   1.069  16.427  0.1632  0.2392  2.1457
 5176TIP3    H236944   0.880   0.959  16.322 -1.2155  2.4431 -0.3030
 5177TIP3   OH236945   1.841   1.957  13.739  0.7929 -0.6362 -0.0836
 5177TIP3    H136946   1.918   1.986  13.689  1.3316 -0.3735  0.8695
 5177TIP3    H236947   1.767   1.997  13.694  1.4141  1.0823  0.3462
 5178TIP3   OH236948   1.004   2.247  14.232 -0.1092 -0.0559  0.0211
 5178TIP3    H136949   0.912   2.272  14.244 -0.8460 -2.5534 -0.1381
 5178TIP3    H236950   1.053   2.307  14.288 -1.8496  1.2538  0.1666
 5179TIP3   OH236951   3.004   0.311  16.263  0.7651 -0.1480 -0.5744
 5179TIP3    H136952   3.030   0.361  16.185  1.9311 -0.0251 -0.1200
 5179TIP3    H236953   3.086   0.279  16.299  0.2259 -0.2524  0.5748
 5180TIP3   OH236954   3.041   3.471  14.779  0.4628 -0.3038  0.2899
 5180TIP3    H136955   3.104   3.538  14.752  1.3757 -1.4953 -0.5778
 5180TIP3    H236956   3.065   3.451  14.869 -0.1492  0.8985  0.7366
 5181TIP3   OH236957   0.773   4.866  15.840 -0.1466  0.1906 -0.0792
 5181TIP3    H136958   0.796   4.775  15.860  3.5718  1.4460  1.8181
 5181TIP3    H236959   0.828   4.888  15.764 -0.9450  0.9064 -0.4606
 5182TIP3   OH236960   0.656   0.289   1.389 -0.2235 -0.1719 -0.0605
 5182TIP3    H136961   0.570   0.317   1.420 -0.3875  1.2231 -1.7058
 5182TIP3    H236962   0.717   0.356   1.423  0.2625 -1.2922  1.3163
 5183TIP3   OH236963   6.487   4.703   3.291  0.3364 -0.0814  0.8614
 5183TIP3    H136964   6.452   4.645   3.359 -1.5019 -0.2976 -0.2213
 5183TIP3    H236965   6.538   4.645   3.234  1.2622 -0.0322  1.6394
 5184TIP3   OH236966   6.744   5.009   4.609 -0.6041 -0.9042  0.2177
 5184TIP3    H136967   6.703   4.954   4.675  2.0150 -2.8690  0.2910
 5184TIP3    H236968   6.704   4.982   4.526 -1.4983 -0.7951  0.6182
 5185TIP3   OH236969   2.098   4.023  14.289  0.3323  0.2203 -0.2242
 5185TIP3    H136970   2.190   4.046  14.302  0.1438  2.1880 -2.1401
 5185TIP3    H236971   2.099   3.928  14.273  1.6807 -0.3066  2.6427
 5186TIP3   OH236972   5.609   4.123   3.924  0.6358  0.0615  0.5008
 5186TIP3    H136973   5.579   4.186   3.990 -0.2720 -1.7523  1.8753
 5186TIP3    H236974   5.559   4.144   3.846 -1.9671 -0.9002  1.8465
 5187TIP3   OH236975   0.363   1.043  16.004 -0.3345  0.5753  0.1827
 5187TIP3    H136976   0.345   0.950  16.013 -0.6504  0.3883 -2.0260
 5187TIP3    H236977   0.455   1.047  15.978 -0.1091  0.9372  1.0092
 5188TIP3   OH236978   4.045   2.392  14.090 -0.2651 -0.0230 -0.3244
 5188TIP3    H136979   4.082   2.478  14.069  1.7860 -0.3997  1.4664
 5188TIP3    H236980   4.011   2.403  14.179 -0.5269 -0.8848 -0.3227
 5189TIP3   OH236981   3.322   0.326   3.615  0.0173 -0.1397  0.0952
 5189TIP3    H136982   3.308   0.279   3.698  0.4285  1.6292  1.2050
 5189TIP3    H236983   3.408   0.297   3.585  0.0666 -0.4521  0.5363
 5190TIP3   OH236984   0.333   0.355  16.066 -0.8389  0.6083 -0.3280
 5190TIP3    H136985   0.315   0.291  16.135 -1.0847  0.4623 -0.5241
 5190TIP3    H236986   0.428   0.368  16.070 -0.3343 -1.9457 -2.1396
 5191TIP3   OH236987   2.695   2.679  12.610 -0.0737 -0.4443 -0.4430
 5191TIP3    H136988   2.732   2.677  12.522 -1.2263  0.1768 -0.9434
 5191TIP3    H236989   2.673   2.771  12.625  0.5039 -0.4766  0.6563
 5192TIP3   OH236990   2.843   2.226   4.429 -0.4070 -0.2707  0.7009
 5192TIP3    H136991   2.894   2.182   4.497  0.6531 -0.0236  0.0729
 5192TIP3    H236992   2.872   2.186   4.347  0.2004  1.2254  0.1696
 5193TIP3   OH236993   1.301   3.103   6.259 -0.0113  0.3583  0.2645
 5193TIP3    H136994   1.384   3.055   6.260 -0.3235 -0.2149 -0.7917
 5193TIP3    H236995   1.235   3.037   6.282 -0.3024  0.5565 -0.0040
 5194TIP3   OH236996   6.710   0.518  13.963 -0.0049 -0.6064  0.0142
 5194TIP3    H136997   6.750   0.510  14.050  0.1823 -2.6857 -0.2310
 5194TIP3    H236998   6.622   0.484  13.975  0.4423 -2.1346 -0.8744
 5195TIP3   OH236999   1.275   4.273   6.016 -0.4254  0.7838  0.0128
 5195TIP3    H137000   1.234   4.359   6.003  2.5429  2.2970  0.3583
 5195TIP3    H237001   1.366   4.285   5.988  0.0890 -2.2164  0.2501
 5196TIP3   OH237002   4.221   4.202  12.783  0.2098 -0.0192 -0.2199
 5196TIP3    H137003   4.132   4.237  12.781  0.7029  1.2106 -0.6732
 5196TIP3    H237004   4.233   4.173  12.874 -0.3714  0.5255  0.0335
 5197TIP3   OH237005   0.231   6.545  12.690 -0.6544  0.6284  0.0259
 5197TIP3    H137006   0.247   6.505  12.604  0.9630  2.8211 -0.7255
 5197TIP3    H237007   0.164   6.490  12.729 -1.0246 -0.7451 -2.4227
 5198TIP3   OH237008   2.273   1.417  15.237  0.0083  0.2468 -0.2021
 5198TIP3    H137009   2.298   1.492  15.184 -0.6968  0.0198 -0.8793
 5198TIP3    H237010   2.290   1.341  15.180  0.7392 -0.1047  0.4809
 5199TIP3   OH237011   4.876   0.709  14.550 -0.1447  0.1041 -0.4802
 5199TIP3    H137012   4.956   0.663  14.524  0.1755 -0.8415  1.9913
 5199TIP3    H237013   4.906   0.780  14.606 -0.9478  0.5967 -0.6654
 5200TIP3   OH237014   6.045   6.318  11.209  0.4365 -0.5758 -0.1179
 5200TIP3    H137015   6.127   6.337  11.163  0.3834 -1.0606 -0.4150
 5200TIP3    H237016   6.071   6.262  11.282  0.2935 -1.2138 -0.5534
 5201TIP3   OH237017   1.090   5.308  11.868  0.2379  0.0039 -0.3068
 5201TIP3    H137018   1.028   5.347  11.931 -0.1258 -0.0133 -0.6548
 5201TIP3    H237019   1.140   5.383  11.835 -2.9770  0.7538 -3.7917
 5202TIP3   OH237020   5.474   2.898   0.311  0.4200 -0.8564 -0.9502
 5202TIP3    H137021   5.434   2.811   0.315 -1.6696  0.0429 -1.3250
 5202TIP3    H237022   5.448   2.940   0.393 -0.0852  0.0100 -1.5406
 5203TIP3   OH237023   6.437   1.645  13.746  0.3868 -0.2823  0.2041
 5203TIP3    H137024   6.510   1.636  13.806  0.7676  0.6143 -0.1046
 5203TIP3    H237025   6.367   1.684  13.799  0.7747  0.6582  0.0462
 5204TIP3   OH237026   5.404   4.840   1.027  0.4438  0.2028  0.0793
 5204TIP3    H137027   5.427   4.786   1.102  0.6202 -0.1537 -0.2313
 5204TIP3    H237028   5.312   4.818   1.009 -0.0131  1.2675  1.0140
 5205TIP3   OH237029   2.234   5.331  12.876 -0.1683  0.5559  0.3001
 5205TIP3    H137030   2.263   5.310  12.964  0.0524 -0.2989  0.0327
 5205TIP3    H237031   2.139   5.341  12.883 -0.3259 -0.8264  0.4034
 5206TIP3   OH237032   5.720   1.265  10.781  0.4197 -0.3839  0.0479
 5206TIP3    H137033   5.678   1.254  10.866  0.4048  0.0165  0.0930
 5206TIP3    H237034   5.718   1.178  10.742 -1.6631 -0.1201 -0.5136
 5207TIP3   OH237035   2.779   5.616   2.712 -0.1024 -0.0542 -0.0155
 5207TIP3    H137036   2.852   5.569   2.753  0.0419  0.5323  0.4205
 5207TIP3    H237037   2.816   5.649   2.630  0.0160 -0.0806  0.0264
 5208TIP3   OH237038   4.201   5.592  15.749 -0.2302 -0.1311  0.4009
 5208TIP3    H137039   4.223   5.612  15.840  1.5754  0.3169 -0.1206
 5208TIP3    H237040   4.261   5.645  15.697 -1.9493  0.4222 -1.0821
 5209TIP3   OH237041   0.097   4.299  15.163 -0.8569 -0.2908  0.2640
 5209TIP3    H137042   0.176   4.264  15.123 -0.3689  0.0306  0.9426
 5209TIP3    H237043   0.115   4.392  15.175 -0.9096 -0.4293  1.4490
 5210TIP3   OH237044   0.850   0.835  12.242  0.2894  0.0294 -0.3366
 5210TIP3    H137045   0.815   0.888  12.170  0.2459  1.5191  0.7549
 5210TIP3    H237046   0.776   0.785  12.275 -0.1120  0.7627 -0.1171
 5211TIP3   OH237047   2.251   0.355   2.516 -0.2720  0.0969  0.0539
 5211TIP3    H137048   2.302   0.433   2.540 -0.2553 -0.1677  0.8622
 5211TIP3    H237049   2.251   0.300   2.594 -0.9473 -0.3683 -0.2649
 5212TIP3   OH237050   4.674   6.495  16.033 -0.3996  0.4128  0.0059
 5212TIP3    H137051   4.631   6.509  16.117 -1.6988  1.3075 -0.7960
 5212TIP3    H237052   4.602   6.480  15.972  0.5301 -0.0856 -0.9821
 5213TIP3   OH237053   1.080   1.969   2.650 -0.1561  0.1835  0.2863
 5213TIP3    H137054   1.099   1.888   2.604  1.0966 -0.0189  1.1441
 5213TIP3    H237055   1.010   1.945   2.711 -0.1852 -0.1130  0.1365
 5214TIP3   OH237056   6.713   1.222  16.105  0.4499  0.0870  0.1772
 5214TIP3    H137057   6.774   1.269  16.162  0.9195  1.5722 -1.4981
 5214TIP3    H237058   6.626   1.255  16.131  0.5990  0.1596  0.5880
 5215TIP3   OH237059   0.197   1.115   0.732 -0.6859  0.5091 -0.6396
 5215TIP3    H137060   0.227   1.203   0.707  2.3633 -0.4513 -0.5203
 5215TIP3    H237061   0.277   1.070   0.761 -2.6255 -1.4135  1.9323
 5216TIP3   OH237062   2.877   2.967   0.966  0.0866  0.1303  0.2588
 5216TIP3    H137063   2.902   2.940   1.055  0.8381 -1.2104 -0.3475
 5216TIP3    H237064   2.786   2.938   0.957 -0.5153  1.6985  1.1498
 5217TIP3   OH237065   1.566   4.873   0.105  0.4949  0.5588 -0.4136
 5217TIP3    H137066   1.470   4.870   0.101  0.5372  1.0330 -2.2520
 5217TIP3    H237067   1.585   4.914   0.189 -0.9368  1.6280 -0.5893
 5218TIP3   OH237068   4.775   4.249   0.338 -0.5607 -0.3619 -0.8800
 5218TIP3    H137069   4.717   4.324   0.351  1.2085  0.9364 -0.2979
 5218TIP3    H237070   4.726   4.175   0.373 -1.1323  0.9997  1.3056
 5219TIP3   OH237071   6.157   3.817   5.384 -0.1559 -0.1737 -0.2276
 5219TIP3    H137072   6.232   3.807   5.325  2.0144 -0.7641  2.5108
 5219TIP3    H237073   6.089   3.760   5.347  1.6928 -1.7503 -1.2810
 5220TIP3   OH237074   5.815   0.492   5.239 -0.3011  0.0430  0.2411
 5220TIP3    H137075   5.767   0.437   5.179 -1.4329  0.6431  0.5879
 5220TIP3    H237076   5.753   0.560   5.266  1.1485  1.7092 -0.4619
 5221TIP3   OH237077   1.895   2.705   4.660 -0.1431  0.4161 -0.3326
 5221TIP3    H137078   1.838   2.641   4.618  1.7646 -2.0113  0.6382
 5221TIP3    H237079   1.842   2.743   4.730 -1.6507  0.7108 -1.6191
 5222TIP3   OH237080   1.262   6.187  13.929  0.0548 -0.0105  0.2290
 5222TIP3    H137081   1.327   6.253  13.906 -0.7102  0.4670 -0.5853
 5222TIP3    H237082   1.231   6.213  14.016 -0.7346  1.0917 -0.3792
 5223TIP3   OH237083   4.423   2.127   3.273  0.0313  0.1508 -0.0016
 5223TIP3    H137084   4.461   2.175   3.199 -1.1561  0.8281 -0.1771
 5223TIP3    H237085   4.422   2.190   3.345 -0.1006 -0.0777  0.1974
 5224TIP3   OH237086   5.154   6.502   2.121  0.5923  0.2264  0.0543
 5224TIP3    H137087   5.086   6.445   2.084  0.7010  0.8952 -1.2097
 5224TIP3    H237088   5.112   6.546   2.194 -0.0378 -0.1211 -0.0967
 5225TIP3   OH237089   3.468   6.043  11.511 -0.0312 -0.6481  0.1600
 5225TIP3    H137090   3.494   6.071  11.599 -0.9543  0.5814  0.0383
 5225TIP3    H237091   3.499   5.952  11.506  2.3491  0.0840  0.8025
 5226TIP3   OH237092   1.808   2.294  14.354  0.1673  0.2324  0.0943
 5226TIP3    H137093   1.834   2.347  14.429  0.2785  1.7318 -0.9870
 5226TIP3    H237094   1.865   2.217  14.357  0.8143  0.7479  0.9867
 5227TIP3   OH237095   5.280   1.089   5.224  0.0746 -0.6213 -0.0107
 5227TIP3    H137096   5.204   1.099   5.167 -0.3177 -1.4527  0.3526
 5227TIP3    H237097   5.247   1.114   5.311 -0.2321 -2.5597  0.4445
 5228TIP3   OH237098   5.998   0.458   6.430  0.4302 -0.3904  0.5788
 5228TIP3    H137099   6.091   0.452   6.452  1.6647 -0.1960 -3.9425
 5228TIP3    H237100   5.994   0.430   6.339 -3.9048  0.1326  0.5197
 5229TIP3   OH237101   3.270   6.128   2.603  0.1011 -0.0666 -0.1980
 5229TIP3    H137102   3.189   6.176   2.620 -1.4126 -2.2991 -0.8852
 5229TIP3    H237103   3.292   6.087   2.686  1.8342  2.3903  0.6025
 5230TIP3   OH237104   3.682   5.423   2.739  0.2275 -0.4296 -0.1961
 5230TIP3    H137105   3.766   5.394   2.774  0.7111  1.8782  0.6398
 5230TIP3    H237106   3.705   5.475   2.662 -0.5103 -0.8532 -0.7056
 5231TIP3   OH237107   5.632   1.778   0.071  0.6818 -0.4997 -0.2136
 5231TIP3    H137108   5.648   1.872   0.062  0.5987 -0.5286 -0.6404
 5231TIP3    H237109   5.567   1.758   0.005  1.0061 -0.9410 -0.4017
 5232TIP3   OH237110   5.627   6.015   0.153 -0.5832  0.2749  0.5368
 5232TIP3    H137111   5.717   6.041   0.175 -0.7755  0.2895  1.3140
 5232TIP3    H237112   5.585   6.097   0.125 -0.8579  0.6123  1.8851
 5233TIP3   OH237113   1.287   2.461  14.404 -0.0621  0.3032  0.0521
 5233TIP3    H137114   1.198   2.436  14.427 -0.4880 -0.6542 -2.5664
 5233TIP3    H237115   1.320   2.388  14.352  1.6219  1.4726 -0.5549
 5234TIP3   OH237116   5.323   1.080  16.079 -0.1896  0.4606  0.0524
 5234TIP3    H137117   5.349   1.172  16.083 -0.1494  0.4193  0.9547
 5234TIP3    H237118   5.400   1.032  16.111 -0.7493  0.2284  1.0995
 5235TIP3   OH237119   4.629   5.300  12.560 -0.2430  0.4462  0.2577
 5235TIP3    H137120   4.583   5.216  12.549  0.4991  0.0710  0.0104
 5235TIP3    H237121   4.714   5.276  12.595  0.0554  1.0875 -0.0277
 5236TIP3   OH237122   1.902   2.916   5.860 -0.2280 -0.2582 -0.1706
 5236TIP3    H137123   1.846   2.921   5.782 -1.7494  0.8884  0.9637
 5236TIP3    H237124   1.842   2.933   5.933  1.5555  0.6316  1.1031
 5237TIP3   OH237125   0.964   1.423   5.390 -0.2586  0.2276 -0.4923
 5237TIP3    H137126   0.887   1.419   5.447 -0.7342 -0.0765 -1.1451
 5237TIP3    H237127   0.935   1.384   5.308  0.3858  0.7621 -0.9818
 5238TIP3   OH237128   1.141   6.353   4.495  0.3362  0.4643  0.2620
 5238TIP3    H137129   1.097   6.272   4.519 -0.0806  0.6925  0.2659
 5238TIP3    H237130   1.234   6.333   4.506  0.3300 -0.5518 -1.4068
 5239TIP3   OH237131   2.351   5.532   4.421 -0.1269  0.1453 -0.7407
 5239TIP3    H137132   2.421   5.558   4.481 -0.0355 -0.0685 -0.7522
 5239TIP3    H237133   2.283   5.598   4.433 -0.1030  0.1111 -0.4098
 5240TIP3   OH237134   1.091   0.012   0.832 -0.6951 -0.2607 -0.0922
 5240TIP3    H137135   1.164  -0.025   0.881  0.1435  0.5030 -0.7723
 5240TIP3    H237136   1.060   0.084   0.887  0.6560  1.0099 -0.9593
 5241TIP3   OH237137   1.361   5.160   4.437 -0.0641  0.0814  0.0460
 5241TIP3    H137138   1.375   5.086   4.378  0.0052 -0.4368  0.7052
 5241TIP3    H237139   1.267   5.175   4.435 -0.3622 -1.4048  1.5436
 5242TIP3   OH237140   3.621   3.127  13.491  0.5136  0.2952  0.3159
 5242TIP3    H137141   3.600   3.034  13.479  1.4232 -0.0282  1.1603
 5242TIP3    H237142   3.573   3.152  13.571 -1.6866  1.2001 -1.2294
 5243TIP3   OH237143   3.574   0.248   4.242  0.6014  0.4334 -0.3448
 5243TIP3    H137144   3.510   0.207   4.299  1.2775  0.0018  0.1063
 5243TIP3    H237145   3.529   0.324   4.206 -0.4494 -0.3423 -0.6960
 5244TIP3   OH237146   2.628   6.454  14.277  0.1206  0.2972 -0.3287
 5244TIP3    H137147   2.566   6.393  14.318  0.0853  0.6137  0.0917
 5244TIP3    H237148   2.595   6.464  14.188 -1.0052  1.2324  0.1843
 5245TIP3   OH237149   6.183   1.623  10.839  0.2632 -0.0172  0.1691
 5245TIP3    H137150   6.092   1.644  10.858  0.3870  0.8408 -0.1948
 5245TIP3    H237151   6.230   1.705  10.850  1.2901 -0.8302  2.1964
 5246TIP3   OH237152   3.497   0.220   2.500 -0.5135 -0.1216  0.6949
 5246TIP3    H137153   3.459   0.135   2.522 -0.9703  0.4240  2.0658
 5246TIP3    H237154   3.437   0.284   2.539 -0.0209  0.8254 -0.0838
 5247TIP3   OH237155   6.510   2.114  14.546  0.4044 -0.4354 -0.0195
 5247TIP3    H137156   6.453   2.040  14.526 -1.9695  1.3922 -0.3086
 5247TIP3    H237157   6.543   2.143  14.461  1.8501 -1.5153  0.1515
 5248TIP3   OH237158   2.197   2.419  13.444 -0.0944 -0.3450 -0.5079
 5248TIP3    H137159   2.216   2.349  13.507 -0.2730  0.9623  1.0517
 5248TIP3    H237160   2.270   2.418  13.383 -0.7339 -2.7327 -1.2660
 5249TIP3   OH237161   5.433   5.784  14.721 -0.4242 -0.3010  0.0511
 5249TIP3    H137162   5.344   5.754  14.737  0.0551 -1.1272  1.2835
 5249TIP3    H237163   5.448   5.853  14.786 -0.2784  0.0819 -0.3821
 5250TIP3   OH237164   1.293   2.533   1.148  0.0026 -0.2519  0.6931
 5250TIP3    H137165   1.370   2.585   1.125 -1.0667  1.5030  0.9518
 5250TIP3    H237166   1.308   2.506   1.238  0.2310  0.2672  0.8138
 5251TIP3   OH237167   2.626   0.653  15.747  0.1475  0.2692  0.1716
 5251TIP3    H137168   2.661   0.742  15.756 -1.6954  1.2448 -1.9399
 5251TIP3    H237169   2.536   0.660  15.779  0.6051 -1.3382  1.9089
 5252TIP3   OH237170   1.195   4.264  16.750 -0.0384 -0.4849 -0.1722
 5252TIP3    H137171   1.256   4.303  16.813 -0.3170  0.0877 -0.2576
 5252TIP3    H237172   1.135   4.335  16.727  1.6484  0.0465 -3.1187
 5253TIP3   OH237173   3.954   3.020   1.989  0.1026 -0.4341  0.1400
 5253TIP3    H137174   3.976   2.982   1.904 -1.9460 -0.3679 -0.4420
 5253TIP3    H237175   3.859   3.012   1.995 -0.0044  1.5380  1.4886
 5254TIP3   OH237176   4.765   2.410  15.600 -0.0785  0.6426 -0.2488
 5254TIP3    H137177   4.837   2.464  15.570 -0.4832  1.1711 -0.2892
 5254TIP3    H237178   4.738   2.451  15.683 -0.5751  0.6810 -0.4264
 5255TIP3   OH237179   4.061   5.335   4.999 -0.3537  0.3110  0.1399
 5255TIP3    H137180   4.095   5.423   5.010 -0.1519  0.3257 -0.5633
 5255TIP3    H237181   3.966   5.345   4.999 -0.3280  0.6189 -0.5804
 5256TIP3   OH237182   3.400   3.636  11.413  0.2308  0.0175  1.1086
 5256TIP3    H137183   3.357   3.722  11.414  0.0112 -0.0782  0.4798
 5256TIP3    H237184   3.354   3.585  11.480  0.4118  0.4136  1.5332
 5257TIP3   OH237185   4.004   2.887   5.103  0.3685 -0.3421 -0.4352
 5257TIP3    H137186   4.056   2.807   5.112  0.5325 -0.1789  0.0687
 5257TIP3    H237187   4.011   2.930   5.188  2.2020  1.3935 -1.4217
 5258TIP3   OH237188   2.334   1.784  16.806  0.3351  0.0357 -0.5965
 5258TIP3    H137189   2.277   1.842  16.755  0.1064 -0.4484 -0.8860
 5258TIP3    H237190   2.423   1.806  16.778  0.3252  1.0911  0.1585
 5259TIP3   OH237191   3.090   2.673   1.550 -0.0175 -0.2322  0.0404
 5259TIP3    H137192   2.999   2.657   1.576 -0.6826  1.2253 -1.3177
 5259TIP3    H237193   3.106   2.611   1.479 -0.2949  0.2573 -0.4472
 5260TIP3   OH237194   1.550   3.387   4.212 -0.0193  0.0641  0.9074
 5260TIP3    H137195   1.516   3.297   4.215  1.3400 -0.4563  1.0505
 5260TIP3    H237196   1.635   3.382   4.255 -0.0421  1.4806  1.1371
 5261TIP3   OH237197   0.373   2.465   3.475  0.2132  0.1275  0.2029
 5261TIP3    H137198   0.462   2.447   3.503  0.4381  2.0686  0.8401
 5261TIP3    H237199   0.374   2.451   3.380  1.0730 -0.2775  0.2699
 5262TIP3   OH237200   2.625   0.030  13.401 -0.2077 -0.6039 -0.1942
 5262TIP3    H137201   2.630   0.113  13.354  1.5151 -0.5726  0.0122
 5262TIP3    H237202   2.643  -0.036  13.334  0.1772 -0.6955 -0.0004
 5263TIP3   OH237203   3.737   1.738  14.847 -0.5182  0.1128 -0.3864
 5263TIP3    H137204   3.804   1.750  14.780 -2.5542 -0.0826 -2.5579
 5263TIP3    H237205   3.672   1.806  14.829 -1.4025 -0.3371  0.9885
 5264TIP3   OH237206   4.474   0.250  12.438 -0.1823  0.2605  0.0075
 5264TIP3    H137207   4.494   0.165  12.399  2.3212  0.6092  0.4455
 5264TIP3    H237208   4.528   0.253  12.517  1.5512  3.1344 -1.1956
 5265TIP3   OH237209   0.182   4.199  11.161  0.0745  0.7010  0.1660
 5265TIP3    H137210   0.191   4.104  11.174  1.4447  1.0033  1.6189
 5265TIP3    H237211   0.271   4.229  11.144 -0.1083  1.9524  1.3161
 5266TIP3   OH237212   5.408   1.580  16.788  0.0727 -0.3530 -0.1082
 5266TIP3    H137213   5.442   1.669  16.787 -0.2199 -0.2241  0.5779
 5266TIP3    H237214   5.481   1.526  16.758  0.0979  0.1655 -0.9845
 5267TIP3   OH237215   3.318   0.416  14.589 -0.0987  0.4498 -0.0750
 5267TIP3    H137216   3.300   0.446  14.677  0.3606  2.2423 -0.5691
 5267TIP3    H237217   3.320   0.496  14.536  2.8782 -0.2414 -1.1276
 5268TIP3   OH237218   0.848   3.147  15.956  0.5736 -0.1317 -0.0640
 5268TIP3    H137219   0.859   3.201  16.034  1.1747  0.2000 -0.3779
 5268TIP3    H237220   0.823   3.061  15.990  0.5321  0.0914  0.4789
 5269TIP3   OH237221   5.713   1.535   1.734 -0.6726 -0.0238  0.1374
 5269TIP3    H137222   5.795   1.498   1.701 -0.2054  1.0595  0.0764
 5269TIP3    H237223   5.647   1.507   1.670 -0.5207 -1.6624  0.6688
 5270TIP3   OH237224   3.425   4.175   4.624 -0.0322  0.1041  0.2222
 5270TIP3    H137225   3.448   4.086   4.596  0.9331 -0.0504  1.4548
 5270TIP3    H237226   3.508   4.223   4.621 -0.6290  1.0813 -0.8417
 5271TIP3   OH237227   3.865   6.130   3.665 -0.4287 -0.2908  0.6020
 5271TIP3    H137228   3.786   6.155   3.617 -0.2099 -1.0304 -0.1480
 5271TIP3    H237229   3.885   6.206   3.720 -1.5826 -0.0522  0.6965
 5272TIP3   OH237230   0.449   0.604   1.669  0.0239 -0.0193  0.6500
 5272TIP3    H137231   0.378   0.621   1.731  0.5368 -0.3008  1.3297
 5272TIP3    H237232   0.446   0.677   1.608 -0.0949  0.5881  1.3774
 5273TIP3   OH237233   3.653   2.490  16.366 -0.2095  0.2660 -0.0840
 5273TIP3    H137234   3.696   2.542  16.434  2.5400 -2.3193  0.2806
 5273TIP3    H237235   3.672   2.535  16.284  3.2220 -0.7541  0.0912
 5274TIP3   OH237236   1.316   2.101   3.812 -0.1512  0.0760  0.2633
 5274TIP3    H137237   1.294   2.148   3.731 -1.3615 -1.3163 -0.2305
 5274TIP3    H237238   1.407   2.126   3.830 -0.0646  0.8777 -1.1938
 5275TIP3   OH237239   4.181   2.496  13.434  0.3181 -0.3507 -0.3984
 5275TIP3    H137240   4.130   2.503  13.514  1.2267 -0.7349  0.2172
 5275TIP3    H237241   4.116   2.501  13.364 -0.7411 -2.3015  0.4105
 5276TIP3   OH237242   0.232   1.256   0.427  0.0029  0.1076 -0.3630
 5276TIP3    H137243   0.150   1.304   0.429 -0.4045 -0.4650 -2.2079
 5276TIP3    H237244   0.281   1.289   0.502 -1.4844  1.2016  0.1507
 5277TIP3   OH237245   5.235   6.278  13.296  0.4083 -0.0876 -0.1682
 5277TIP3    H137246   5.277   6.351  13.342 -1.1715  0.4943  0.3570
 5277TIP3    H237247   5.171   6.244  13.358  0.2625 -1.1213 -0.8819
 5278TIP3   OH237248   3.092   1.608   4.898 -0.0987 -0.7296 -0.3588
 5278TIP3    H137249   3.170   1.663   4.889  0.4594 -1.7082 -1.6728
 5278TIP3    H237250   3.056   1.603   4.810 -0.8065 -1.4986 -0.0299
 5279TIP3   OH237251   0.129   2.030  14.881  0.1490 -0.2166  0.1128
 5279TIP3    H137252   0.063   2.019  14.813  0.9649 -1.5985 -0.4909
 5279TIP3    H237253   0.080   2.042  14.962 -0.8645 -3.1830 -0.0239
 5280TIP3   OH237254   3.653   3.082  11.246 -0.3388  0.3812  0.1425
 5280TIP3    H137255   3.744   3.108  11.237 -0.4705  0.3487 -1.3796
 5280TIP3    H237256   3.654   2.987  11.247 -0.4642  0.3506 -1.3025
 5281TIP3   OH237257   6.476   5.096   0.694 -0.1838 -0.1241 -0.5567
 5281TIP3    H137258   6.541   5.143   0.747  1.5421 -1.2815 -1.5904
 5281TIP3    H237259   6.392   5.126   0.727  0.8792  2.0841  0.2309
 5282TIP3   OH237260   4.468   3.769   1.124 -0.2731 -0.1164 -0.2060
 5282TIP3    H137261   4.470   3.750   1.218 -0.4855 -0.4075 -0.2620
 5282TIP3    H237262   4.559   3.790   1.102 -0.5359  1.8010  0.4477
 5283TIP3   OH237263   1.830   5.134  16.949  0.0790 -0.0561 -0.0177
 5283TIP3    H137264   1.854   5.106  16.861 -0.5103  0.3104 -0.2956
 5283TIP3    H237265   1.852   5.228  16.951  0.1345 -0.0727  0.2412
 5284TIP3   OH237266   2.437   5.386  14.961 -0.2136  0.3581 -0.6005
 5284TIP3    H137267   2.475   5.394  14.874  1.1729  0.8906  0.0298
 5284TIP3    H237268   2.509   5.354  15.016  0.1211  3.7243  1.1344
 5285TIP3   OH237269   2.605   4.993   2.529  0.1808  0.2465 -0.2960
 5285TIP3    H137270   2.690   4.951   2.542  0.3101  0.4753 -0.3972
 5285TIP3    H237271   2.545   4.944   2.586  0.1719 -0.5686 -0.9943
 5286TIP3   OH237272   6.531   4.359  15.525 -0.2023  0.0363  0.2529
 5286TIP3    H137273   6.448   4.381  15.567 -0.2310  0.6219 -0.1112
 5286TIP3    H237274   6.551   4.271  15.557 -0.6563  0.1359  0.8157
 5287TIP3   OH237275   6.782   0.129  14.872  0.0189 -0.1373  0.2488
 5287TIP3    H137276   6.758   0.222  14.872  1.1112  0.1505  1.0937
 5287TIP3    H237277   6.699   0.083  14.857 -0.6115  0.9480  0.3593
 5288TIP3   OH237278   1.514   2.428  17.011  0.1463  0.5514 -0.4311
 5288TIP3    H137279   1.483   2.338  17.020 -0.0093  0.6032 -0.4587
 5288TIP3    H237280   1.567   2.443  17.089 -0.1370  0.5628 -0.2430
 5289TIP3   OH237281   4.902   1.357   0.202 -0.2397 -0.2335  0.4976
 5289TIP3    H137282   4.889   1.389   0.113  0.4284 -1.1551  0.0668
 5289TIP3    H237283   4.858   1.272   0.204  1.2761 -1.0351  0.5191
 5290TIP3   OH237284   5.353   0.073   4.625 -0.7027  0.3768 -0.1314
 5290TIP3    H137285   5.331   0.160   4.658 -1.2228 -0.8471  2.9517
 5290TIP3    H237286   5.270   0.036   4.597 -0.7151  0.3473 -0.0581
 5291TIP3   OH237287   0.733   1.643   3.675  0.0797  0.1763  0.0461
 5291TIP3    H137288   0.768   1.553   3.673  1.1736  0.6219 -1.1485
 5291TIP3    H237289   0.800   1.696   3.632 -1.0762  1.4044 -0.2575
 5292TIP3   OH237290   6.403   6.513   5.608  0.2217  0.3103 -0.3305
 5292TIP3    H137291   6.464   6.442   5.589  0.6819  0.9617 -1.3416
 5292TIP3    H237292   6.385   6.505   5.702  2.8923  0.8937  0.2712
 5293TIP3   OH237293   6.756   0.366  11.891  0.0187 -0.2902  0.0841
 5293TIP3    H137294   6.779   0.459  11.897 -1.0994 -0.1656  3.9589
 5293TIP3    H237295   6.818   0.323  11.951 -0.9551 -1.7394  0.0701
 5294TIP3   OH237296   4.249   4.791   0.817  0.3329  0.2415  0.1340
 5294TIP3    H137297   4.207   4.848   0.882 -1.3788  0.8268 -1.4143
 5294TIP3    H237298   4.277   4.851   0.747 -0.2325 -0.6386 -0.8700
 5295TIP3   OH237299   3.060   2.213   1.216 -0.8205 -0.0967 -0.1729
 5295TIP3    H137300   2.994   2.149   1.242 -0.0201 -0.8986 -0.1308
 5295TIP3    H237301   3.013   2.272   1.156 -2.3222  0.9701  1.9713
 5296TIP3   OH237302   4.879   2.899  12.636  0.7030 -0.6134  0.2619
 5296TIP3    H137303   4.825   2.960  12.585 -0.4779 -0.0783  2.0823
 5296TIP3    H237304   4.932   2.956  12.692 -0.1316 -1.2460  1.7033
 5297TIP3   OH237305   3.126   5.179  14.312 -0.0410  0.0336 -0.0587
 5297TIP3    H137306   3.090   5.093  14.336  1.0338 -1.0107 -1.9886
 5297TIP3    H237307   3.087   5.198  14.227  1.1936  0.5633 -0.5161
 5298TIP3   OH237308   2.752   3.453   5.097  0.0376 -0.6085  0.6493
 5298TIP3    H137309   2.808   3.492   5.165 -0.2723  0.6631  0.1724
 5298TIP3    H237310   2.674   3.426   5.144  0.7812 -1.8372  1.2112
 5299TIP3   OH237311   4.206   0.794   2.352 -0.5802  0.2987  0.9452
 5299TIP3    H137312   4.112   0.779   2.364 -0.5619 -0.2618  0.4403
 5299TIP3    H237313   4.238   0.713   2.312  0.0997  0.5234  1.0273
 5300TIP3   OH237314   5.890   1.925   0.170  0.3563  0.3372 -0.5043
 5300TIP3    H137315   5.863   1.865   0.240 -0.0088  1.2490  0.1537
 5300TIP3    H237316   5.824   1.995   0.172  0.7618  0.7464 -1.2690
 5301TIP3   OH237317   6.265   4.106  10.981  0.5808  0.5806  0.1972
 5301TIP3    H137318   6.312   4.081  11.060 -1.2804 -0.4631  1.0228
 5301TIP3    H237319   6.243   4.022  10.939  0.1958  1.0701 -0.5841
 5302TIP3   OH237320   1.412   3.422  15.527  0.4393  0.4057  0.0609
 5302TIP3    H137321   1.404   3.462  15.614  2.4720 -0.5404  0.7168
 5302TIP3    H237322   1.350   3.470  15.473 -3.4781 -1.2349  2.8081
 5303TIP3   OH237323   1.970   6.552   4.388 -0.5548  0.3208  0.0312
 5303TIP3    H137324   2.024   6.473   4.387 -0.9877 -0.0110  2.0636
 5303TIP3    H237325   1.998   6.600   4.309  2.0924 -0.2541  0.5472
 5304TIP3   OH237326   1.444   0.747   5.414  0.0298 -0.6229 -0.3042
 5304TIP3    H137327   1.503   0.806   5.460  1.7007 -3.5690  1.4657
 5304TIP3    H237328   1.475   0.748   5.323  1.1750 -0.1677  0.0870
 5305TIP3   OH237329   4.159   1.961  13.094 -0.5803 -0.3850  0.0338
 5305TIP3    H137330   4.084   1.934  13.147 -1.3968 -1.0842 -1.4391
 5305TIP3    H237331   4.171   1.890  13.031 -0.0829  0.7547 -1.1797
 5306TIP3   OH237332   4.528   0.537   2.098 -0.9042 -0.4015  0.4138
 5306TIP3    H137333   4.526   0.501   2.009 -1.7805 -1.2365  0.7656
 5306TIP3    H237334   4.613   0.509   2.133 -1.4384 -1.8848  0.5718
 5307TIP3   OH237335   3.001   5.456   3.187  0.0778  0.3051 -0.2555
 5307TIP3    H137336   3.026   5.364   3.194 -0.4872  0.2835  1.8436
 5307TIP3    H237337   2.911   5.459   3.218  1.2237  2.0666  3.1150
 5308TIP3   OH237338   5.077   6.428  15.189 -0.1696 -0.5933 -0.6755
 5308TIP3    H137339   5.088   6.415  15.283 -0.2251 -2.6896 -0.9539
 5308TIP3    H237340   5.067   6.523  15.179 -2.4587 -0.5402  1.6594
 5309TIP3   OH237341   3.676   0.537   2.354  0.6729  0.4872 -0.7147
 5309TIP3    H137342   3.639   0.500   2.275 -1.7105  2.4568 -0.5871
 5309TIP3    H237343   3.681   0.631   2.336 -0.7995  1.0853  1.7955
 5310TIP3   OH237344   1.510   1.904   3.598  0.2119 -0.0496  0.2969
 5310TIP3    H137345   1.542   1.894   3.688 -0.1619 -0.0893  0.4294
 5310TIP3    H237346   1.544   1.828   3.552 -0.0090 -0.2940  0.5308
 5311TIP3   OH237347   5.733   5.573   2.691 -0.1569 -0.4706  0.2397
 5311TIP3    H137348   5.746   5.634   2.619 -0.9782 -0.0997  0.4072
 5311TIP3    H237349   5.803   5.595   2.753 -0.4256  0.2727  0.2834
 5312TIP3   OH237350   3.764   5.267   2.193 -0.2489  0.7381  0.0561
 5312TIP3    H137351   3.739   5.289   2.283  0.8259  0.8484  0.3374
 5312TIP3    H237352   3.689   5.219   2.158 -0.4156  0.1102  1.2358
 5313TIP3   OH237353   2.563   0.259   5.222 -0.0177 -0.6130 -0.3567
 5313TIP3    H137354   2.544   0.168   5.197 -0.6079 -0.2702 -1.1396
 5313TIP3    H237355   2.498   0.311   5.177 -0.6473  0.0778  1.3037
 5314TIP3   OH237356   5.230   1.328   0.107 -0.1892  0.0193  0.0878
 5314TIP3    H137357   5.139   1.299   0.102  0.5296 -2.0262 -2.3700
 5314TIP3    H237358   5.227   1.422   0.086 -1.7235 -0.0499 -0.0453
 5315TIP3   OH237359   5.169   6.647   4.911  0.1873  0.0977 -0.0430
 5315TIP3    H137360   5.143   6.720   4.854 -1.5846  0.1521  0.7872
 5315TIP3    H237361   5.232   6.597   4.859  0.2085  1.3183 -1.2310
 5316TIP3   OH237362   2.918   4.018   3.347 -0.5252  0.5595  0.0062
 5316TIP3    H137363   2.857   4.053   3.411  1.5587  0.7968  1.9100
 5316TIP3    H237364   2.977   4.091   3.328  1.5131 -0.7632  1.1195
 5317TIP3   OH237365   0.132   2.884  12.398  0.5771  0.2567 -0.0911
 5317TIP3    H137366   0.074   2.957  12.377 -0.1736 -0.0523  0.8516
 5317TIP3    H237367   0.073   2.815  12.430  1.4421 -0.1088  0.7426
 5318TIP3   OH237368   5.474   0.807   3.081 -0.1066 -0.0165 -0.0169
 5318TIP3    H137369   5.443   0.717   3.085 -1.4869  0.4748  0.7830
 5318TIP3    H237370   5.395   0.859   3.068  0.7070  1.0669 -0.7582
 5319TIP3   OH237371   4.626   1.819   1.667  0.1378  0.3193  0.4906
 5319TIP3    H137372   4.605   1.827   1.760 -1.1962 -2.2650  0.4640
 5319TIP3    H237373   4.715   1.784   1.665  1.7120  4.0867  0.6943
 5320TIP3   OH237374   1.774   6.678   4.183 -0.4387  0.0531  0.0131
 5320TIP3    H137375   1.854   6.709   4.140  0.3996  0.1337  1.6087
 5320TIP3    H237376   1.743   6.607   4.126 -0.6729  1.7134 -1.9956
 5321TIP3   OH237377   2.133   2.318  11.814  0.1644  0.3072  0.3979
 5321TIP3    H137378   2.140   2.410  11.838  1.7630  0.7889 -1.7469
 5321TIP3    H237379   2.113   2.319  11.720  1.7330 -1.5408  0.0033
 5322TIP3   OH237380   3.512   1.051  12.617  0.3700  0.2813  0.0966
 5322TIP3    H137381   3.505   0.972  12.671  2.2081  1.0410  1.5147
 5322TIP3    H237382   3.550   1.022  12.535  0.7245 -0.3652  0.4883
 5323TIP3   OH237383   2.019   4.944  16.676  0.1450 -0.2876  0.6283
 5323TIP3    H137384   1.961   4.911  16.745  0.2880 -1.1966  0.3176
 5323TIP3    H237385   1.984   5.031  16.655  0.4034  0.2167  2.2134
 5324TIP3   OH237386   2.806   3.944  12.946 -0.2922  0.4771 -0.5220
 5324TIP3    H137387   2.785   3.999  12.870 -0.7423  0.6938 -0.2471
 5324TIP3    H237388   2.798   3.854  12.914 -1.7947  0.5549 -0.3903
 5325TIP3   OH237389   1.535   1.897  17.219 -0.2603 -0.1514  0.1728
 5325TIP3    H137390   1.583   1.923  17.297  0.7062  0.0637 -0.4837
 5325TIP3    H237391   1.601   1.860  17.161 -0.6684  1.2147 -1.2060
 5326TIP3   OH237392   3.469   2.778  12.241 -0.1862 -0.1370  0.1668
 5326TIP3    H137393   3.410   2.725  12.295  2.0285 -0.9883  1.8437
 5326TIP3    H237394   3.555   2.765  12.281  0.8856  2.3370 -1.2414
 5327TIP3   OH237395   4.616   5.368   3.250  0.5609 -0.0256  1.0851
 5327TIP3    H137396   4.686   5.322   3.295  1.1026 -2.7251 -2.2922
 5327TIP3    H237397   4.539   5.313   3.261  0.3283  0.0909  0.1390
 5328TIP3   OH237398   1.652   0.912   5.520 -0.4565  0.0476  0.2845
 5328TIP3    H137399   1.588   0.958   5.574 -1.3547 -0.3832 -0.3850
 5328TIP3    H237400   1.710   0.980   5.487 -1.2438  0.6007  0.0219
 5329TIP3   OH237401   6.113   1.523  15.066 -0.3692  0.0589 -0.3415
 5329TIP3    H137402   6.172   1.451  15.045  0.4730  0.2032  1.4269
 5329TIP3    H237403   6.168   1.587  15.111 -1.4731  1.0351 -0.3524
 5330TIP3   OH237404   6.621   5.760  15.892 -0.3929  0.2713  0.4800
 5330TIP3    H137405   6.682   5.782  15.962  0.4111  0.9095 -0.4056
 5330TIP3    H237406   6.645   5.819  15.820 -1.9756  0.4465  0.0844
 5331TIP3   OH237407   3.275   3.767   2.449  0.2697 -0.4624 -0.0213
 5331TIP3    H137408   3.348   3.790   2.506 -1.3113 -1.4424  2.4766
 5331TIP3    H237409   3.284   3.673   2.433 -0.3950 -0.5759  0.2379
 5332TIP3   OH237410   4.841   3.867   0.452  0.0145 -0.0934 -0.1517
 5332TIP3    H137411   4.904   3.935   0.428 -1.2631  0.8147 -0.9975
 5332TIP3    H237412   4.886   3.814   0.518  2.7224 -1.2210 -2.8113
 5333TIP3   OH237413   0.999   3.451  14.744  0.1194 -0.1775  0.1155
 5333TIP3    H137414   0.950   3.377  14.708 -2.0657  0.7588  1.1246
 5333TIP3    H237415   1.044   3.488  14.668  0.2176 -1.7490 -0.6173
 5334TIP3   OH237416   1.798   2.418  11.773 -0.5593 -0.2979  0.6450
 5334TIP3    H137417   1.866   2.482  11.754 -0.3439 -1.1691 -1.6942
 5334TIP3    H237418   1.830   2.371  11.851  1.1313 -0.1744  0.0375
 5335TIP3   OH237419   0.171   4.352   5.364 -0.0872 -0.1293  0.2187
 5335TIP3    H137420   0.156   4.419   5.431  0.1968 -1.7692  2.0028
 5335TIP3    H237421   0.085   4.311   5.352  0.3450 -1.4632  1.4460
 5336TIP3   OH237422   4.766   2.244  15.318  0.1599 -0.2211  0.2209
 5336TIP3    H137423   4.742   2.312  15.381  0.7149  1.9072 -1.8357
 5336TIP3    H237424   4.846   2.206  15.353  0.4029  0.8690  0.8446
 5337TIP3   OH237425   5.674   0.780  13.927 -0.5535  0.2186  0.4728
 5337TIP3    H137426   5.724   0.777  14.008  1.8264  0.2299 -0.9676
 5337TIP3    H237427   5.709   0.855  13.880 -0.8391 -0.7211 -1.2614
 5338TIP3   OH237428   2.650   1.124  11.172 -0.2871  0.2964 -0.2923
 5338TIP3    H137429   2.575   1.142  11.116 -0.3449  0.8513 -0.0411
 5338TIP3    H237430   2.612   1.101  11.256 -0.1711  1.5544  0.1219
 5339TIP3   OH237431   6.324   0.565  12.825 -0.3828 -0.0375  0.5529
 5339TIP3    H137432   6.238   0.569  12.866 -0.7961  0.6160 -0.3589
 5339TIP3    H237433   6.307   0.580  12.732  0.8797  1.6049  0.5662
 5340TIP3   OH237434   6.672   2.825  13.690 -0.1171  0.1484  0.2107
 5340TIP3    H137435   6.750   2.813  13.745 -0.8591 -1.7022  0.9214
 5340TIP3    H237436   6.598   2.811  13.750 -0.9809  1.0328 -0.6339
 5341TIP3   OH237437   4.987   3.371   1.672 -0.4884 -0.6822 -0.3846
 5341TIP3    H137438   4.954   3.282   1.661  0.0822 -0.7863 -1.3282
 5341TIP3    H237439   4.935   3.424   1.612 -1.5203 -0.1793  0.8996
 5342TIP3   OH237440   0.149   4.491  16.354  0.1349  0.7413  0.1811
 5342TIP3    H137441   0.081   4.543  16.397 -1.2313 -1.4833  0.7834
 5342TIP3    H237442   0.112   4.468  16.269 -1.0421 -2.7795  1.5838
 5343TIP3   OH237443   5.878   4.207   2.915  0.2279  0.4276 -0.0888
 5343TIP3    H137444   5.827   4.161   2.981 -0.0624 -0.6949 -1.0660
 5343TIP3    H237445   5.969   4.181   2.932  0.1825  0.3689  0.0583
 5344TIP3   OH237446   2.209   4.746   5.962  0.2940 -0.8353 -0.4736
 5344TIP3    H137447   2.239   4.678   6.024  0.3528  0.6605  1.1801
 5344TIP3    H237448   2.132   4.784   6.004 -0.5465 -0.7834 -2.0425
 5345TIP3   OH237449   2.458   2.517  16.348 -0.6160  0.3595 -0.3422
 5345TIP3    H137450   2.511   2.586  16.309 -0.3373  0.1179 -0.3921
 5345TIP3    H237451   2.374   2.522  16.302 -0.8041  1.0623  0.0741
 5346TIP3   OH237452   2.082   4.681   2.256 -0.2721 -0.1475  0.0919
 5346TIP3    H137453   2.045   4.769   2.266 -0.4314 -0.2436  0.3514
 5346TIP3    H237454   2.127   4.665   2.339  0.1805 -0.1106 -0.1446
 5347TIP3   OH237455   1.926   5.709  14.883 -0.4891 -0.1869  0.0176
 5347TIP3    H137456   1.837   5.733  14.859 -0.3617  0.0635 -0.2132
 5347TIP3    H237457   1.918   5.623  14.924 -0.9033  0.0940  0.5208
 5348TIP3   OH237458   5.644   0.645  15.902  0.0728  0.6835  0.0211
 5348TIP3    H137459   5.706   0.676  15.968 -1.1913  1.6398  0.7754
 5348TIP3    H237460   5.610   0.563  15.937 -1.1761  1.5751  0.9643
 5349TIP3   OH237461   1.618   6.188   2.783 -0.1872 -0.3254  0.9747
 5349TIP3    H137462   1.678   6.205   2.855 -0.4203  2.9083  0.4968
 5349TIP3    H237463   1.561   6.265   2.781 -2.2367 -1.8174 -0.6498
 5350TIP3   OH237464   1.166   1.411  11.013 -0.4954 -0.5245 -0.6700
 5350TIP3    H137465   1.118   1.462  11.079  0.1400 -0.4779 -0.2396
 5350TIP3    H237466   1.117   1.329  11.006 -1.2967 -0.0200 -1.0748
 5351TIP3   OH237467   3.918   1.030   3.189 -0.1933 -0.5482  0.2910
 5351TIP3    H137468   3.957   1.042   3.276  1.9739  2.6368 -1.0099
 5351TIP3    H237469   3.958   0.950   3.156  0.2011 -0.9107  1.6064
 5352TIP3   OH237470   0.006   0.774  10.467 -0.0554  0.4561 -0.5281
 5352TIP3    H137471   0.101   0.775  10.460  0.1972  1.2884  2.2141
 5352TIP3    H237472  -0.012   0.706  10.532 -1.1624  1.7462  0.5539
 5353TIP3   OH237473   5.399   3.961   3.207  0.6815  0.2039  0.3988
 5353TIP3    H137474   5.454   3.901   3.258  1.0937  1.0757  0.9773
 5353TIP3    H237475   5.318   3.912   3.192  0.9594 -0.4423  0.9928
 5354TIP3   OH237476   0.722   0.309   4.144  0.0104  0.1300  0.7262
 5354TIP3    H137477   0.787   0.320   4.214  0.0753  0.6165  0.5918
 5354TIP3    H237478   0.773   0.281   4.068 -0.2392 -1.7807  1.2439
 5355TIP3   OH237479   4.721   1.700  16.948  0.2534 -0.7280  0.3417
 5355TIP3    H137480   4.753   1.613  16.925  0.8976 -1.4266  3.5888
 5355TIP3    H237481   4.631   1.685  16.977 -0.7175  0.2005 -2.0371
 5356TIP3   OH237482   6.726   3.791   0.595 -0.3996  0.3027 -0.1973
 5356TIP3    H137483   6.715   3.769   0.503  3.6985  2.7719 -1.3589
 5356TIP3    H237484   6.665   3.863   0.609 -0.6775  0.2491 -1.0858
 5357TIP3   OH237485   3.101   0.223  13.735 -0.0994 -0.2768 -0.6721
 5357TIP3    H137486   3.027   0.182  13.692  0.5297 -0.5956 -1.4755
 5357TIP3    H237487   3.091   0.317  13.716 -0.7255 -0.2313 -0.1036
 5358TIP3   OH237488   5.874   2.280  16.181 -0.0799 -0.2292 -0.3370
 5358TIP3    H137489   5.895   2.246  16.268 -2.2907  0.6703  0.6002
 5358TIP3    H237490   5.783   2.252  16.166 -0.8132  2.3672 -0.9523
 5359TIP3   OH237491   0.056   2.291  13.796 -0.6391 -0.2447  0.2896
 5359TIP3    H137492   0.148   2.266  13.785 -0.7188 -0.6406  0.5247
 5359TIP3    H237493   0.007   2.213  13.771 -0.9390  0.2944 -0.8011
 5360TIP3   OH237494   4.046   4.633  11.517 -0.2510 -0.6360 -0.0793
 5360TIP3    H137495   4.030   4.559  11.575  1.4222 -1.4309 -0.5731
 5360TIP3    H237496   4.140   4.627  11.497 -0.3242  0.9874 -0.9884
 5361TIP3   OH237497   2.943   1.840  13.167  0.3792 -0.1965  0.3734
 5361TIP3    H137498   3.028   1.803  13.188 -0.3662 -0.9421  2.2213
 5361TIP3    H237499   2.962   1.925  13.129  1.9205  0.2152  2.0104
 5362TIP3   OH237500   6.147   3.311   2.020  0.6684  0.1635  0.3066
 5362TIP3    H137501   6.228   3.304   2.071  0.6263 -3.0176  0.0055
 5362TIP3    H237502   6.155   3.243   1.953 -1.8260  0.4842 -0.3477
 5363TIP3   OH237503   1.585   3.928   1.123  0.1121 -0.1671 -0.3050
 5363TIP3    H137504   1.500   3.936   1.168  0.1377  1.3236 -0.5068
 5363TIP3    H237505   1.614   3.839   1.144 -1.0582 -0.3706  0.5485
 5364TIP3   OH237506   2.897   4.655  17.033  0.5517 -0.0498 -0.7206
 5364TIP3    H137507   2.876   4.744  17.063  0.9804 -0.1222 -0.2180
 5364TIP3    H237508   2.883   4.659  16.938 -0.0865  0.3696 -0.6141
 5365TIP3   OH237509   1.589   6.422  16.546  0.3862  0.3813 -0.0746
 5365TIP3    H137510   1.676   6.418  16.508  0.7418 -0.7432  0.8203
 5365TIP3    H237511   1.583   6.509  16.585  0.6445  0.9108 -1.2108
 5366TIP3   OH237512   6.424   5.440   5.239 -0.3044 -0.7120  0.7196
 5366TIP3    H137513   6.452   5.350   5.256 -1.0266 -0.8685  1.1438
 5366TIP3    H237514   6.505   5.490   5.233  0.0521 -1.0436  2.5076
 5367TIP3   OH237515   5.873   1.271   5.490  0.4267  0.1418 -0.0559
 5367TIP3    H137516   5.937   1.228   5.433  1.7855 -0.9538  2.2098
 5367TIP3    H237517   5.888   1.364   5.478  1.7381 -0.0977 -0.3376
 5368TIP3   OH237518   5.379   3.733   0.388 -0.3017  0.5340 -0.3460
 5368TIP3    H137519   5.304   3.762   0.439  0.1889  0.3720  0.4698
 5368TIP3    H237520   5.381   3.638   0.399 -0.0623  0.5220 -0.4814
 5369TIP3   OH237521   2.648   1.931   3.680 -0.3503 -0.0473  0.1645
 5369TIP3    H137522   2.627   1.879   3.602 -0.5952 -0.4035  0.4649
 5369TIP3    H237523   2.569   1.985   3.695  1.1462  2.9518 -2.1442
 5370TIP3   OH237524   3.694   6.362  17.084  0.0374 -0.1212  0.0726
 5370TIP3    H137525   3.777   6.387  17.124  0.9533 -0.3065 -1.6461
 5370TIP3    H237526   3.634   6.351  17.158  0.8871  2.3290  1.1891
 5371TIP3   OH237527   3.133   1.446  16.799 -0.3583  0.1892  0.6837
 5371TIP3    H137528   3.058   1.436  16.739  1.0197 -0.2970 -0.9962
 5371TIP3    H237529   3.093   1.465  16.884 -2.3457  2.1005 -0.6242
 5372TIP3   OH237530   4.963   5.101  15.467 -0.3101  0.1672 -0.1181
 5372TIP3    H137531   4.949   5.021  15.416  0.9078 -0.6662  0.8322
 5372TIP3    H237532   5.057   5.102  15.486 -0.0397  2.5822 -1.3458
 5373TIP3   OH237533   3.009   0.689   0.291  0.4333 -0.5007  0.2983
 5373TIP3    H137534   2.965   0.621   0.341 -1.0786  0.1721 -0.0719
 5373TIP3    H237535   3.078   0.721   0.348  0.2797 -1.4192  0.9943
 5374TIP3   OH237536   3.856   1.220  10.939 -0.4099 -0.4371  0.6197
 5374TIP3    H137537   3.833   1.294  10.883 -3.0298 -1.7055 -0.0398
 5374TIP3    H237538   3.942   1.191  10.906  0.9716  2.6925  1.3454
 5375TIP3   OH237539   1.618   5.432   3.435 -0.5888 -0.0133 -0.5108
 5375TIP3    H137540   1.705   5.469   3.421  0.1084 -1.0246  0.9709
 5375TIP3    H237541   1.634   5.339   3.449 -1.7169  0.0545  1.4926
 5376TIP3   OH237542   0.006   5.977  14.171 -0.1188 -0.2486  0.1791
 5376TIP3    H137543   0.089   6.003  14.131  0.7348 -1.0765  1.3967
 5376TIP3    H237544  -0.059   5.989  14.101  0.6060  2.7067 -0.0792
 5377TIP3   OH237545   5.599   5.766   5.228 -0.9655 -0.8870  0.3770
 5377TIP3    H137546   5.648   5.846   5.246 -0.4558 -1.2623  0.6860
 5377TIP3    H237547   5.524   5.769   5.287 -0.4742 -1.0611  1.0081
 5378TIP3   OH237548   3.957   3.839   0.187 -0.3363 -0.5688 -0.0273
 5378TIP3    H137549   3.964   3.918   0.134 -1.7884 -0.1351  0.4017
 5378TIP3    H237550   3.932   3.771   0.126  0.5150 -0.6092 -0.3308
 5379TIP3   OH237551   1.423   5.904   0.887 -0.1796 -0.4679  0.1850
 5379TIP3    H137552   1.471   5.893   0.969  0.5638 -1.5393 -0.3785
 5379TIP3    H237553   1.465   5.842   0.827  0.0700  1.1502 -1.3444
 5380TIP3   OH237554   2.356   0.561  16.096 -0.0179  0.3557  0.2680
 5380TIP3    H137555   2.321   0.480  16.134  1.9921 -0.7432 -0.1878
 5380TIP3    H237556   2.321   0.630  16.152  1.0204 -1.0703  2.7437
 5381TIP3   OH237557   1.778   5.165   4.056  0.3119  0.7266 -0.1112
 5381TIP3    H137558   1.857   5.113   4.069 -0.6678 -0.8151 -0.1661
 5381TIP3    H237559   1.809   5.251   4.030  1.9386 -0.1699 -1.1699
 5382TIP3   OH237560   5.599   5.538   1.744  0.2390 -0.6835  0.2301
 5382TIP3    H137561   5.564   5.627   1.747  0.4117 -0.6658  1.9240
 5382TIP3    H237562   5.654   5.537   1.666 -2.4978 -0.3515 -1.8123
 5383TIP3   OH237563   3.153   0.747   5.170 -0.1271 -0.0917 -0.5380
 5383TIP3    H137564   3.144   0.781   5.081  0.0615 -0.1835 -0.5897
 5383TIP3    H237565   3.146   0.825   5.226 -3.5801 -0.3622 -0.4408
 5384TIP3   OH237566   4.943   3.255   2.279  0.1029 -0.1086  0.2084
 5384TIP3    H137567   5.003   3.219   2.214 -1.9086 -1.3386 -1.0265
 5384TIP3    H237568   4.897   3.326   2.233 -1.2849 -0.9367  0.2826
 5385TIP3   OH237569   1.258   5.466   2.113  0.1247 -0.5532  0.0797
 5385TIP3    H137570   1.209   5.387   2.133  1.4543 -1.2053  0.8482
 5385TIP3    H237571   1.226   5.494   2.027 -0.4587 -1.8431 -0.1188
 5386TIP3   OH237572   2.823   3.896   0.195 -0.7616  0.2254 -0.0554
 5386TIP3    H137573   2.808   3.889   0.101 -1.9885  1.0257  0.0550
 5386TIP3    H237574   2.749   3.949   0.226  1.7147  3.3125  0.7685
 5387TIP3   OH237575   2.153   2.759   1.951  0.3552 -0.1302  0.0867
 5387TIP3    H137576   2.068   2.718   1.937  0.9320 -2.2538  2.3692
 5387TIP3    H237577   2.174   2.740   2.043  3.2642  0.3547 -0.4292
 5388TIP3   OH237578   4.782   5.928  16.669  0.1592  0.2011 -0.0603
 5388TIP3    H137579   4.761   5.857  16.729  1.2481 -1.1316 -1.2255
 5388TIP3    H237580   4.843   5.984  16.718  1.2102 -0.9948  0.0173
 5389TIP3   OH237581   3.796   3.434  15.864 -0.5034 -0.5082  0.1554
 5389TIP3    H137582   3.737   3.408  15.794  0.8270  2.6699 -2.2861
 5389TIP3    H237583   3.844   3.354  15.887 -1.8215 -1.8525 -1.6764
 5390TIP3   OH237584   4.308   6.487  12.694 -0.2916  0.0437  0.2158
 5390TIP3    H137585   4.289   6.533  12.776  1.1475  1.3923 -0.1731
 5390TIP3    H237586   4.402   6.469  12.698 -0.5501 -1.5070 -0.3459
 5391TIP3   OH237587   3.505   4.736   3.056  0.7001 -0.1587  0.0228
 5391TIP3    H137588   3.524   4.656   3.007 -0.7255 -0.8964  0.6442
 5391TIP3    H237589   3.510   4.806   2.990  3.1462 -0.5778 -0.2797
 5392TIP3   OH237590   2.375   4.201   6.122 -0.3230 -0.3221  0.8435
 5392TIP3    H137591   2.322   4.280   6.124  2.4967  1.6132  2.6928
 5392TIP3    H237592   2.358   4.157   6.205  0.9016  0.3044  1.4440
 5393TIP3   OH237593   6.151   1.268   2.828  0.2366  0.3119  0.0912
 5393TIP3    H137594   6.082   1.213   2.866  0.2389 -1.1253 -1.8968
 5393TIP3    H237595   6.113   1.301   2.746  0.5873  2.5318  0.7977
 5394TIP3   OH237596   4.011   6.289   2.759 -0.2969  0.3398 -0.5951
 5394TIP3    H137597   3.937   6.317   2.705  0.1000  0.1564 -1.2493
 5394TIP3    H237598   4.077   6.358   2.747 -0.6582  0.9093  0.6239
 5395TIP3   OH237599   6.641   2.613   1.777 -0.2292  0.4466  0.2459
 5395TIP3    H137600   6.631   2.705   1.798 -1.3164  0.4887 -0.4230
 5395TIP3    H237601   6.730   2.606   1.741  0.2824  1.0124  1.3741
 5396TIP3   OH237602   6.741   4.336  11.841  0.2167  0.0269  0.1096
 5396TIP3    H137603   6.651   4.312  11.861 -0.1738  0.5899 -0.9020
 5396TIP3    H237604   6.762   4.288  11.760 -0.1637  2.0627 -1.2500
 5397TIP3   OH237605   4.837   4.941  16.367  0.0073  0.0412 -0.5009
 5397TIP3    H137606   4.749   4.958  16.335  0.3453  0.5809 -1.1703
 5397TIP3    H237607   4.852   5.008  16.433 -0.4740 -0.7076  0.3733
 5398TIP3   OH237608   0.039   5.767   0.587 -0.1334  0.1798 -0.4293
 5398TIP3    H137609   0.058   5.688   0.636  0.4640  0.9052  0.5325
 5398TIP3    H237610   0.040   5.837   0.653 -1.1889  0.9073 -1.1763
 5399TIP3   OH237611   1.782   1.187  14.884  0.0477 -0.1620 -0.3314
 5399TIP3    H137612   1.819   1.098  14.886 -0.3779 -0.3683 -1.2382
 5399TIP3    H237613   1.726   1.191  14.962 -2.0959 -1.6682 -1.7033
 5400TIP3   OH237614   2.369   6.779  16.105 -0.4611  0.1710  0.4516
 5400TIP3    H137615   2.319   6.837  16.049 -1.0165 -0.2548  0.5059
 5400TIP3    H237616   2.460   6.804  16.090 -0.6774  0.8188  0.2187
 5401TIP3   OH237617   0.752   1.202  15.148  0.2046 -0.5806  0.0728
 5401TIP3    H137618   0.660   1.228  15.153  0.5897  0.8021  0.1643
 5401TIP3    H237619   0.751   1.107  15.164 -1.2251 -0.6266 -0.2362
 5402TIP3   OH237620   2.266   2.319   1.346 -0.0670  0.1883 -0.2845
 5402TIP3    H137621   2.256   2.386   1.278  0.5573  0.5383 -0.0328
 5402TIP3    H237622   2.232   2.360   1.426  1.3736  0.6213  0.1159
 5403TIP3   OH237623   1.751   3.488   3.574 -0.4888  0.4018  0.0221
 5403TIP3    H137624   1.709   3.560   3.528 -0.2470 -0.5224 -1.6752
 5403TIP3    H237625   1.707   3.485   3.659 -1.5867  1.5304 -0.4905
 5404TIP3   OH237626   5.650   4.496  13.519 -0.0837  0.2069  0.0008
 5404TIP3    H137627   5.614   4.432  13.458 -0.5072 -0.8408  1.3033
 5404TIP3    H237628   5.575   4.551  13.543 -0.2317 -0.2762  0.6543
 5405TIP3   OH237629   2.581   2.375  14.386 -0.2750  0.6859  0.1428
 5405TIP3    H137630   2.532   2.306  14.431  0.3046  0.7531  0.8940
 5405TIP3    H237631   2.600   2.439  14.455  0.0766  1.0931 -0.3318
 5406TIP3   OH237632   3.390   2.381  11.512 -0.2847 -0.3383 -0.5114
 5406TIP3    H137633   3.365   2.305  11.460 -0.3027  0.2576 -1.3951
 5406TIP3    H237634   3.450   2.430  11.456 -0.9800  0.7660 -0.3214
 5407TIP3   OH237635   0.618   1.552   1.607  0.1873  0.3872 -0.6431
 5407TIP3    H137636   0.705   1.570   1.642  0.2479 -4.1983  1.8626
 5407TIP3    H237637   0.634   1.498   1.530 -0.4546 -0.2199 -0.3465
 5408TIP3   OH237638   0.684   6.742   1.170  0.0079  0.3233  0.8870
 5408TIP3    H137639   0.736   6.685   1.226  0.3493  0.3870  0.6373
 5408TIP3    H237640   0.739   6.819   1.156 -0.7601  1.0386  1.8373
 5409TIP3   OH237641   3.015   4.054   0.561 -0.1624 -0.2173  0.3817
 5409TIP3    H137642   2.925   4.086   0.557  0.1898  0.5919 -1.5667
 5409TIP3    H237643   3.026   4.001   0.483  1.2942  0.3792  0.1526
 5410TIP3   OH237644   0.079   1.751  15.585 -0.5938  0.6872 -0.1453
 5410TIP3    H137645  -0.009   1.716  15.568 -0.3027  0.9581 -2.4601
 5410TIP3    H237646   0.096   1.810  15.510  1.9651 -0.1680 -0.2875
 5411TIP3   OH237647   0.865   1.062   2.309 -0.6105 -0.5068 -0.1034
 5411TIP3    H137648   0.793   1.121   2.285 -1.2140 -0.8549  0.8407
 5411TIP3    H237649   0.851   1.043   2.402  0.7864 -0.4653  0.1265
 5412TIP3   OH237650   5.730   2.909  16.963  0.2788  0.1905  0.4572
 5412TIP3    H137651   5.645   2.934  16.998 -1.7990 -3.5782 -1.5967
 5412TIP3    H237652   5.757   2.984  16.909 -2.9127  0.5040 -0.8171
 5413TIP3   OH237653   0.751   0.543   3.266  0.1089  0.5445  0.1408
 5413TIP3    H137654   0.670   0.501   3.237  1.2111 -0.3738 -1.7082
 5413TIP3    H237655   0.788   0.482   3.329 -1.2455  1.5789  2.0238
 5414TIP3   OH237656   1.901   6.556   4.654 -0.0674 -0.0399  0.2065
 5414TIP3    H137657   1.917   6.567   4.560  1.6874  0.7738  0.5781
 5414TIP3    H237658   1.834   6.488   4.659 -0.5247  0.2453 -1.6487
 5415TIP3   OH237659   6.705   1.376  11.168  0.4507  1.2617  0.1006
 5415TIP3    H137660   6.773   1.321  11.207 -1.8324 -0.7011  1.4435
 5415TIP3    H237661   6.724   1.375  11.074  0.4889 -1.8120  0.1024
 5416TIP3   OH237662   5.744   0.546  16.152 -0.1568 -0.5324 -0.6592
 5416TIP3    H137663   5.807   0.499  16.098  0.3235 -0.9001  0.2135
 5416TIP3    H237664   5.793   0.621  16.186  0.2058 -1.5658  1.1191
 5417TIP3   OH237665   0.290   1.792   5.322  0.2108 -0.2639 -0.1010
 5417TIP3    H137666   0.262   1.711   5.367  0.4087  0.5441  1.5142
 5417TIP3    H237667   0.229   1.859   5.354  0.6679  0.4265 -0.6664
 5418TIP3   OH237668   5.136   5.565   1.302 -0.8670 -0.1768 -0.2109
 5418TIP3    H137669   5.103   5.480   1.332 -1.6223 -0.1777 -1.0248
 5418TIP3    H237670   5.171   5.606   1.382 -0.4741 -1.2522  0.1789
 5419TIP3   OH237671   2.779   5.649  12.840 -0.2792  0.5312 -0.3951
 5419TIP3    H137672   2.822   5.708  12.778  1.1674 -0.6605 -0.5492
 5419TIP3    H237673   2.807   5.681  12.926 -2.5267  2.3707 -0.2847
 5420TIP3   OH237674   0.714   2.742  14.922  0.4976  0.3457 -0.4436
 5420TIP3    H137675   0.724   2.811  14.988  0.3425  0.4799 -0.5592
 5420TIP3    H237676   0.737   2.784  14.839 -0.3340  0.4689 -0.6150
 5421TIP3   OH237677   4.406   5.228  15.990  0.4140 -0.5454 -0.2702
 5421TIP3    H137678   4.413   5.240  16.085 -0.7377  0.1335 -0.2683
 5421TIP3    H237679   4.475   5.282  15.954 -1.0727  1.6161  0.0370
 5422TIP3   OH237680   1.117   1.377  17.215 -0.0892 -0.3983  0.2966
 5422TIP3    H137681   1.028   1.411  17.227 -0.0408 -0.3535  0.5236
 5422TIP3    H237682   1.167   1.452  17.181 -0.3437 -0.6635 -0.6738
 5423TIP3   OH237683   1.910   1.953   0.145  0.0897  0.0199  0.3429
 5423TIP3    H137684   1.986   1.939   0.088 -0.2214  0.2401 -0.1201
 5423TIP3    H237685   1.927   2.036   0.188 -0.0064  0.1877  0.0560
 5424TIP3   OH237686   4.557   0.316  15.355 -0.0683  0.2363 -0.9584
 5424TIP3    H137687   4.499   0.241  15.343  0.9162 -0.4398 -1.5282
 5424TIP3    H237688   4.619   0.288  15.423 -0.9446  1.2881  0.3123
 5425TIP3   OH237689   2.587   3.177   3.063  0.0868  0.0154  0.4491
 5425TIP3    H137690   2.536   3.103   3.031 -2.2600  0.5895  2.7214
 5425TIP3    H237691   2.538   3.254   3.035  1.3135  0.6923  0.0842
 5426TIP3   OH237692   3.791   2.252  16.410  0.0612 -0.1380  0.3378
 5426TIP3    H137693   3.791   2.190  16.337 -0.4206  1.2497 -0.8598
 5426TIP3    H237694   3.762   2.335  16.372 -2.7730 -0.0078  2.6566
 5427TIP3   OH237695   5.089   3.446  16.452 -0.2243  0.3005  0.1775
 5427TIP3    H137696   5.089   3.535  16.417  1.1659  0.5204  0.7075
 5427TIP3    H237697   5.085   3.390  16.374 -0.5886  0.8073 -0.1727
 5428TIP3   OH237698   3.957   5.335   3.517 -0.8286  0.3989 -0.1980
 5428TIP3    H137699   3.939   5.271   3.586 -0.7440 -0.2294 -0.7545
 5428TIP3    H237700   3.873   5.379   3.503 -0.9161  0.3323  0.1050
 5429TIP3   OH237701   4.242   4.888   3.805 -0.5961  0.3829 -0.6776
 5429TIP3    H137702   4.259   4.804   3.762 -0.2795  0.5056 -0.7898
 5429TIP3    H237703   4.180   4.867   3.874  0.7853 -0.2360  0.3838
 5430TIP3   OH237704   2.338   5.578   1.497 -0.3378 -0.5360  0.2005
 5430TIP3    H137705   2.356   5.502   1.553 -0.9208  0.8084  2.2585
 5430TIP3    H237706   2.414   5.635   1.510 -0.0305 -0.6253 -1.1340
 5431TIP3   OH237707   1.415   0.493   0.206  0.0557 -0.2243  0.1826
 5431TIP3    H137708   1.360   0.557   0.250 -2.2969 -0.8227 -1.7578
 5431TIP3    H237709   1.427   0.423   0.270 -2.7134 -0.7632  0.1706
 5432TIP3   OH237710   0.475   6.392   3.655 -0.2688  0.2926 -0.5436
 5432TIP3    H137711   0.541   6.331   3.688 -0.8864  0.5738  1.3174
 5432TIP3    H237712   0.424   6.415   3.733 -1.4104  1.4831 -1.6267
 5433TIP3   OH237713   6.551   3.707  16.942 -0.7417 -0.6795 -0.1827
 5433TIP3    H137714   6.545   3.802  16.950  1.0131 -0.2847 -2.9149
 5433TIP3    H237715   6.482   3.684  16.880 -2.6837 -1.5275  2.2030
 5434TIP3   OH237716   4.138   0.299   1.880 -0.2534  0.4201 -0.7953
 5434TIP3    H137717   4.230   0.310   1.904 -0.7959  2.8556  0.3465
 5434TIP3    H237718   4.138   0.295   1.784  1.0131  0.4506 -0.8034
 5435TIP3   OH237719   5.970   5.795   5.354 -0.2639 -0.0045 -0.0517
 5435TIP3    H137720   5.897   5.743   5.388 -0.3889  0.0584 -0.2201
 5435TIP3    H237721   5.928   5.867   5.308 -0.0840  0.8918  1.1668
 5436TIP3   OH237722   2.543   3.329   1.841 -0.0877 -0.3189 -0.0375
 5436TIP3    H137723   2.607   3.372   1.783 -0.5505 -1.2016 -1.2273
 5436TIP3    H237724   2.562   3.365   1.928  2.9772 -1.6122 -0.0961
 5437TIP3   OH237725   1.826   3.840  12.287  0.6292  0.3215  0.2157
 5437TIP3    H137726   1.743   3.851  12.334  0.3477 -3.3096  0.7038
 5437TIP3    H237727   1.890   3.826  12.356  1.0477 -0.3257 -0.3044
 5438TIP3   OH237728   1.217   6.501  11.546 -0.7807  0.2472 -0.1667
 5438TIP3    H137729   1.135   6.550  11.536  0.2054  2.3985  1.6966
 5438TIP3    H237730   1.274   6.561  11.595  2.0698 -1.0072 -1.8589
 5439TIP3   OH237731   4.475   4.833  13.950 -0.3736 -0.0116  0.2368
 5439TIP3    H137732   4.483   4.863  13.859 -2.6279  0.9173  0.3238
 5439TIP3    H237733   4.402   4.771  13.949 -1.8776  1.6748  1.7939
 5440TIP3   OH237734   2.661   0.953   3.193 -0.2519 -0.2413 -0.4022
 5440TIP3    H137735   2.673   0.875   3.138  1.9689 -0.5161  0.4185
 5440TIP3    H237736   2.647   1.024   3.131  0.7232 -0.8021 -1.2890
 5441TIP3   OH237737   1.034   1.470  15.091 -1.1574  0.1723 -0.9236
 5441TIP3    H137738   1.068   1.477  15.002 -0.9008  1.5179 -0.7311
 5441TIP3    H237739   0.956   1.526  15.092 -1.3298 -0.0692 -0.3883
 5442TIP3   OH237740   1.496   4.147  14.164 -0.5359  0.0404 -1.0021
 5442TIP3    H137741   1.542   4.165  14.246  0.5038  0.8848 -1.7482
 5442TIP3    H237742   1.404   4.147  14.187 -0.1793 -1.4971  0.5047
 5443TIP3   OH237743   3.818   6.490  15.231 -0.0411 -0.2035 -0.2371
 5443TIP3    H137744   3.826   6.414  15.173  0.3953 -1.6546  1.6548
 5443TIP3    H237745   3.745   6.468  15.289 -0.1091  0.9760  0.1409
 5444TIP3   OH237746   2.439   0.085  15.348 -0.4671 -0.7029 -0.1800
 5444TIP3    H137747   2.468   0.074  15.258 -0.2279 -0.3298 -0.1500
 5444TIP3    H237748   2.352   0.124  15.341  0.0437  0.4497 -0.2366
 5445TIP3   OH237749   4.318   5.260   3.280  0.4248  0.7940  0.0594
 5445TIP3    H137750   4.347   5.170   3.294  0.9537  1.0809  0.8345
 5445TIP3    H237751   4.250   5.253   3.213  0.0013 -0.2613  0.5828
 5446TIP3   OH237752   6.627   5.507   2.845 -0.2405 -0.4079 -0.4111
 5446TIP3    H137753   6.561   5.455   2.891 -0.3600  0.0613 -0.0421
 5446TIP3    H237754   6.704   5.503   2.902  0.4502 -1.9750 -1.4435
 5447TIP3   OH237755   5.899   0.914  12.342 -0.5037 -0.6714 -0.2148
 5447TIP3    H137756   5.901   0.993  12.398  0.4298 -0.9146  0.0986
 5447TIP3    H237757   5.987   0.909  12.305 -0.8203 -1.0958 -0.9149
 5448TIP3   OH237758   1.615   0.516   0.760 -0.1191  0.3881  0.7621
 5448TIP3    H137759   1.628   0.454   0.831  1.3538  0.6691  0.7632
 5448TIP3    H237760   1.588   0.597   0.803  0.9925  0.6224  1.0334
 5449TIP3   OH237761   0.131   1.477  16.019  0.0972  0.1775  0.5906
 5449TIP3    H137762   0.139   1.401  15.962 -2.3035 -0.1153  0.5951
 5449TIP3    H237763   0.126   1.441  16.108  0.1701  0.4047  0.6913
 5450TIP3   OH237764   3.318   1.677   5.815 -0.1629 -0.0175 -0.0992
 5450TIP3    H137765   3.230   1.706   5.838  0.0926  1.5081 -0.9805
 5450TIP3    H237766   3.314   1.581   5.819 -1.1869  0.1059  2.2493
 5451TIP3   OH237767   0.010   5.914   6.090  0.4315 -0.0390  0.0391
 5451TIP3    H137768  -0.008   5.867   6.009  0.8717 -1.3045  0.6732
 5451TIP3    H237769  -0.075   5.918   6.134 -0.2030  2.2661 -1.3038
 5452TIP3   OH237770   3.199   2.955   3.443 -0.2238  0.5279  0.2219
 5452TIP3    H137771   3.224   2.940   3.534 -0.5528 -0.0857  0.2122
 5452TIP3    H237772   3.249   3.033   3.417 -1.0916  1.4669  1.2991
 5453TIP3   OH237773   2.384   2.924   3.905  0.2003 -0.0819  0.0634
 5453TIP3    H137774   2.297   2.894   3.881 -0.3118  0.9855  0.5699
 5453TIP3    H237775   2.381   2.936   4.000  0.5953  0.9295 -0.0443
 5454TIP3   OH237776   0.870   4.173   4.164 -0.0786  0.5669 -0.2071
 5454TIP3    H137777   0.963   4.154   4.176  0.0500  1.1586 -0.2981
 5454TIP3    H237778   0.837   4.098   4.114  0.5818  0.8993 -1.1489
 5455TIP3   OH237779   3.831   3.203   4.888 -0.3868  0.2812  0.1601
 5455TIP3    H137780   3.923   3.194   4.915 -0.7114  0.0553  1.2128
 5455TIP3    H237781   3.805   3.290   4.919 -0.5807  0.2685  0.0318
 5456TIP3   OH237782   5.994   4.002   4.992 -0.3159 -0.2900  0.2124
 5456TIP3    H137783   6.033   4.006   5.079  0.1427 -1.5930  0.0825
 5456TIP3    H237784   5.970   3.909   4.981  0.4290 -0.3157 -1.3821
 5457TIP3   OH237785   5.432   5.015   3.986  0.5727  0.3269  0.1748
 5457TIP3    H137786   5.353   4.993   4.036  0.7368  0.6485  0.5726
 5457TIP3    H237787   5.401   5.075   3.918  0.1242 -1.0535 -0.8907
 5458TIP3   OH237788   5.338   4.857   5.436 -0.2258  0.2169  0.2169
 5458TIP3    H137789   5.414   4.832   5.383 -0.8621  1.4877 -1.3275
 5458TIP3    H237790   5.376   4.895   5.516  0.7612  0.3501 -0.3005
 5459TIP3   OH237791   0.053   0.412  16.581 -0.3771 -0.0070 -0.0334
 5459TIP3    H137792   0.122   0.389  16.643 -1.5657 -3.4035  0.1387
 5459TIP3    H237793   0.002   0.480  16.626  0.7537 -0.0373  1.3083
 5460TIP3   OH237794   4.769   1.096   4.636 -0.1772 -0.6952 -0.2394
 5460TIP3    H137795   4.682   1.101   4.676 -0.0831 -0.2401 -0.0960
 5460TIP3    H237796   4.802   1.009   4.662 -1.2092 -1.4982 -1.5762
 5461TIP3   OH237797   0.599   1.898   6.057 -0.1148  0.3786 -0.2010
 5461TIP3    H137798   0.536   1.826   6.045 -1.6059  1.3565  1.4541
 5461TIP3    H237799   0.619   1.927   5.968 -2.6169  0.5396 -0.7602
 5462TIP3   OH237800   4.800   2.034   2.766 -0.2392  0.2658 -0.0412
 5462TIP3    H137801   4.824   1.970   2.698  0.5052 -0.2778  0.7304
 5462TIP3    H237802   4.723   2.078   2.730 -1.4168 -1.7823 -0.1392
 5463TIP3   OH237803   6.366   3.989  12.966 -0.1189 -0.0199  0.2191
 5463TIP3    H137804   6.384   3.902  12.999  0.7812  1.3718  3.5565
 5463TIP3    H237805   6.451   4.023  12.939 -0.1814  0.5492  0.7325
 5464TIP3   OH237806   3.175   1.100  11.432  0.0280 -0.2754  0.3168
 5464TIP3    H137807   3.242   1.103  11.364  2.5416  1.0448  2.7577
 5464TIP3    H237808   3.128   1.183  11.423 -0.0695 -0.3880 -0.2190
 5465TIP3   OH237809   2.020   6.377  17.055  0.0925 -0.5769 -0.0872
 5465TIP3    H137810   2.042   6.451  16.998 -0.4608  0.7173  1.3675
 5465TIP3    H237811   2.100   6.361  17.105  0.5607 -1.6806 -1.1564
 5466TIP3   OH237812   0.280   3.476  15.386  0.0015  0.8675  0.2243
 5466TIP3    H137813   0.311   3.470  15.476  0.6103  0.2177 -0.0227
 5466TIP3    H237814   0.329   3.408  15.340  0.2101  1.6646 -0.7417
 5467TIP3   OH237815   6.284   3.201   1.526 -0.8937 -0.0483 -0.1023
 5467TIP3    H137816   6.214   3.142   1.497 -0.9490  0.1511 -0.3677
 5467TIP3    H237817   6.303   3.256   1.451  0.8147 -1.3091 -0.6387
 5468TIP3   OH237818   6.591   5.892   5.826  0.1326  0.0921  0.7792
 5468TIP3    H137819   6.528   5.874   5.896 -1.2518 -1.4078 -0.8133
 5468TIP3    H237820   6.664   5.832   5.845 -0.4864 -0.7153  0.6045
 5469TIP3   OH237821   2.303   3.851   5.003  0.0265 -0.0995 -0.7328
 5469TIP3    H137822   2.388   3.879   4.970  0.5204  0.7259  1.1573
 5469TIP3    H237823   2.261   3.933   5.032  0.6134 -0.9812  2.9070
 5470TIP3   OH237824   5.391   1.465   0.477 -0.1079  0.2680  0.4659
 5470TIP3    H137825   5.313   1.427   0.435 -1.2260  0.7735  2.0534
 5470TIP3    H237826   5.410   1.543   0.425 -1.9070  1.2803  1.2811
 5471TIP3   OH237827   1.493   5.414   3.735 -0.7098  0.0383 -0.4897
 5471TIP3    H137828   1.414   5.434   3.685  0.2297  1.2731 -1.4992
 5471TIP3    H237829   1.535   5.343   3.685 -0.4565  0.3518 -0.7206
 5472TIP3   OH237830   2.285   2.641   5.155 -0.2752  0.4526  0.2044
 5472TIP3    H137831   2.291   2.711   5.089 -1.2683  0.3318 -0.0218
 5472TIP3    H237832   2.332   2.676   5.231 -0.3531  1.1798 -0.0754
 5473TIP3   OH237833   2.391   4.566   0.842  0.6147  0.0713 -0.0049
 5473TIP3    H137834   2.422   4.651   0.811 -0.6238  0.5085 -0.0625
 5473TIP3    H237835   2.349   4.585   0.926 -2.0290 -0.0420 -1.2574
 5474TIP3   OH237836   5.000   3.682  14.508 -0.3507  0.3756 -0.7277
 5474TIP3    H137837   4.978   3.589  14.503 -1.0459  0.3569  1.8893
 5474TIP3    H237838   4.940   3.717  14.574  0.4658  2.5031 -1.0901
 5475TIP3   OH237839   0.119   0.805   2.597 -0.1762  0.3562 -0.4635
 5475TIP3    H137840   0.049   0.844   2.649  1.3607 -0.3586  2.2225
 5475TIP3    H237841   0.145   0.874   2.537 -0.5973  1.9083  1.0996
 5476TIP3   OH237842   2.752   3.183  12.348 -0.5473  0.2555  0.7033
 5476TIP3    H137843   2.809   3.256  12.325 -0.1152  0.0102  1.0007
 5476TIP3    H237844   2.770   3.166  12.441  0.1475 -0.9286  0.3708
 5477TIP3   OH237845   5.998   0.195   4.422 -0.2667  0.1928 -0.3531
 5477TIP3    H137846   5.995   0.113   4.373  0.3996 -0.6547  1.0212
 5477TIP3    H237847   6.090   0.207   4.444 -0.6860  0.0332  1.5666
 5478TIP3   OH237848   5.413   0.452  15.007 -0.0869  0.0973  0.1660
 5478TIP3    H137849   5.363   0.393  15.064 -0.3198 -0.6063 -0.7355
 5478TIP3    H237850   5.368   0.536  15.013  1.2317  0.6495  2.7540
 5479TIP3   OH237851   2.494   6.245  14.380 -0.1102  0.3129  0.1817
 5479TIP3    H137852   2.463   6.155  14.369 -1.9771  0.7401  1.5939
 5479TIP3    H237853   2.505   6.255  14.475  2.4648  0.8416 -0.1377
 5480TIP3   OH237854   0.520   5.337  11.444 -0.4885 -0.1521 -0.0627
 5480TIP3    H137855   0.591   5.373  11.391  0.7555 -0.1115  1.5728
 5480TIP3    H237856   0.511   5.246  11.415  1.8021 -0.8412  1.2651
 5481TIP3   OH237857   2.782   6.750  16.172  0.1742 -0.2103 -0.6553
 5481TIP3    H137858   2.778   6.655  16.158  1.7239 -0.3450 -0.3091
 5481TIP3    H237859   2.733   6.788  16.100 -0.8747 -1.3006 -0.5225
 5482TIP3   OH237860   4.612   0.410  13.321  0.3514  0.1968  0.0381
 5482TIP3    H137861   4.590   0.480  13.259  0.0257  0.6666  0.6805
 5482TIP3    H237862   4.527   0.372  13.344  0.3639  0.7511  1.0435
 5483TIP3   OH237863   4.580   1.937   4.532 -0.1681  0.1633  0.4152
 5483TIP3    H137864   4.598   1.935   4.625 -1.2684  0.6983  0.6511
 5483TIP3    H237865   4.571   1.844   4.507 -0.6286  0.0442  0.9990
 5484TIP3   OH237866   0.600   6.232  10.378 -0.5061  0.5324 -0.1646
 5484TIP3    H137867   0.690   6.248  10.351  0.1238  0.2240  1.6772
 5484TIP3    H237868   0.589   6.285  10.457 -1.5306 -0.4307  0.3532
 5485TIP3   OH237869   6.150   3.602  12.205  0.1672 -0.3948  0.0628
 5485TIP3    H137870   6.120   3.547  12.277 -0.4778 -2.8443 -2.0188
 5485TIP3    H237871   6.069   3.636  12.166  0.5256  1.2792  0.7392
 5486TIP3   OH237872   4.089   2.267  12.730  0.1883  0.3288  0.2784
 5486TIP3    H137873   4.088   2.273  12.634  0.0256 -0.0934  0.2503
 5486TIP3    H237874   4.090   2.173  12.748  1.4850  0.4111  0.6868
 5487TIP3   OH237875   4.704   0.276  10.697 -0.4798 -0.2543 -0.1336
 5487TIP3    H137876   4.654   0.215  10.642 -0.6565 -0.2260 -0.0036
 5487TIP3    H237877   4.788   0.233  10.710 -0.8037 -0.7204  0.4218
 5488TIP3   OH237878   2.803   1.542  12.453  0.0788 -0.2569  0.4928
 5488TIP3    H137879   2.734   1.544  12.387  0.6133  2.1145 -0.0115
 5488TIP3    H237880   2.851   1.461  12.435 -1.7849 -1.2785  0.0584
 5489TIP3   OH237881   5.699   2.225  12.525 -0.4049 -0.5243 -0.0950
 5489TIP3    H137882   5.632   2.265  12.469 -1.1392 -0.1168  1.0670
 5489TIP3    H237883   5.700   2.133  12.498 -1.1849 -0.4595 -0.3683
 5490TIP3   OH237884   4.143   6.184  14.216  0.3219  0.3944 -0.6620
 5490TIP3    H137885   4.182   6.200  14.301 -0.2820  0.6486 -0.4303
 5490TIP3    H237886   4.099   6.099  14.224 -1.1613  1.1783 -0.1912
 5491TIP3   OH237887   1.004   5.502   4.513  0.3868 -0.0870  0.1770
 5491TIP3    H137888   0.949   5.435   4.554  0.1973  0.1907  0.3701
 5491TIP3    H237889   1.008   5.573   4.577  0.1665  0.3096 -0.2533
 5492TIP3   OH237890   2.566   2.721  16.210  0.2344 -0.1523 -0.3006
 5492TIP3    H137891   2.634   2.772  16.167  1.2121 -0.2101  1.1402
 5492TIP3    H237892   2.492   2.781  16.217  0.3836  0.1494 -1.1999
 5493TIP3   OH237893   1.769   5.588  12.108 -0.2004  0.2389  0.2697
 5493TIP3    H137894   1.718   5.668  12.096  1.3525  1.2003  0.0162
 5493TIP3    H237895   1.703   5.518  12.111 -1.4610  1.3289 -1.1898
 5494TIP3   OH237896   5.925   0.276   2.753 -0.4962 -0.2506 -0.3877
 5494TIP3    H137897   5.833   0.274   2.725 -0.1613  0.3501 -1.5548
 5494TIP3    H237898   5.921   0.311   2.842 -1.1883  2.6286 -1.4661
 5495TIP3   OH237899   5.754   0.831  12.896 -0.2727 -0.2522 -0.1607
 5495TIP3    H137900   5.685   0.820  12.830  0.7242 -2.4028 -0.8800
 5495TIP3    H237901   5.753   0.750  12.946  2.3095 -0.7083 -0.7504
 5496TIP3   OH237902   0.558   5.807   1.813 -0.3941  0.4710  0.0722
 5496TIP3    H137903   0.545   5.712   1.814  0.5737  0.3294 -1.0906
 5496TIP3    H237904   0.595   5.827   1.899 -0.6214 -0.1923  0.3276
 5497TIP3   OH237905   6.674   0.434  14.488  0.1739  0.4592 -0.0644
 5497TIP3    H137906   6.717   0.508  14.531  0.1618  1.4723 -1.7748
 5497TIP3    H237907   6.597   0.416  14.542 -0.1269  2.0544  0.0422
 5498TIP3   OH237908   0.620   0.883  11.093  0.5895  0.1537  0.3757
 5498TIP3    H137909   0.583   0.972  11.092  1.1517  0.3853 -1.3388
 5498TIP3    H237910   0.714   0.896  11.096  0.6989 -0.3788 -0.7435
 5499TIP3   OH237911   1.728   2.735   1.229  0.5191  0.7307 -0.6524
 5499TIP3    H137912   1.803   2.775   1.184  1.9513 -0.2200  0.8694
 5499TIP3    H237913   1.721   2.783   1.312  0.2847 -0.1010 -0.1920
 5500TIP3   OH237914   6.272   1.426  10.998 -0.1347 -0.0091 -0.4320
 5500TIP3    H137915   6.287   1.359  10.931 -1.3025 -0.8126  0.1017
 5500TIP3    H237916   6.268   1.508  10.948 -0.9980 -0.5963 -1.3555
 5501TIP3   OH237917   3.269   0.661  15.130  0.3335  0.0110 -0.5410
 5501TIP3    H137918   3.319   0.738  15.103 -1.0692  1.1610  0.0328
 5501TIP3    H237919   3.319   0.587  15.098  0.7809  1.2104 -2.7250
 5502TIP3   OH237920   4.486   4.051  16.510 -0.2837 -0.0135  0.1976
 5502TIP3    H137921   4.573   4.087  16.493 -0.8933  0.1515 -2.8639
 5502TIP3    H237922   4.498   3.956  16.502 -0.1349 -0.0648  1.0251
 5503TIP3   OH237923   4.066   5.310   1.291  0.2313  0.4969  0.4346
 5503TIP3    H137924   4.032   5.262   1.215 -1.0984 -0.1325  1.4183
 5503TIP3    H237925   4.154   5.337   1.263  0.1071 -0.4746 -1.0151
 5504TIP3   OH237926   5.347   5.841   3.621 -0.0845 -0.0848  0.1574
 5504TIP3    H137927   5.390   5.906   3.676  0.7055 -0.9578  0.5796
 5504TIP3    H237928   5.370   5.866   3.531  0.9895 -0.3194  0.3601
 5505TIP3   OH237929   6.546   2.024  12.749 -0.1072 -0.2911  0.5063
 5505TIP3    H137930   6.453   2.002  12.752 -0.4103  0.7541 -0.6364
 5505TIP3    H237931   6.579   2.004  12.836 -1.0573 -2.1467  0.4661
 5506TIP3   OH237932   1.530   6.088   1.288 -0.1081  0.4464  0.1877
 5506TIP3    H137933   1.572   6.089   1.374 -0.3815 -0.7377  0.3411
 5506TIP3    H237934   1.460   6.153   1.295 -1.1327 -0.7553  1.3867
 5507TIP3   OH237935   5.791   3.446  11.917 -0.4616  0.1517 -0.0485
 5507TIP3    H137936   5.802   3.514  11.984  0.1552  0.2427 -0.2334
 5507TIP3    H237937   5.702   3.415  11.928  0.7897 -2.5489  3.4129
 5508TIP3   OH237938   1.191   1.301  13.152 -0.0788  0.2975 -0.1571
 5508TIP3    H137939   1.266   1.331  13.203 -1.1684  1.9300  0.5350
 5508TIP3    H237940   1.187   1.361  13.078 -0.2625 -0.2382 -0.5807
 5509TIP3   OH237941   5.386   3.574  15.379 -0.4187 -0.1691 -0.0168
 5509TIP3    H137942   5.341   3.655  15.401  0.9359  0.6558 -0.2403
 5509TIP3    H237943   5.360   3.554  15.290 -1.6421 -0.6021  0.4256
 5510TIP3   OH237944   2.590   3.062  11.828  0.1654 -0.0154  0.0267
 5510TIP3    H137945   2.595   3.147  11.871  1.2782  0.4225 -0.9427
 5510TIP3    H237946   2.657   3.065  11.760 -0.3355 -1.3638 -0.5559
 5511TIP3   OH237947   0.338   1.963   4.008  0.0540 -0.1130  0.3680
 5511TIP3    H137948   0.358   1.979   3.915 -0.7950 -1.3436 -0.0350
 5511TIP3    H237949   0.245   1.982   4.015 -0.1854 -1.3828  0.6637
 5512TIP3   OH237950   2.079   1.842  16.661  0.1103 -0.1016 -0.7425
 5512TIP3    H137951   2.045   1.777  16.600  2.6054 -1.4784 -0.7106
 5512TIP3    H237952   2.112   1.913  16.605 -1.7100  0.7365 -0.8010
 5513TIP3   OH237953   5.904   4.746  15.201 -0.2111 -0.9963 -0.3398
 5513TIP3    H137954   5.838   4.694  15.247 -1.2232  0.4113 -0.1930
 5513TIP3    H237955   5.932   4.811  15.266 -0.2589 -0.2204 -1.0948
 5514TIP3   OH237956   2.107   5.524   2.343 -0.5256  0.5418 -0.5308
 5514TIP3    H137957   2.116   5.616   2.367 -1.8434  0.8492 -1.1327
 5514TIP3    H237958   2.046   5.525   2.269  1.4334 -0.5927 -2.2269
 5515TIP3   OH237959   0.991   0.645  13.966  0.0213  0.2775  0.4051
 5515TIP3    H137960   0.956   0.700  13.897 -0.0797  0.6929  0.7878
 5515TIP3    H237961   1.086   0.649  13.954 -0.0604 -1.8471 -1.4143
 5516TIP3   OH237962   4.040   4.345   2.874  0.3326 -0.2075 -0.1996
 5516TIP3    H137963   4.046   4.432   2.913 -2.7684 -0.7339  1.6870
 5516TIP3    H237964   4.090   4.289   2.932 -0.6662 -0.2507  0.6397
 5517TIP3   OH237965   2.626   0.605   0.365 -0.0952 -0.0143 -0.1617
 5517TIP3    H137966   2.578   0.567   0.292  0.0976 -1.0014  0.2199
 5517TIP3    H237967   2.709   0.557   0.366 -0.0627  0.0549  0.6422
 5518TIP3   OH237968   4.238   5.722  12.266  0.0192  0.1454 -0.0474
 5518TIP3    H137969   4.258   5.816  12.274  0.1338  0.0561  0.8048
 5518TIP3    H237970   4.145   5.715  12.290 -0.3809  0.2254 -1.5213
 5519TIP3   OH237971   1.913   2.046  11.232 -0.3354 -0.1922  0.1255
 5519TIP3    H137972   1.931   1.961  11.190 -0.6765 -0.0188 -0.3733
 5519TIP3    H237973   1.819   2.046  11.247 -0.2653 -0.1008  0.5702
 5520TIP3   OH237974   3.564   0.997   0.212 -0.0530 -0.6900 -0.8173
 5520TIP3    H137975   3.496   0.964   0.153 -0.5402  1.1661 -1.3325
 5520TIP3    H237976   3.535   1.086   0.234  3.2051  0.8794 -2.6324
 5521TIP3   OH237977   1.275   1.221  13.599 -0.0443 -0.1253 -0.1357
 5521TIP3    H137978   1.253   1.315  13.602  0.5246 -0.0454  2.7456
 5521TIP3    H237979   1.362   1.218  13.560 -0.4318  0.4784 -1.0536
 5522TIP3   OH237980   3.614   6.636  14.310  0.1985 -0.3616 -0.9327
 5522TIP3    H137981   3.662   6.580  14.249 -0.6274 -0.8792 -1.1052
 5522TIP3    H237982   3.672   6.711  14.324  0.9937 -0.9107 -1.2626
 5523TIP3   OH237983   4.505   4.134   4.256  0.6683  0.1496 -0.2908
 5523TIP3    H137984   4.457   4.118   4.175 -2.4879  4.7458  0.4670
 5523TIP3    H237985   4.481   4.061   4.313 -1.1245 -0.4964 -1.8096
 5524TIP3   OH237986   3.286   2.972  10.928  0.4808  0.9510 -0.0540
 5524TIP3    H137987   3.293   3.006  10.839  0.6471  2.1454  0.4143
 5524TIP3    H237988   3.192   2.961  10.942  0.4762  0.2624 -0.5480
 5525TIP3   OH237989   6.142   6.713   2.950 -0.0983  0.5567 -0.7998
 5525TIP3    H137990   6.056   6.729   2.912 -0.5913 -2.3896 -1.0344
 5525TIP3    H237991   6.168   6.627   2.916  1.9416  0.4010  1.0261
 5526TIP3   OH237992   1.820   6.586   1.822  0.0649  0.1470 -0.1826
 5526TIP3    H137993   1.859   6.584   1.735  0.9029  0.4889  0.1748
 5526TIP3    H237994   1.731   6.553   1.810 -0.2436  1.3843 -1.3765
 5527TIP3   OH237995   2.613   5.332  11.007  0.0427  0.3771 -0.4169
 5527TIP3    H137996   2.627   5.302  10.917  0.5290  0.3491 -0.3332
 5527TIP3    H237997   2.568   5.259  11.050  0.0333  0.2933 -0.5667
 5528TIP3   OH237998   3.175   5.001  13.559  0.2248 -0.0998 -0.2970
 5528TIP3    H137999   3.200   4.938  13.492 -0.9976 -0.9716  0.0470
 5528TIP3    H238000   3.081   5.013  13.547  0.0791  0.0906  0.9646
 5529TIP3   OH238001   3.191   1.799  15.309  0.1361  0.3901 -0.1331
 5529TIP3    H138002   3.207   1.890  15.333 -0.3515  0.5386 -0.3667
 5529TIP3    H238003   3.260   1.750  15.354 -0.4178  0.7298  1.1339
 5530TIP3   OH238004   6.665   3.388  12.962 -0.0029  0.3568  0.8982
 5530TIP3    H138005   6.691   3.459  13.021  0.4088  0.2304  0.8655
 5530TIP3    H238006   6.572   3.375  12.981 -0.0986  0.9508  0.8611
 5531TIP3   OH238007   4.423   3.217   1.712  0.7828  0.1533 -0.3016
 5531TIP3    H138008   4.494   3.240   1.653 -0.8086  0.8689 -2.0046
 5531TIP3    H238009   4.414   3.292   1.771  2.8672 -0.8785  1.3849
 5532TIP3   OH238010   0.491   5.757  11.163  0.2938 -0.0898 -0.8679
 5532TIP3    H138011   0.560   5.791  11.220  0.6321  2.9579 -2.9987
 5532TIP3    H238012   0.412   5.761  11.216  0.8950  1.1298 -0.0503
 5533TIP3   OH238013   1.183   6.350   5.774  0.0035 -0.0081 -0.0159
 5533TIP3    H138014   1.217   6.439   5.777  0.9249 -0.3425 -0.3431
 5533TIP3    H238015   1.209   6.311   5.857  3.1154 -1.2117 -1.4683
 5534TIP3   OH238016   2.373   0.850  11.748 -0.8850 -0.4524  0.6965
 5534TIP3    H138017   2.410   0.767  11.718  0.7482  0.1365  1.0433
 5534TIP3    H238018   2.436   0.882  11.812 -1.4109  1.1498  0.4268
 5535TIP3   OH238019   0.134   1.371  16.281  0.3766  0.0167 -0.2782
 5535TIP3    H138020   0.154   1.403  16.369  1.3172 -2.7325  0.5372
 5535TIP3    H238021   0.212   1.321  16.255 -0.6630 -0.8034 -1.9012
 5536TIP3   OH238022   2.870   1.785  12.524  0.0776  0.4069  0.4604
 5536TIP3    H138023   2.901   1.762  12.612 -0.3259  2.5676  1.1877
 5536TIP3    H238024   2.861   1.701  12.480 -0.4280 -0.7746  2.7274
 5537TIP3   OH238025   5.990   1.549  10.574 -0.0254  0.2243 -0.2818
 5537TIP3    H138026   5.921   1.603  10.612  0.3942 -0.6771  1.8686
 5537TIP3    H238027   6.071   1.594  10.598  0.2806 -0.7776  0.5895
 5538TIP3   OH238028   5.528   3.442  16.530 -0.6591  0.3226  0.4948
 5538TIP3    H138029   5.558   3.532  16.520  1.5023 -0.4366 -0.2150
 5538TIP3    H238030   5.480   3.423  16.450  1.2526 -0.0254 -0.5830
 5539TIP3   OH238031   5.135   2.358   4.817 -0.1120 -0.0380 -0.5210
 5539TIP3    H138032   5.136   2.368   4.722  1.1847 -0.0211 -0.5141
 5539TIP3    H238033   5.048   2.326   4.837 -1.7506  3.6192 -1.3358
 5540TIP3   OH238034   3.082   2.072  15.620  0.8235  0.0509  0.3920
 5540TIP3    H138035   3.031   2.105  15.694  1.6138 -0.3353  1.1177
 5540TIP3    H238036   3.174   2.081  15.648  1.1254 -0.1506 -0.5159
 5541TIP3   OH238037   3.894   2.357   1.150 -0.4547 -0.0815 -0.1112
 5541TIP3    H138038   3.949   2.370   1.228 -0.4740  1.1582 -0.3067
 5541TIP3    H238039   3.805   2.369   1.182 -0.3947  1.7348 -0.5818
 5542TIP3   OH238040   6.299   1.570  16.560 -0.3976 -0.0667  0.1354
 5542TIP3    H138041   6.314   1.619  16.641  0.3145 -1.6648  1.0100
 5542TIP3    H238042   6.377   1.586  16.507  0.4768 -1.3289  1.0017
 5543TIP3   OH238043   6.768   0.452   3.450 -0.4507  0.4825  0.0790
 5543TIP3    H138044   6.734   0.379   3.502  0.9721 -0.7754 -0.7019
 5543TIP3    H238045   6.702   0.464   3.381 -0.3658 -0.5246 -0.1900
 5544TIP3   OH238046   0.218   2.610   3.659  0.2376  0.3988 -0.1253
 5544TIP3    H138047   0.276   2.565   3.598  1.9462  0.5508  1.3504
 5544TIP3    H238048   0.133   2.570   3.645  1.0822 -1.1365 -0.9988
 5545TIP3   OH238049   1.023   2.680   5.794 -0.6921  0.1436 -0.0286
 5545TIP3    H138050   1.071   2.651   5.871 -1.9777 -1.1969  0.2916
 5545TIP3    H238051   0.937   2.637   5.801 -1.4939  1.4885 -1.2272
 5546TIP3   OH238052   3.769   2.033   5.394 -0.0042 -0.2132  0.3333
 5546TIP3    H138053   3.678   2.008   5.403 -0.4652  1.3679  0.3020
 5546TIP3    H238054   3.777   2.065   5.304 -0.1786  2.4844  1.2328
 5547TIP3   OH238055   4.050   5.497  12.159 -0.4153  0.3536 -0.4228
 5547TIP3    H138056   3.978   5.441  12.130 -1.8046  2.2439 -0.7326
 5547TIP3    H238057   4.040   5.501  12.254 -0.1452 -0.1575 -0.3733
 5548TIP3   OH238058   4.738   1.233  17.077 -0.1294 -0.2845 -0.2919
 5548TIP3    H138059   4.813   1.215  17.021 -0.3187 -0.4715 -0.4834
 5548TIP3    H238060   4.766   1.307  17.132  0.8401 -1.4915  0.8700
 5549TIP3   OH238061   3.371   4.495  14.491 -0.3000  0.1676 -0.1177
 5549TIP3    H138062   3.277   4.500  14.474 -0.3733  1.0006  0.5401
 5549TIP3    H238063   3.390   4.401  14.491 -1.2317 -0.0270  0.3145
 5550TIP3   OH238064   1.063   3.186  10.476 -0.2616 -0.0297  1.0420
 5550TIP3    H138065   0.976   3.225  10.475  0.0025  0.5558 -0.4283
 5550TIP3    H238066   1.120   3.253  10.514  0.0675  0.7745 -0.8253
 5551TIP3   OH238067   4.649   2.347  16.926  0.1847 -0.0320  0.4528
 5551TIP3    H138068   4.571   2.360  16.980 -0.4252 -1.3773 -0.0715
 5551TIP3    H238069   4.615   2.317  16.841  1.2634 -0.6758  0.2289
 5552TIP3   OH238070   3.712   0.439   2.765 -0.4247 -0.3045 -0.4524
 5552TIP3    H138071   3.741   0.348   2.766  0.2018 -0.1102 -0.7593
 5552TIP3    H238072   3.649   0.445   2.837 -0.0576 -0.8428 -0.0868
 5553TIP3   OH238073   2.749   4.522  11.327  0.1564  0.0592  0.3229
 5553TIP3    H138074   2.654   4.515  11.337 -0.0634  0.3651 -1.4077
 5553TIP3    H238075   2.761   4.559  11.239  1.9480 -2.4697 -0.5545
 5554TIP3   OH238076   5.576   2.226  16.010 -0.0102  0.2230 -0.0578
 5554TIP3    H138077   5.539   2.139  16.023  0.1426  0.2458  0.5711
 5554TIP3    H238078   5.509   2.274  15.963 -0.5237  0.0779  0.5241
 5555TIP3   OH238079   0.560   4.154   4.656  0.2903 -0.2187  0.2713
 5555TIP3    H138080   0.551   4.205   4.737 -0.4037  1.3525 -0.7662
 5555TIP3    H238081   0.533   4.215   4.587  0.8085 -1.5675 -1.1327
 5556TIP3   OH238082   5.592   2.980  16.573  0.1019  0.7316 -0.5579
 5556TIP3    H138083   5.639   3.016  16.497  0.4519  0.2871 -0.5507
 5556TIP3    H238084   5.661   2.948  16.631 -0.1923  0.5357 -0.3188
 5557TIP3   OH238085   2.646   2.516  12.972  0.1959  0.1429  0.4654
 5557TIP3    H138086   2.653   2.465  13.052 -4.1539  1.1941  1.6731
 5557TIP3    H238087   2.664   2.606  12.998  0.3536  0.2672 -0.0613
 5558TIP3   OH238088   2.284   3.987  16.315 -0.9150 -0.2932  0.2338
 5558TIP3    H138089   2.212   3.931  16.287 -0.5525 -0.7317  0.1753
 5558TIP3    H238090   2.302   3.959  16.405 -0.6530 -0.3556  0.1624
 5559TIP3   OH238091   0.625   4.114  12.623  0.3332 -0.1043 -0.3711
 5559TIP3    H138092   0.619   4.163  12.540  2.5919  1.4352  0.3445
 5559TIP3    H238093   0.630   4.022  12.596  0.8066  0.3668 -1.9496
 5560TIP3   OH238094   3.891   5.733  15.339  0.5621  0.5401 -0.3107
 5560TIP3    H138095   3.936   5.778  15.410  1.5961 -0.3990 -0.3562
 5560TIP3    H238096   3.960   5.715  15.274 -0.2654  0.9144 -1.3173
 5561TIP3   OH238097   3.613   6.604  13.562 -0.2131  0.0241 -0.2937
 5561TIP3    H138098   3.632   6.570  13.474 -0.9040  0.1991 -0.5117
 5561TIP3    H238099   3.520   6.588  13.574  0.0230 -0.6663  0.7021
 5562TIP3   OH238100   2.030   5.626   0.766 -0.0546  0.3116  0.1560
 5562TIP3    H138101   2.094   5.680   0.813  1.7057 -1.9120  0.4593
 5562TIP3    H238102   1.951   5.631   0.818  1.4360 -0.9407  2.6498
 5563TIP3   OH238103   2.533   0.914  10.844 -0.2723  0.0276 -0.0638
 5563TIP3    H138104   2.620   0.877  10.830 -1.1081 -2.0002 -0.0761
 5563TIP3    H238105   2.532   0.994  10.791  1.3722 -0.2513 -0.5302
 5564TIP3   OH238106   5.307   0.172  11.022  0.0455 -0.1787  0.1516
 5564TIP3    H138107   5.300   0.138  11.111  1.0210  1.5916  0.9275
 5564TIP3    H238108   5.265   0.258  11.025 -2.6426 -1.3495 -1.8578
 5565TIP3   OH238109   0.320   3.147   1.512 -0.1120  0.7212 -0.0602
 5565TIP3    H138110   0.334   3.053   1.520  0.2699  0.7909  0.1097
 5565TIP3    H238111   0.234   3.162   1.550 -0.0694  0.4715  0.1359
 5566TIP3   OH238112   6.298   1.823   5.540  0.4556 -0.2088 -0.0862
 5566TIP3    H138113   6.203   1.837   5.542  0.8258  2.5064  2.7285
 5566TIP3    H238114   6.321   1.825   5.447 -1.8649  2.1321 -0.6816
 5567TIP3   OH238115   4.539   1.881   3.297  0.4518 -0.0180 -0.2576
 5567TIP3    H138116   4.464   1.939   3.301  1.2196  1.1576 -2.0864
 5567TIP3    H238117   4.598   1.923   3.234  3.1712 -0.2677  2.0090
 5568TIP3   OH238118   5.714   5.031   0.946 -0.3296  0.5876  0.2803
 5568TIP3    H138119   5.696   5.044   1.039 -0.8576  1.1557  0.1016
 5568TIP3    H238120   5.711   4.936   0.934  2.5966  0.2990  1.4081
 5569TIP3   OH238121   2.809   2.616  16.996 -0.0589  0.4773  0.0748
 5569TIP3    H138122   2.855   2.549  16.945  0.7890  0.6921  0.5492
 5569TIP3    H238123   2.769   2.568  17.068 -0.2524  0.3478 -0.1164
 5570TIP3   OH238124   0.391   1.589  12.612 -0.0563 -0.6997 -0.6630
 5570TIP3    H138125   0.394   1.610  12.518 -0.9907  1.0816 -0.3148
 5570TIP3    H238126   0.376   1.673  12.655  0.8469 -1.4213  1.1361
 5571TIP3   OH238127   2.589   0.880   0.234  0.3635  0.5598  0.0154
 5571TIP3    H138128   2.596   0.812   0.302  0.4871  0.5173 -0.0391
 5571TIP3    H238129   2.669   0.870   0.182  0.3166  0.6585 -0.0759
 5572TIP3   OH238130   3.305   5.164  15.191 -0.2279  0.3150 -0.5330
 5572TIP3    H138131   3.367   5.183  15.120 -0.4067  0.9389 -0.5257
 5572TIP3    H238132   3.355   5.110  15.252  0.0786  0.1850 -0.8947
 5573TIP3   OH238133   5.585   5.105   5.314 -0.0306 -0.0146  0.0966
 5573TIP3    H138134   5.590   5.126   5.221 -1.5252  0.3761  0.0857
 5573TIP3    H238135   5.607   5.012   5.319 -0.5290 -0.1789 -0.7178
 5574TIP3   OH238136   2.639   5.433   5.358  0.2960 -0.3952  0.2076
 5574TIP3    H138137   2.582   5.424   5.434 -2.4732 -0.3169 -1.7537
 5574TIP3    H238138   2.678   5.520   5.368  0.2762 -0.5531  1.7354
 5575TIP3   OH238139   1.604   5.895   2.653  0.3867  0.1044 -0.6488
 5575TIP3    H138140   1.689   5.879   2.693  0.2019 -0.7418 -0.5936
 5575TIP3    H238141   1.595   5.990   2.653  0.6207  0.1323  0.8162
 5576TIP3   OH238142   4.638   6.135  13.156  0.5524  0.1883 -0.3772
 5576TIP3    H138143   4.579   6.091  13.218 -0.4077 -0.7643 -1.9173
 5576TIP3    H238144   4.615   6.096  13.071  1.6210  1.6981 -1.3637
 5577TIP3   OH238145   6.144   1.299   4.723  0.3955  0.0485 -0.1501
 5577TIP3    H138146   6.219   1.239   4.726 -0.2519 -0.8390 -1.4132
 5577TIP3    H238147   6.151   1.342   4.638 -0.1081  0.5430  0.0536
 5578TIP3   OH238148   5.002   5.251  15.718 -0.2074 -0.8705  0.2489
 5578TIP3    H138149   4.957   5.183  15.668 -0.2602 -0.5537 -0.1347
 5578TIP3    H238150   5.095   5.234  15.704 -0.1950 -1.8237  1.4458
 5579TIP3   OH238151   3.898   6.479  12.013  0.5122  0.0250  0.0281
 5579TIP3    H138152   3.923   6.409  11.952  0.7397 -1.1670  1.4712
 5579TIP3    H238153   3.962   6.474  12.083  0.0433  1.1659  0.5498
 5580TIP3   OH238154   3.474   0.851  14.549 -0.1739 -0.1848 -0.2247
 5580TIP3    H138155   3.490   0.775  14.493  2.8346  0.0436  0.2822
 5580TIP3    H238156   3.551   0.907  14.538  0.0185  0.3725  3.2968
 5581TIP3   OH238157   0.400   2.376   5.878 -0.2466  0.2632  0.3178
 5581TIP3    H138158   0.322   2.331   5.911 -0.5084  0.6425  0.2106
 5581TIP3    H238159   0.467   2.360   5.945 -0.3309 -0.2981  0.2771
 5582TIP3   OH238160   5.871   1.024  10.995 -0.4081  0.5973  0.3831
 5582TIP3    H138161   5.856   1.041  10.902 -0.5999 -0.5409  0.1951
 5582TIP3    H238162   5.936   0.954  10.996  1.2720  2.1484  1.1471
 5583TIP3   OH238163   0.582   1.228   2.490  0.1197 -0.3811 -0.1306
 5583TIP3    H138164   0.605   1.191   2.404  1.2563  0.0325 -0.0225
 5583TIP3    H238165   0.512   1.171   2.523 -2.0859  0.9547 -2.3975
 5584TIP3   OH238166   1.378   2.950   5.559 -0.3769 -0.2596 -0.1716
 5584TIP3    H138167   1.358   3.017   5.493 -0.4080 -0.9468 -0.8642
 5584TIP3    H238168   1.439   2.993   5.619 -0.3517  0.3726 -0.6415
 5585TIP3   OH238169   4.303   2.935   3.962  0.1162  0.1851  0.1333
 5585TIP3    H138170   4.367   2.896   4.022 -0.4388 -0.1857  0.5052
 5585TIP3    H238171   4.266   3.008   4.011  0.2202  0.3646 -0.0582
 5586TIP3   OH238172   1.569   1.874  15.279 -0.0262  0.0630  0.2163
 5586TIP3    H138173   1.575   1.955  15.229  1.7250 -0.1863 -0.0374
 5586TIP3    H238174   1.602   1.897  15.366  1.0296 -0.4866 -0.0256
 5587TIP3   OH238175   3.685   6.186   2.601 -0.1493 -0.2975  0.4457
 5587TIP3    H138176   3.735   6.112   2.567 -0.1127 -0.0971  0.0551
 5587TIP3    H238177   3.627   6.211   2.529  0.5378  0.6807  0.2176
 5588TIP3   OH238178   5.652   4.819  14.532  0.1316 -0.0339 -0.1041
 5588TIP3    H138179   5.733   4.869  14.521  0.5262 -0.1400  2.1481
 5588TIP3    H238180   5.617   4.848  14.616 -0.3965 -2.4726  0.5574
 5589TIP3   OH238181   1.716   2.928  15.091 -0.1481  0.2090 -0.0798
 5589TIP3    H138182   1.788   2.990  15.098 -0.0191 -0.0088  0.5287
 5589TIP3    H238183   1.758   2.842  15.089 -0.4507  0.0257  1.3566
 5590TIP3   OH238184   3.775   2.609  16.148 -0.0992  0.2760  0.1843
 5590TIP3    H138185   3.784   2.673  16.219  0.0740 -1.9843  2.2561
 5590TIP3    H238186   3.861   2.569  16.141  0.3676  1.6952 -2.5338
 5591TIP3   OH238187   0.923   5.239   1.270 -0.0582  0.1802  0.1057
 5591TIP3    H138188   0.985   5.228   1.343  0.8215  2.4034 -0.2582
 5591TIP3    H238189   0.978   5.253   1.194 -1.0046  1.1209 -0.4138
 5592TIP3   OH238190   3.315   4.562   2.028 -0.8585 -0.7939  0.6068
 5592TIP3    H138191   3.359   4.477   2.024 -0.7758 -0.8018  1.4939
 5592TIP3    H238192   3.227   4.542   2.058 -0.7616 -0.5493  1.0685
 5593TIP3   OH238193   6.170   1.234  16.855 -0.2365 -0.0547  0.0249
 5593TIP3    H138194   6.120   1.314  16.866 -0.5898 -0.2087 -0.4698
 5593TIP3    H238195   6.246   1.245  16.912  0.4766  1.2500 -1.1519
 5594TIP3   OH238196   5.969   0.999  16.862 -0.0696  0.2415  0.3380
 5594TIP3    H138197   5.984   0.913  16.902 -2.5126 -0.4317 -0.1110
 5594TIP3    H238198   6.037   1.055  16.900  1.2826 -1.7651  0.9839
 5595TIP3   OH238199   6.305   3.572   5.418  0.7700  0.9701 -0.0612
 5595TIP3    H138200   6.347   3.609   5.340  1.3863  1.4566  0.5017
 5595TIP3    H238201   6.342   3.621   5.491  0.8689 -0.1092  0.6180
 5596TIP3   OH238202   0.741   6.165  15.862  0.3689  0.1163  0.1049
 5596TIP3    H138203   0.800   6.221  15.912  1.4816 -1.9851  1.1901
 5596TIP3    H238204   0.697   6.112  15.928 -1.0905  0.1062 -0.8685
 5597TIP3   OH238205   5.713   2.827  12.785 -0.2451 -0.3274 -0.4607
 5597TIP3    H138206   5.805   2.835  12.810 -0.3776 -2.1635  0.7397
 5597TIP3    H238207   5.691   2.736  12.806 -2.6685  0.4395  0.4678
 5598TIP3   OH238208   5.486   6.231   0.736  0.1949  0.0930  0.7667
 5598TIP3    H138209   5.581   6.244   0.733 -0.0667  2.8963  2.3325
 5598TIP3    H238210   5.471   6.180   0.815  0.4625 -1.4179 -0.1359
 5599TIP3   OH238211   3.548   3.994   5.101 -0.1723 -0.7333 -0.8415
 5599TIP3    H138212   3.455   3.969   5.102 -0.3194 -0.1957  0.7718
 5599TIP3    H238213   3.595   3.912   5.090 -0.7628 -1.3029  0.8263
 5600TIP3   OH238214   6.725   3.690   0.300  0.3093  0.1231  0.0320
 5600TIP3    H138215   6.772   3.678   0.218  0.4728 -0.1760  0.1696
 5600TIP3    H238216   6.697   3.602   0.325 -0.2507  0.2862 -0.0073
 5601TIP3   OH238217   1.269   5.387   1.306  0.2354  0.4433  0.6057
 5601TIP3    H138218   1.222   5.323   1.253 -0.7998  2.2823 -0.7410
 5601TIP3    H238219   1.328   5.431   1.245  1.2450  0.5110  1.6024
 5602TIP3   OH238220   0.139   2.134   0.595  0.4676  0.6391 -0.2423
 5602TIP3    H138221   0.075   2.101   0.531  0.3143 -1.3223  0.8735
 5602TIP3    H238222   0.219   2.146   0.544 -0.1802  1.0032 -1.2065
 5603TIP3   OH238223   5.300   5.669   4.683  0.7731  0.5356  0.3103
 5603TIP3    H138224   5.266   5.582   4.703  0.9714  0.6948  1.3749
 5603TIP3    H238225   5.305   5.712   4.768  2.6911  0.8580  0.0476
 5604TIP3   OH238226   0.404   3.227   2.397  0.6612 -0.1207  0.4355
 5604TIP3    H138227   0.439   3.146   2.360  1.7688 -0.4249  2.0448
 5604TIP3    H238228   0.476   3.290   2.389 -0.0684  0.6074 -0.4729
 5605TIP3   OH238229   5.375   5.835  16.901  0.0756 -0.0823  0.3611
 5605TIP3    H138230   5.382   5.767  16.835  0.8756 -0.6386  1.0143
 5605TIP3    H238231   5.439   5.901  16.875  0.0806 -0.0981  0.3342
 5606TIP3   OH238232   4.261   2.976   1.250 -0.1186 -0.0175 -0.0221
 5606TIP3    H138233   4.313   2.984   1.329  0.1367 -2.5338  0.1153
 5606TIP3    H238234   4.235   2.884   1.248  0.5390 -0.1939 -3.2409
 5607TIP3   OH238235   1.507   3.817   2.150 -0.3447 -0.2919  0.2030
 5607TIP3    H138236   1.527   3.833   2.057 -0.1471 -2.4230 -0.1443
 5607TIP3    H238237   1.504   3.904   2.189 -0.1252  0.6172 -1.7517
 5608TIP3   OH238238   6.631   3.004  11.260 -0.4838 -0.7278  0.3950
 5608TIP3    H138239   6.681   3.081  11.233  1.4063 -1.4700  1.6622
 5608TIP3    H238240   6.555   3.039  11.307 -0.7851  0.4053 -0.9384
 5609TIP3   OH238241   0.900   1.680  11.541 -0.6525  0.6938 -0.6789
 5609TIP3    H138242   0.978   1.648  11.496 -0.5486 -0.1053  0.0567
 5609TIP3    H238243   0.922   1.768  11.570 -0.7810  1.2892 -2.3525
 5610TIP3   OH238244   1.491   0.104  14.870  0.1789  0.0062 -0.2881
 5610TIP3    H138245   1.582   0.115  14.843 -0.3135  3.7103 -0.7226
 5610TIP3    H238246   1.440   0.118  14.790 -0.7974 -2.0105 -0.0446
 5611TIP3   OH238247   0.236   6.536  11.835 -0.0036  0.3427 -0.2472
 5611TIP3    H138248   0.258   6.628  11.848 -0.8882  0.3811  1.1640
 5611TIP3    H238249   0.157   6.523  11.888 -1.1150 -0.7137 -2.1241
 5612TIP3   OH238250   6.770   0.736   0.985 -0.0984  0.5844  0.0911
 5612TIP3    H138251   6.753   0.664   1.046  1.6262 -0.4690 -0.6481
 5612TIP3    H238252   6.845   0.782   1.021  0.7039  0.1744 -1.0176
 5613TIP3   OH238253   6.288   3.624   3.147 -0.8516  0.0744  0.5660
 5613TIP3    H138254   6.349   3.657   3.213 -3.3521 -1.9603  4.0348
 5613TIP3    H238255   6.317   3.535   3.130 -0.2817  0.5498 -1.0875
 5614TIP3   OH238256   3.532   4.413   4.861 -0.2385 -0.1296  0.3468
 5614TIP3    H138257   3.597   4.434   4.794  0.3340  0.9265  1.2326
 5614TIP3    H238258   3.559   4.327   4.894  1.1825  0.6726  1.2870
 5615TIP3   OH238259   1.409   2.162  13.722  0.3896 -0.3370  0.0250
 5615TIP3    H138260   1.317   2.167  13.746  0.2920  1.1774 -0.5721
 5615TIP3    H238261   1.455   2.147  13.804 -0.3229 -0.2343  0.4434
 5616TIP3   OH238262   0.455   0.607   3.090  0.2363  0.5760  0.8734
 5616TIP3    H138263   0.527   0.544   3.098  0.2073  0.4364  0.0632
 5616TIP3    H238264   0.397   0.587   3.163 -1.2373 -2.2349 -0.9655
 5617TIP3   OH238265   0.701   6.734   5.542  0.3572  0.1367 -0.1389
 5617TIP3    H138266   0.780   6.785   5.559  0.5972  0.0166 -0.8552
 5617TIP3    H238267   0.633   6.776   5.595  0.5626  1.1777 -0.6878
 5618TIP3   OH238268   0.268   1.133  12.196  0.1072  0.0898  0.5201
 5618TIP3    H138269   0.265   1.119  12.291  0.1150  0.5050  0.5823
 5618TIP3    H238270   0.203   1.202  12.180 -0.7352 -0.7970  0.0741
 5619TIP3   OH238271   3.322   6.001  11.965 -0.1035  0.3191  0.0427
 5619TIP3    H138272   3.227   5.995  11.979  0.2833 -2.9943  1.9737
 5619TIP3    H238273   3.359   5.980  12.051  2.3931  0.1721 -1.0527
 5620TIP3   OH238274   2.225   5.572  11.435  0.2503  0.1398 -0.0849
 5620TIP3    H138275   2.141   5.580  11.479  0.2472  1.6557 -0.3428
 5620TIP3    H238276   2.239   5.478  11.426 -1.9969 -0.1179 -1.1658
 5621TIP3   OH238277   0.018   2.105   6.184  0.3488  0.1048  0.2856
 5621TIP3    H138278  -0.063   2.105   6.236 -0.7386 -0.0811 -1.3401
 5621TIP3    H238279   0.081   2.058   6.237 -0.5055  0.6325  1.7822
 5622TIP3   OH238280   2.015   5.666  11.561  0.3299  0.6704 -0.2568
 5622TIP3    H138281   1.937   5.612  11.552  0.8031 -0.0366 -0.1241
 5622TIP3    H238282   2.003   5.711  11.645  0.6927 -0.4764  0.4263
 5623TIP3   OH238283   4.302   6.126  16.593 -0.6460  0.3301 -0.0952
 5623TIP3    H138284   4.370   6.081  16.542 -0.1950  2.7466 -1.7527
 5623TIP3    H238285   4.351   6.174  16.660 -1.0460 -0.8603  1.0677
 5624TIP3   OH238286   3.874   3.576   2.608 -0.6373 -0.0382  0.4058
 5624TIP3    H138287   3.824   3.525   2.544 -1.5373 -1.8548  2.4850
 5624TIP3    H238288   3.952   3.523   2.625 -0.7771  0.0544  1.3777
 5625TIP3   OH238289   2.833   1.263   5.925 -0.4908  0.3054  0.5926
 5625TIP3    H138290   2.776   1.323   5.878 -0.9430 -2.1422 -2.1088
 5625TIP3    H238291   2.918   1.271   5.880 -0.4380 -0.7192  0.4991
 5626TIP3   OH238292   5.178   0.613   5.371  0.3425  0.2642 -0.3731
 5626TIP3    H138293   5.099   0.583   5.416  0.8420  0.2470  0.5090
 5626TIP3    H238294   5.200   0.696   5.413  0.1479  0.8442 -1.3998
 5627TIP3   OH238295   5.313   5.206  16.654  0.3263  0.1716 -0.0872
 5627TIP3    H138296   5.402   5.186  16.626  0.3012 -0.7683  0.4652
 5627TIP3    H238297   5.266   5.225  16.573  1.3219  1.9459 -0.2785
 5628TIP3   OH238298   3.405   3.893  14.876 -0.2601 -0.6433 -0.1681
 5628TIP3    H138299   3.483   3.860  14.832 -0.7546 -0.7432 -0.9770
 5628TIP3    H238300   3.433   3.974  14.918  0.0832 -0.2780 -1.0923
 5629TIP3   OH238301   0.942   4.247   5.375 -0.0443  0.0576  0.7053
 5629TIP3    H138302   1.011   4.291   5.424  1.0764 -0.9157  0.0437
 5629TIP3    H238303   0.941   4.158   5.411 -0.6961 -0.0338  0.4560
 5630TIP3   OH238304   1.063   3.251  13.973  0.0612 -0.7468 -0.3406
 5630TIP3    H138305   1.137   3.298  13.934 -0.1207 -0.0883  0.0928
 5630TIP3    H238306   1.038   3.305  14.048  0.6456 -2.1824  0.9171
 5631TIP3   OH238307   0.050   5.355  13.603  0.1228  0.5101  0.9331
 5631TIP3    H138308   0.012   5.303  13.532  3.3367  0.7932 -1.0929
 5631TIP3    H238309  -0.006   5.433  13.607 -1.6098 -0.6715  0.4750
 5632TIP3   OH238310   5.670   0.101  14.631  0.1582  0.1752 -0.1788
 5632TIP3    H138311   5.738   0.062  14.684  1.1214  0.0876 -1.4517
 5632TIP3    H238312   5.708   0.183  14.598 -0.0890 -0.1902 -1.4221
 5633TIP3   OH238313   3.793   5.764  10.387 -0.1017  0.1342 -0.4088
 5633TIP3    H138314   3.831   5.706  10.453  0.6706  0.4380 -0.5822
 5633TIP3    H238315   3.717   5.803  10.430  1.0815  1.2358  0.7036
 5634TIP3   OH238316   1.923   4.735  13.998  0.0374 -0.0497  0.2335
 5634TIP3    H138317   1.873   4.788  14.060 -1.8901 -0.1414 -1.1833
 5634TIP3    H238318   1.905   4.644  14.023  0.4300 -0.0783  0.4217
 5635TIP3   OH238319   5.663   3.613  14.147  0.0359 -0.0828 -0.1328
 5635TIP3    H138320   5.720   3.598  14.072 -0.0423 -0.0467 -0.1997
 5635TIP3    H238321   5.615   3.693  14.126  0.2547  0.1129  0.1031
 5636TIP3   OH238322   4.280   1.065   4.940  0.7759 -0.0394 -0.5887
 5636TIP3    H138323   4.236   1.116   4.872  1.5181  1.7257  0.2211
 5636TIP3    H238324   4.257   1.109   5.022  1.8753 -0.6902  0.0856
 5637TIP3   OH238325   4.761   4.496   3.755  0.7182 -0.3085 -0.2319
 5637TIP3    H138326   4.823   4.444   3.806  0.7478  0.2620  0.3332
 5637TIP3    H238327   4.675   4.469   3.787  0.7122 -0.4020 -0.3260
 5638TIP3   OH238328   5.049   6.176  11.664  1.3093 -0.0261  0.9810
 5638TIP3    H138329   5.126   6.232  11.665  1.9054 -0.6154 -2.9907
 5638TIP3    H238330   5.016   6.178  11.754  2.2601  5.3435  1.3607
 5639TIP3   OH238331   1.439   2.559  14.115 -0.0821  0.0945  0.2201
 5639TIP3    H138332   1.517   2.610  14.139 -0.6810  0.4674  1.3965
 5639TIP3    H238333   1.462   2.469  14.137  0.4919  0.0216 -0.6435
 5640TIP3   OH238334   4.782   2.199  13.783 -0.0428  0.3196  0.2042
 5640TIP3    H138335   4.722   2.191  13.709 -0.2892  1.6587  0.2477
 5640TIP3    H238336   4.826   2.283  13.770  0.5240  0.1772  1.1242
 5641TIP3   OH238337   0.223   2.339  16.077  0.1336 -0.6973 -0.5928
 5641TIP3    H138338   0.195   2.367  16.165  0.7456  2.1265 -1.2744
 5641TIP3    H238339   0.311   2.303  16.090  0.8724  1.1858 -0.2865
 5642TIP3   OH238340   4.505   2.736   0.580 -0.0624 -0.2318  0.4407
 5642TIP3    H138341   4.502   2.771   0.491 -0.5828  0.4235  0.7108
 5642TIP3    H238342   4.416   2.748   0.613  0.3083  0.1624  1.2913
 5643TIP3   OH238343   4.987   6.276  11.222  0.0326 -0.1804 -0.7076
 5643TIP3    H138344   4.971   6.353  11.276  0.1002 -0.2118 -0.6450
 5643TIP3    H238345   5.068   6.239  11.255 -0.0174 -0.2990 -0.7161
 5644TIP3   OH238346   5.061   2.900   1.624  0.1528 -0.0945 -0.0690
 5644TIP3    H138347   5.155   2.896   1.642  0.2600  1.1200 -0.3137
 5644TIP3    H238348   5.024   2.943   1.701 -0.1891 -0.4732 -0.0223
 5645TIP3   OH238349   3.907   4.810   3.593  0.0518  0.3251  0.1096
 5645TIP3    H138350   3.921   4.717   3.607 -1.0942 -0.1149 -1.4721
 5645TIP3    H238351   3.812   4.819   3.581  0.1579  1.6700  0.1178
 5646TIP3   OH238352   1.861   1.103   4.337  0.1522 -0.5485 -0.2166
 5646TIP3    H138353   1.780   1.100   4.388 -0.2146 -1.3648 -0.8451
 5646TIP3    H238354   1.842   1.165   4.267  0.1416 -0.5760 -0.2385
 5647TIP3   OH238355   1.195   4.725  10.929  0.4051  0.3071  0.8714
 5647TIP3    H138356   1.130   4.779  10.973 -0.7250  0.3179 -0.8110
 5647TIP3    H238357   1.148   4.682  10.858  2.0868 -0.1697  0.0126
 5648TIP3   OH238358   4.818   6.182  12.176  0.2905 -0.5705  0.3019
 5648TIP3    H138359   4.890   6.152  12.120 -0.3055  0.2835 -0.9515
 5648TIP3    H238360   4.843   6.270  12.201 -0.8112  0.1545 -1.0520
 5649TIP3   OH238361   1.545   3.854   6.263 -0.4437 -0.1563  0.1191
 5649TIP3    H138362   1.633   3.826   6.239 -0.8596 -0.7770 -0.6830
 5649TIP3    H238363   1.559   3.917   6.334  0.7312  0.9942 -1.1238
 5650TIP3   OH238364   4.796   0.616   5.176  0.2386  0.2143  0.2865
 5650TIP3    H138365   4.749   0.544   5.133  2.0860  0.6048 -2.5330
 5650TIP3    H238366   4.729   0.682   5.194 -0.5346  0.2667 -2.5700
 5651TIP3   OH238367   0.393   0.939  11.799  0.2224 -0.2247  0.1048
 5651TIP3    H138368   0.311   0.951  11.847 -0.3227  1.3054 -1.1657
 5651TIP3    H238369   0.369   0.882  11.726 -0.2065  1.8188 -1.4055
 5652TIP3   OH238370   2.506   1.630   4.810  0.0061 -0.7321 -0.1525
 5652TIP3    H138371   2.587   1.587   4.837  0.4137 -0.3844 -0.8071
 5652TIP3    H238372   2.462   1.652   4.892  0.1548 -1.7168  0.1916
 5653TIP3   OH238373   5.643   3.365  13.092 -0.4695  0.4372 -0.9314
 5653TIP3    H138374   5.580   3.307  13.136  0.4208  0.5345  0.4863
 5653TIP3    H238375   5.726   3.349  13.137 -0.2278  2.8940 -0.4469
 5654TIP3   OH238376   6.191   5.334  16.196 -0.0043 -0.0789 -0.3078
 5654TIP3    H138377   6.121   5.393  16.227 -0.9736 -0.4606 -1.7061
 5654TIP3    H238378   6.156   5.246  16.212 -0.3074 -0.2735 -1.9928
 5655TIP3   OH238379   0.502   6.738  14.897  0.0924  0.1616  0.5838
 5655TIP3    H138380   0.508   6.644  14.911 -0.6901  0.1940  1.2069
 5655TIP3    H238381   0.409   6.754  14.881  0.4120  0.6556 -0.8423
 5656TIP3   OH238382   1.973   4.711  12.341  0.3735 -0.4336  0.2052
 5656TIP3    H138383   1.957   4.758  12.259  0.7954 -1.8266 -0.7001
 5656TIP3    H238384   2.045   4.758  12.382 -0.6490  1.0069  0.3714
 5657TIP3   OH238385   1.259   6.534  16.165 -0.0450 -0.5496  0.5152
 5657TIP3    H138386   1.336   6.565  16.213 -0.4719 -0.6912  1.3023
 5657TIP3    H238387   1.236   6.451  16.208 -1.0628 -0.1570  0.7388
 5658TIP3   OH238388   3.360   5.449  11.851 -0.4444 -0.9006  0.5792
 5658TIP3    H138389   3.307   5.521  11.885  0.0500 -0.6400  0.7999
 5658TIP3    H238390   3.305   5.407  11.785  0.1348  1.0646 -1.1716
 5659TIP3   OH238391   6.484   0.684   1.114  0.1732 -0.1772 -0.0815
 5659TIP3    H138392   6.523   0.662   1.199 -0.3270  1.6055  0.6227
 5659TIP3    H238393   6.497   0.778   1.104 -1.6014 -0.0002 -1.0358
 5660TIP3   OH238394   0.485   0.811   5.361 -0.1200  0.6617  0.2682
 5660TIP3    H138395   0.425   0.860   5.305 -1.4058 -0.5673  0.5316
 5660TIP3    H238396   0.559   0.870   5.376 -1.1696  2.1155 -0.2442
 5661TIP3   OH238397   3.247   5.081  12.935 -0.2542 -0.2861  0.1798
 5661TIP3    H138398   3.201   5.101  12.853  1.3646 -0.9843 -0.9285
 5661TIP3    H238399   3.264   4.987  12.930 -0.4836 -0.3993  1.5049
 5662TIP3   OH238400   4.762   0.080   1.104  0.1665  0.1765 -0.0377
 5662TIP3    H138401   4.822   0.118   1.039 -1.4075  2.5709 -0.1688
 5662TIP3    H238402   4.730   0.156   1.154 -1.4337 -1.2433  1.1485
 5663TIP3   OH238403   0.813   6.001   3.672  0.4856  0.4095  0.3899
 5663TIP3    H138404   0.765   5.939   3.617  1.7980 -0.4256  0.1634
 5663TIP3    H238405   0.905   5.986   3.651  0.9553  0.7895  2.0741
 5664TIP3   OH238406   1.576   6.005  14.317 -0.5031  0.8775 -0.2764
 5664TIP3    H138407   1.561   6.065  14.244 -0.6534  0.5830 -0.4930
 5664TIP3    H238408   1.507   5.939  14.308  0.5519 -0.1502 -0.9132
 5665TIP3   OH238409   2.812   3.458  11.179  0.0910 -0.5273 -0.0978
 5665TIP3    H138410   2.888   3.497  11.136  0.4152  1.0012  1.7595
 5665TIP3    H238411   2.764   3.415  11.108  0.4058  2.1883 -2.0861
 5666TIP3   OH238412   1.638   1.796  12.340  0.2233 -0.0236  0.1287
 5666TIP3    H138413   1.683   1.879  12.357 -0.5914  0.2972  0.7368
 5666TIP3    H238414   1.634   1.752  12.425 -0.8163  0.0517  0.1280
 5667TIP3   OH238415   6.498   5.237  11.967 -0.1891 -0.2747 -0.3564
 5667TIP3    H138416   6.533   5.192  12.043  0.8227 -2.5324 -2.1028
 5667TIP3    H238417   6.403   5.240  11.982 -0.0132 -0.8588  0.9010
 5668TIP3   OH238418   6.159   1.479  12.297 -0.1428  0.1784 -0.2102
 5668TIP3    H138419   6.189   1.425  12.370 -0.0633 -0.9118 -1.0440
 5668TIP3    H238420   6.238   1.498  12.246 -0.1263  1.3129  0.2211
 5669TIP3   OH238421   4.542   4.837   3.523  0.0288 -0.1199 -0.7517
 5669TIP3    H138422   4.525   4.926   3.491  1.1085 -0.6474 -2.8618
 5669TIP3    H238423   4.457   4.793   3.515 -0.3044  0.4701 -0.5225
 5670TIP3   OH238424   4.065   0.169   4.673  0.9014 -0.2426  0.0079
 5670TIP3    H138425   4.122   0.219   4.732 -1.4247  1.1084  1.2004
 5670TIP3    H238426   4.008   0.119   4.732 -2.0965  1.8467 -1.0142
 5671TIP3   OH238427   4.132   5.939  11.639  1.0586  0.5260  0.2392
 5671TIP3    H138428   4.189   5.985  11.578 -0.0467  1.8403  0.1579
 5671TIP3    H238429   4.191   5.900  11.703  2.1641 -0.0093 -1.0963
 5672TIP3   OH238430   5.646   4.058   5.780  0.1971  0.3716 -0.0724
 5672TIP3    H138431   5.708   3.988   5.799  1.4445  1.8362  1.5053
 5672TIP3    H238432   5.611   4.083   5.866 -1.2307  0.7816 -0.7576
 5673TIP3   OH238433   6.203   1.539  13.233  0.2018 -0.1514 -0.9571
 5673TIP3    H138434   6.290   1.504  13.214  0.3658  0.0819 -0.6345
 5673TIP3    H238435   6.191   1.526  13.327  0.6097  1.3866 -0.6694
 5674TIP3   OH238436   4.981   3.140  13.728  0.0685  0.5010  0.0735
 5674TIP3    H138437   4.932   3.058  13.731  0.6267  0.0737 -1.8152
 5674TIP3    H238438   5.060   3.124  13.779 -0.6100  0.4069  1.0972
 5675TIP3   OH238439   2.392   4.893  15.156 -0.0875 -0.0577 -0.3302
 5675TIP3    H138440   2.394   4.947  15.076 -1.9890 -0.1419 -0.4462
 5675TIP3    H238441   2.483   4.891  15.185  0.7597 -0.5948 -2.8735
 5676TIP3   OH238442   5.737   6.152   0.863  0.7784 -0.0367 -0.2957
 5676TIP3    H138443   5.802   6.121   0.926 -1.4347 -1.5471  1.3260
 5676TIP3    H238444   5.693   6.072   0.834  0.0394  0.9104 -1.8320
 5677TIP3   OH238445   0.893   0.215   3.891 -0.5241  0.5788 -0.3370
 5677TIP3    H138446   0.859   0.296   3.854 -2.0427  0.4290  0.7022
 5677TIP3    H238447   0.985   0.214   3.865 -1.0247  1.5217 -2.2566
 5678TIP3   OH238448   6.640   2.085   1.642 -0.0022  0.4409 -0.0358
 5678TIP3    H138449   6.614   1.996   1.620  0.5807  0.4522 -0.7718
 5678TIP3    H238450   6.606   2.139   1.571  0.6598  0.6534 -0.1934
 5679TIP3   OH238451   0.303   5.591   4.190 -0.3213 -0.0226  0.2665
 5679TIP3    H138452   0.299   5.528   4.263  0.0685  1.1241  1.2934
 5679TIP3    H238453   0.218   5.582   4.147 -0.9091 -0.0677  1.4124
 5680TIP3   OH238454   5.909   3.705   4.450  0.3138 -0.3484  0.2890
 5680TIP3    H138455   5.923   3.714   4.544  1.1538 -1.5520  0.2868
 5680TIP3    H238456   5.992   3.732   4.410 -0.0223  0.1111 -0.1165
 5681TIP3   OH238457   2.909   6.260   0.740 -0.2287 -0.3820 -0.5815
 5681TIP3    H138458   2.898   6.355   0.733  1.5856 -0.1012  0.0441
 5681TIP3    H238459   2.981   6.249   0.802 -0.3882 -2.1666 -0.6963
 5682TIP3   OH238460   0.914   1.291   0.319 -0.1387 -0.1991  0.1181
 5682TIP3    H138461   0.828   1.324   0.344 -0.1740 -0.7887  0.7699
 5682TIP3    H238462   0.895   1.222   0.255 -0.1364 -0.0908  0.0006
 5683TIP3   OH238463   4.682   2.251   4.208 -0.4563  0.7523 -0.4974
 5683TIP3    H138464   4.628   2.327   4.184  0.0913  1.0071 -0.9526
 5683TIP3    H238465   4.708   2.214   4.124 -0.2562  0.3954 -0.2762
 5684TIP3   OH238466   0.510   6.580  12.149 -0.4841  0.0073 -0.1834
 5684TIP3    H138467   0.449   6.635  12.102 -1.2626 -0.8240 -0.1716
 5684TIP3    H238468   0.545   6.636  12.219 -1.7414  0.2985  0.2271
 5685TIP3   OH238469   1.095   6.193   4.783 -0.1547  0.1862  0.2611
 5685TIP3    H138470   1.068   6.285   4.777  1.3519  0.5683 -1.2219
 5685TIP3    H238471   1.181   6.196   4.826  1.2700 -0.1912 -2.3985
 5686TIP3   OH238472   0.023   5.003  15.951 -0.1549  0.6236 -0.1303
 5686TIP3    H138473   0.116   5.006  15.974 -0.4168  2.6677  0.8288
 5686TIP3    H238474  -0.023   5.021  16.033 -1.2833  2.4595 -1.1160
 5687TIP3   OH238475   6.121   0.124   2.632 -0.6693  0.2128 -0.0767
 5687TIP3    H138476   6.117   0.183   2.556 -1.6746 -0.1934 -0.3342
 5687TIP3    H238477   6.094   0.178   2.706  0.3655  0.6255  0.0215
 5688TIP3   OH238478   6.250   3.455  13.486  0.4940  0.1223  0.0687
 5688TIP3    H138479   6.212   3.428  13.570  0.2963  1.2576  0.3502
 5688TIP3    H238480   6.231   3.549  13.480  0.1231 -0.0344 -1.4487
 5689TIP3   OH238481   3.029   5.684   4.550  0.2349 -0.2965  0.0609
 5689TIP3    H138482   3.016   5.591   4.566 -2.1961  0.2041  1.2261
 5689TIP3    H238483   2.941   5.722   4.555  1.3141  2.2083  0.7538
 5690TIP3   OH238484   2.175   4.625  16.851 -0.1921 -0.2307 -0.5617
 5690TIP3    H138485   2.107   4.656  16.911  0.5418  0.9526 -0.3411
 5690TIP3    H238486   2.158   4.531  16.843 -0.2197 -0.4266  1.5878
 5691TIP3   OH238487   3.937   1.936   6.723 -0.5808  0.1426 -0.4756
 5691TIP3    H138488   3.968   1.998   6.789 -2.1679  2.1227 -1.5540
 5691TIP3    H238489   3.842   1.947   6.722 -1.1077 -3.5785  0.5459
 5692TIP3   OH238490   3.269   3.574   6.199  0.1690  0.1627 -0.0127
 5692TIP3    H138491   3.238   3.492   6.238 -0.1528  0.1715 -0.2452
 5692TIP3    H238492   3.320   3.547   6.122 -1.1289  0.2243 -0.9149
 5693TIP3   OH238493   6.660   5.982   1.186  0.4200  0.3234 -0.5277
 5693TIP3    H138494   6.602   5.952   1.256 -0.3701  2.6867 -0.1147
 5693TIP3    H238495   6.740   6.008   1.230  0.6838 -0.1102 -0.7481
 5694TIP3   OH238496   3.969   4.810  16.931 -0.0202  0.1116  0.0756
 5694TIP3    H138497   4.040   4.874  16.926 -0.5776  0.8015  0.9501
 5694TIP3    H238498   4.013   4.725  16.922  0.7896  0.5811 -0.4778
 5695TIP3   OH238499   2.319   3.062  14.602  0.5047  0.3301 -0.6620
 5695TIP3    H138500   2.280   3.148  14.587  0.2101  0.3006 -0.0555
 5695TIP3    H238501   2.329   3.025  14.514 -0.2349  0.6016 -0.8631
 5696TIP3   OH238502   1.767   4.191  14.849 -0.1348  0.2579  0.0030
 5696TIP3    H138503   1.857   4.162  14.860 -0.3570  0.5901  3.2193
 5696TIP3    H238504   1.773   4.285  14.832  0.2053 -0.1224 -2.0531
 5697TIP3   OH238505   5.914   4.289   5.239 -0.3614  0.6384 -0.0284
 5697TIP3    H138506   6.006   4.315   5.243 -0.2109 -0.1216  1.5092
 5697TIP3    H238507   5.866   4.372   5.243  0.2022  0.8908  1.6884
 5698TIP3   OH238508   2.007   0.018   5.030  0.4347 -0.3732 -0.2397
 5698TIP3    H138509   1.956   0.088   4.989 -0.3035 -1.5549 -1.3949
 5698TIP3    H238510   1.963   0.001   5.113  0.1790  0.0172 -0.2946
 5699TIP3   OH238511   6.207   3.880  10.821  0.2467  0.0115  0.3527
 5699TIP3    H138512   6.262   3.867  10.744  1.8749 -2.3348  1.8401
 5699TIP3    H238513   6.136   3.818  10.811 -0.7932  1.2826 -0.3270
 5700TIP3   OH238514   4.935   2.192   0.371  0.1052 -0.3639 -0.3322
 5700TIP3    H138515   5.009   2.145   0.332 -0.5995 -1.3654 -0.4674
 5700TIP3    H238516   4.865   2.185   0.306  0.1617  1.3427 -0.5877
 5701TIP3   OH238517   2.127   3.600  14.623  0.3078  0.0188 -0.0682
 5701TIP3    H138518   2.153   3.690  14.603  2.5611 -0.2831  1.2331
 5701TIP3    H238519   2.190   3.572  14.690 -1.5447 -1.8848  0.9315
 5702TIP3   OH238520   3.102   3.173  12.447  0.2506 -0.3484 -0.0598
 5702TIP3    H138521   3.054   3.091  12.437  1.5377 -1.2587  1.0175
 5702TIP3    H238522   3.069   3.229  12.376 -2.7180 -0.7635  0.9043
 5703TIP3   OH238523   0.617   6.531   5.825 -0.1432 -0.2351 -0.4251
 5703TIP3    H138524   0.580   6.552   5.911 -0.0267  2.6075 -1.0279
 5703TIP3    H238525   0.552   6.473   5.785 -1.3262  0.3258  0.6501
 5704TIP3   OH238526   3.643   0.899  16.969  0.3407 -0.5223 -0.0784
 5704TIP3    H138527   3.592   0.886  17.049  0.4489  0.8484  0.2396
 5704TIP3    H238528   3.732   0.916  17.001 -0.0032  2.0026 -0.3650
 5705TIP3   OH238529   5.140   1.232  14.959 -0.0186 -0.7321  0.5622
 5705TIP3    H138530   5.235   1.226  14.974 -0.0970 -1.9812  0.6205
 5705TIP3    H238531   5.132   1.283  14.879  0.7023 -0.4741  0.6485
 5706TIP3   OH238532   2.428   6.748   1.778 -0.6929  0.2160  0.6313
 5706TIP3    H138533   2.395   6.659   1.783  0.1631 -0.1387  0.0883
 5706TIP3    H238534   2.524   6.739   1.780 -0.5833  1.0553 -0.1656
 5707TIP3   OH238535   2.694   0.171   6.267 -0.4805 -0.5890  0.0988
 5707TIP3    H138536   2.774   0.121   6.279  0.5291  1.0200  0.3070
 5707TIP3    H238537   2.629   0.127   6.321  0.0582 -2.3621 -0.6677
 5708TIP3   OH238538   6.236   5.326  10.870 -0.1556 -0.1055  0.0602
 5708TIP3    H138539   6.312   5.320  10.812  1.0401  0.2268  1.5447
 5708TIP3    H238540   6.245   5.411  10.912 -4.0664  2.2252 -3.3541
 5709TIP3   OH238541   4.798   5.262   4.774  0.3011 -0.1607  0.3480
 5709TIP3    H138542   4.728   5.197   4.784 -0.0805  0.4232  1.5048
 5709TIP3    H238543   4.879   5.212   4.784  0.0502 -0.7478 -0.4690
 5710TIP3   OH238544   6.599   4.451   4.351 -0.2075  0.5142 -0.4490
 5710TIP3    H138545   6.661   4.514   4.313 -2.5633  2.9099 -0.4835
 5710TIP3    H238546   6.532   4.440   4.284 -0.8334 -0.5289  0.3379
 5711TIP3   OH238547   4.802   1.571   3.324  0.3003  0.4168  0.2399
 5711TIP3    H138548   4.884   1.621   3.325  0.7302 -0.2340  2.6380
 5711TIP3    H238549   4.830   1.481   3.306  0.0526  0.3130  0.3743
 5712TIP3   OH238550   5.941   6.619   2.326 -0.2183 -0.0189 -0.1741
 5712TIP3    H138551   6.015   6.652   2.377  0.7389 -1.6598 -0.4759
 5712TIP3    H238552   5.917   6.693   2.270 -1.6040  1.9878  2.9034
 5713TIP3   OH238553   3.724   0.431  17.018 -0.3878 -0.0505 -0.1765
 5713TIP3    H138554   3.784   0.364  17.049 -0.3271 -0.1043 -0.4187
 5713TIP3    H238555   3.647   0.383  16.988 -0.4560  0.0050 -0.0943
 5714TIP3   OH238556   4.694   2.447   6.235  0.1732 -0.1936 -0.1321
 5714TIP3    H138557   4.763   2.424   6.172 -0.1990 -0.5278 -0.4150
 5714TIP3    H238558   4.719   2.534   6.266  0.3434 -0.0159 -0.7598
 5715TIP3   OH238559   3.199   0.346   1.234 -0.3273  0.5557  0.7296
 5715TIP3    H138560   3.167   0.394   1.157  0.7498  1.8385  1.0583
 5715TIP3    H238561   3.269   0.402   1.269  1.0601 -1.3278  1.0443
 5716TIP3   OH238562   5.036   1.195  17.018  0.1164 -0.4501  0.1204
 5716TIP3    H138563   5.076   1.115  17.050  1.4662  0.5403  0.9767
 5716TIP3    H238564   5.097   1.229  16.953 -1.0042 -0.7060 -1.0865
 5717TIP3   OH238565   1.443   2.559  15.338  0.0420  0.1151  0.1131
 5717TIP3    H138566   1.362   2.509  15.345  0.0389  0.1706  0.4770
 5717TIP3    H238567   1.484   2.528  15.257 -0.5258  0.3619 -0.2688
 5718TIP3   OH238568   3.302   0.579   0.464  0.5533  0.2652  0.0923
 5718TIP3    H138569   3.286   0.504   0.522 -0.1294  0.6853  0.4433
 5718TIP3    H238570   3.298   0.655   0.521 -0.5038  0.7103 -0.5693
 5719TIP3   OH238571   6.698   1.849  11.623  0.2479  0.0184  0.2631
 5719TIP3    H138572   6.729   1.898  11.547 -0.3796  1.1734  0.7362
 5719TIP3    H238573   6.772   1.849  11.683  0.1695  0.6069  0.3631
 5720TIP3   OH238574   3.449   5.788  16.872  0.4015 -0.1026 -0.1926
 5720TIP3    H138575   3.476   5.830  16.791  1.4004 -2.0705 -0.9256
 5720TIP3    H238576   3.524   5.734  16.897  0.0524  0.4039  1.9840
 5721TIP3   OH238577   5.761   1.451  11.310  0.1635 -0.7722 -0.4983
 5721TIP3    H138578   5.714   1.487  11.235  1.8026  0.8403 -0.8005
 5721TIP3    H238579   5.785   1.362  11.283 -0.1655 -0.5656 -1.4901
 5722TIP3   OH238580   5.413   4.821  14.369  0.2223  0.7675 -0.1075
 5722TIP3    H138581   5.483   4.810  14.433  0.1809  0.7555 -0.0637
 5722TIP3    H238582   5.414   4.915  14.349 -0.3027  0.9086  0.5270
 5723TIP3   OH238583   0.776   1.664   5.005  0.2141  0.1678 -0.0403
 5723TIP3    H138584   0.839   1.733   5.026 -0.0056  0.4903 -0.4261
 5723TIP3    H238585   0.830   1.589   4.982  0.4592  0.4257 -0.3153
 5724TIP3   OH238586   1.745   3.119   0.740  0.2327 -0.3569  0.1568
 5724TIP3    H138587   1.697   3.141   0.661 -0.6952 -0.8263  0.5814
 5724TIP3    H238588   1.683   3.136   0.811  1.0368  0.0110  0.7740
 5725TIP3   OH238589   5.212   0.577  14.189  0.1587  0.2593 -0.2758
 5725TIP3    H138590   5.223   0.603  14.281  0.1035  0.4962 -0.3355
 5725TIP3    H238591   5.151   0.503  14.193  1.9657 -1.2350  0.0732
 5726TIP3   OH238592   1.042   4.674  13.486 -0.1541  0.0626 -0.6628
 5726TIP3    H138593   1.122   4.720  13.512 -0.8489  2.1476 -2.0633
 5726TIP3    H238594   0.973   4.717  13.535 -0.5006 -1.4016  0.1604
 5727TIP3   OH238595   4.860   2.038  13.387  0.3002 -0.1906  0.2186
 5727TIP3    H138596   4.794   2.102  13.417  1.3323  2.0168 -2.0790
 5727TIP3    H238597   4.823   2.002  13.307  0.0258 -2.0429  1.1654
 5728TIP3   OH238598   3.421   3.228   4.940 -0.6581 -0.1781 -0.0574
 5728TIP3    H138599   3.432   3.169   5.014 -3.2884 -1.2537 -0.4821
 5728TIP3    H238600   3.473   3.188   4.870 -0.8178 -0.9123  0.2389
 5729TIP3   OH238601   3.862   1.790  11.788  0.0594 -0.1219 -0.4925
 5729TIP3    H138602   3.841   1.710  11.738 -1.2366  0.5946 -1.1305
 5729TIP3    H238603   3.949   1.814  11.759  0.2787 -1.0670 -0.6312
 5730TIP3   OH238604   2.155   2.072   1.115 -0.0664  0.4356  0.4366
 5730TIP3    H138605   2.131   2.145   1.172  0.0566  1.8083 -1.2225
 5730TIP3    H238606   2.201   2.112   1.042  0.7620 -1.4071 -0.0996
 5731TIP3   OH238607   4.888   4.789   3.802 -0.1098  0.1295  0.3794
 5731TIP3    H138608   4.855   4.715   3.751 -2.5172  0.3332  1.5644
 5731TIP3    H238609   4.952   4.831   3.745 -0.8399 -1.1755 -1.4471
 5732TIP3   OH238610   0.613   2.786   3.219 -0.7409  0.1780  0.0803
 5732TIP3    H138611   0.671   2.737   3.277  0.0420 -0.4887 -1.2564
 5732TIP3    H238612   0.620   2.742   3.135 -2.0470  1.0055 -0.4745
 5733TIP3   OH238613   1.928   2.985   3.954 -0.1948 -0.5315 -0.5040
 5733TIP3    H138614   2.007   2.936   3.977  0.2372  0.6208  0.5376
 5733TIP3    H238615   1.926   3.057   4.017 -1.7803 -0.2322 -0.8770
 5734TIP3   OH238616   5.315   2.370   3.841  0.5178  0.1965  0.2722
 5734TIP3    H138617   5.269   2.359   3.925 -0.4382 -0.7937 -0.3638
 5734TIP3    H238618   5.408   2.367   3.864  0.3026 -3.2057  0.9310
 5735TIP3   OH238619   3.536   5.799  11.529  0.6695  0.1681  0.3437
 5735TIP3    H138620   3.529   5.747  11.609 -2.0021 -1.2478 -0.7630
 5735TIP3    H238621   3.544   5.734  11.459 -2.1424  1.1864 -0.9976
 5736TIP3   OH238622   4.360   2.387   4.409  0.1106 -0.4440  0.0911
 5736TIP3    H138623   4.421   2.459   4.393  0.2634 -0.5571  0.1604
 5736TIP3    H238624   4.348   2.386   4.504 -0.1642 -0.2881  0.0581
 5737TIP3   OH238625   5.027   5.026  13.990 -0.1181 -0.0584  0.0305
 5737TIP3    H138626   5.020   5.017  14.085  0.3136  0.7210  0.1376
 5737TIP3    H238627   4.945   4.988  13.957 -1.0338  1.1926  0.7989
 5738TIP3   OH238628   2.511   2.186  14.173 -0.5101 -0.0996  0.0541
 5738TIP3    H138629   2.442   2.186  14.239 -0.7462  1.6235 -0.1714
 5738TIP3    H238630   2.563   2.264  14.193  1.9398 -1.8738  0.7994
 5739TIP3   OH238631   4.182   2.262  17.229 -0.0352 -0.4836 -0.2655
 5739TIP3    H138632   4.135   2.332  17.277  0.3259 -1.1485  1.0840
 5739TIP3    H238633   4.141   2.181  17.259  0.7576 -0.9639 -0.4627
 5740TIP3   OH238634   1.504   5.431  14.266  0.0451 -0.4240  0.2762
 5740TIP3    H138635   1.579   5.416  14.324 -0.5159  0.1162  1.1598
 5740TIP3    H238636   1.429   5.397  14.315 -0.3109 -0.7786 -0.5171
 5741TIP3   OH238637   1.158   3.899   0.080  0.0301  0.8474 -0.0462
 5741TIP3    H138638   1.068   3.885   0.110 -0.4222  1.9443 -0.8392
 5741TIP3    H238639   1.212   3.874   0.154 -0.8864 -0.7747  0.1084
 5742TIP3   OH238640   2.494   4.435   2.836  0.7501  0.4406 -0.5102
 5742TIP3    H138641   2.461   4.402   2.919  0.3027  0.5135 -0.6584
 5742TIP3    H238642   2.530   4.521   2.858  0.1579  0.6830 -0.4910
 5743TIP3   OH238643   3.283   3.381   0.306 -0.3225 -0.7372  0.2964
 5743TIP3    H138644   3.281   3.323   0.382 -0.6179 -2.0477 -0.6882
 5743TIP3    H238645   3.375   3.398   0.289 -0.2519 -0.6096  0.8155
 5744TIP3   OH238646   0.511   4.921  14.177  0.3404 -0.1647  0.4218
 5744TIP3    H138647   0.419   4.913  14.151  0.0242 -0.3423  1.5973
 5744TIP3    H238648   0.524   5.015  14.190  0.9011  0.1064 -1.7762
 5745TIP3   OH238649   6.598   2.224   5.321  0.3115 -0.3880 -0.2544
 5745TIP3    H138650   6.580   2.133   5.345 -1.1715 -0.2450 -0.7650
 5745TIP3    H238651   6.677   2.220   5.267  0.5941 -1.3007  0.2228
 5746TIP3   OH238652   1.844   6.426  16.442  0.3165  0.5430 -0.3609
 5746TIP3    H138653   1.861   6.418  16.348  2.3954  0.8469 -0.0371
 5746TIP3    H238654   1.896   6.502  16.469  1.0692 -0.5396  1.3346
 5747TIP3   OH238655   3.695   0.222  16.020  0.2246 -0.3115  0.3192
 5747TIP3    H138656   3.715   0.171  15.942 -0.8494 -0.2841  0.0108
 5747TIP3    H238657   3.643   0.163  16.075  0.9728 -0.3292  1.0078
 5748TIP3   OH238658   6.268   0.832  15.211 -0.1584 -0.1238  0.5437
 5748TIP3    H138659   6.355   0.866  15.187 -0.6677  0.1134 -1.0198
 5748TIP3    H238660   6.225   0.907  15.253  0.6256 -0.4434  1.9475
 5749TIP3   OH238661   3.019   3.552  11.037  0.5879 -0.1160  0.0539
 5749TIP3    H138662   2.995   3.553  10.945  1.5338 -0.7866 -0.2009
 5749TIP3    H238663   3.113   3.539  11.038  0.7707  1.1346  1.0838
 5750TIP3   OH238664   5.666   3.394  11.320 -0.2441 -0.6560  0.4219
 5750TIP3    H138665   5.571   3.403  11.322 -0.2893 -0.8827 -0.4738
 5750TIP3    H238666   5.698   3.466  11.375 -0.8732  0.3920 -0.5646
 5751TIP3   OH238667   4.159   6.512   3.577 -0.0071  0.6577  0.3995
 5751TIP3    H138668   4.195   6.555   3.654  1.2785 -0.6235  0.5343
 5751TIP3    H238669   4.174   6.418   3.593  0.5636  0.3946 -1.5474
 5752TIP3   OH238670   0.180   3.010   5.165 -0.6365  0.4743 -0.0122
 5752TIP3    H138671   0.218   3.047   5.086  2.0394 -1.2924  0.3693
 5752TIP3    H238672   0.182   2.915   5.151  0.4988  0.0940  2.3696
 5753TIP3   OH238673   0.106   5.469  11.794 -0.2923 -0.1342  0.3620
 5753TIP3    H138674   0.170   5.400  11.807  0.4878  0.5707  0.3180
 5753TIP3    H238675   0.025   5.423  11.771  0.0325 -1.0545  1.0381
 5754TIP3   OH238676   3.825   2.806  16.993  0.1505 -0.1753  0.0497
 5754TIP3    H138677   3.890   2.742  17.022  0.9142  0.4609 -0.2588
 5754TIP3    H238678   3.742   2.773  17.028  0.5682 -1.2279  0.0598
 5755TIP3   OH238679   5.438   4.810   3.161 -0.4831 -0.2394 -0.5020
 5755TIP3    H138680   5.520   4.850   3.130 -0.8150 -0.5477 -1.8024
 5755TIP3    H238681   5.442   4.720   3.131 -0.7125 -0.6214  0.5846
 5756TIP3   OH238682   0.017   1.617   4.086 -0.1435  0.1110 -0.8043
 5756TIP3    H138683  -0.062   1.586   4.130 -0.5770  1.1469 -0.8535
 5756TIP3    H238684   0.084   1.554   4.111 -0.9102 -0.6039 -0.5130
 5757TIP3   OH238685   0.881   1.156   3.941  0.1605  0.3080 -0.0471
 5757TIP3    H138686   0.942   1.094   3.982  0.4318  1.5081  1.4219
 5757TIP3    H238687   0.796   1.132   3.978  0.4169  1.4403  1.3003
 5758TIP3   OH238688   2.264   5.778  13.695 -0.0396  0.0612 -0.1927
 5758TIP3    H138689   2.236   5.775  13.604 -0.3047 -0.1562 -0.1042
 5758TIP3    H238690   2.209   5.845  13.735 -0.5305 -0.4570  0.0118
 5759TIP3   OH238691   5.461   3.675   2.146 -0.0094 -0.0383 -0.0283
 5759TIP3    H138692   5.447   3.586   2.178 -1.0914 -0.2636 -1.1043
 5759TIP3    H238693   5.511   3.718   2.215 -0.3372 -1.1884  0.9314
 5760TIP3   OH238694   0.453   3.822   1.408 -0.2420  0.0526  0.1007
 5760TIP3    H138695   0.531   3.872   1.432 -2.5807  2.5850  2.7193
 5760TIP3    H238696   0.459   3.742   1.461  1.6248 -0.8506 -1.3786
 5761TIP3   OH238697   0.940   3.574   4.023  0.4162 -0.1015 -0.1275
 5761TIP3    H138698   1.001   3.644   4.047  0.4891 -0.1589 -0.1447
 5761TIP3    H238699   0.919   3.591   3.931 -0.4327  0.5411  0.1846
 5762TIP3   OH238700   4.669   6.511   1.593 -0.0517 -0.3383 -0.1221
 5762TIP3    H138701   4.733   6.442   1.610  1.2396  0.4054 -1.8714
 5762TIP3    H238702   4.714   6.572   1.534 -2.1095  0.5795 -0.7806
 5763TIP3   OH238703   5.058   0.554   2.452  0.2304  0.0732  0.4167
 5763TIP3    H138704   4.982   0.501   2.472 -1.7769  2.8457  0.3869
 5763TIP3    H238705   5.108   0.556   2.534  0.4686 -1.9940  0.3510
 5764TIP3   OH238706   5.194   1.887   1.361 -0.6980 -0.4610 -0.5900
 5764TIP3    H138707   5.272   1.898   1.417  0.5125 -1.7480 -1.9804
 5764TIP3    H238708   5.168   1.796   1.373 -1.5946 -0.2137 -0.6439
 5765TIP3   OH238709   6.409   1.808   0.396 -0.0257 -0.0051  0.1188
 5765TIP3    H138710   6.449   1.753   0.329  1.4197  1.8186 -0.5586
 5765TIP3    H238711   6.381   1.746   0.464 -0.5476 -1.7749 -1.6495
 5766TIP3   OH238712   5.193   5.662  14.813 -0.4461 -0.1789 -0.6508
 5766TIP3    H138713   5.132   5.706  14.754 -0.9253  0.0153 -0.0293
 5766TIP3    H238714   5.224   5.586  14.765 -0.2001  0.4198 -1.4550
 5767TIP3   OH238715   6.701   0.463   0.543 -0.8440 -0.3053  0.1727
 5767TIP3    H138716   6.702   0.476   0.638 -1.4227 -0.4830  0.2048
 5767TIP3    H238717   6.684   0.370   0.531 -0.1946 -0.3887 -0.1006
 5768TIP3   OH238718   5.076   3.531   2.835  0.0497  0.6240 -0.1774
 5768TIP3    H138719   5.090   3.539   2.741 -1.6331 -1.3478 -0.6215
 5768TIP3    H238720   5.070   3.621   2.866 -1.3368  1.2903 -2.2752
 5769TIP3   OH238721   1.990   2.999  13.468 -0.1596  0.1242  0.0616
 5769TIP3    H138722   2.064   2.970  13.414 -0.6419  1.1771 -1.1892
 5769TIP3    H238723   2.031   3.034  13.547  0.6719  0.4601 -0.5102
 5770TIP3   OH238724   2.741   5.790   4.461  0.4391  0.0339  0.0189
 5770TIP3    H138725   2.754   5.777   4.367 -2.0090  2.3083 -0.6827
 5770TIP3    H238726   2.761   5.882   4.476  0.2194 -0.1571  1.6369
 5771TIP3   OH238727   5.950   2.056  12.966 -0.4010  0.3072  1.0874
 5771TIP3    H138728   5.945   2.152  12.961 -0.1451  0.2407 -0.9548
 5771TIP3    H238729   6.044   2.038  12.977 -0.5554  0.3072  2.5274
 5772TIP3   OH238730   4.002   2.568   4.823  0.4931  0.0051 -0.7695
 5772TIP3    H138731   3.923   2.622   4.817  0.1171 -0.5678 -1.0959
 5772TIP3    H238732   4.033   2.582   4.913  0.4772  0.8528 -0.8927
 5773TIP3   OH238733   1.004   6.067  15.569 -0.0157  0.0127 -1.0174
 5773TIP3    H138734   0.952   6.102  15.497  0.0425  0.7226 -0.7240
 5773TIP3    H238735   0.945   6.010  15.616 -0.8665  1.6444 -0.0629
 5774TIP3   OH238736   2.364   0.527   1.702 -0.3065  0.4969  0.0760
 5774TIP3    H138737   2.376   0.444   1.746  0.2206  1.3108  1.4843
 5774TIP3    H238738   2.449   0.545   1.661 -0.3959  0.3865 -0.1607
 5775TIP3   OH238739   2.755   2.772   1.232 -1.2096 -0.2540  0.2144
 5775TIP3    H138740   2.758   2.838   1.300 -1.0431  0.6047 -0.6128
 5775TIP3    H238741   2.676   2.792   1.182 -0.0870  0.5594 -1.2582
 5776TIP3   OH238742   5.532   3.768  13.700  0.5237  0.2601 -0.1697
 5776TIP3    H138743   5.487   3.750  13.782  1.9396 -1.2158  0.3101
 5776TIP3    H238744   5.465   3.754  13.633 -0.1713 -0.2807  0.6206
 5777TIP3   OH238745   5.486   1.406   2.933  0.1318  0.0280 -0.4038
 5777TIP3    H138746   5.504   1.370   2.846 -0.6453 -0.9586 -0.1642
 5777TIP3    H238747   5.563   1.459   2.953  1.1893 -1.2869 -0.8881
 5778TIP3   OH238748   2.105   2.146  15.482 -0.6072  0.3960 -0.3039
 5778TIP3    H138749   2.182   2.159  15.428 -1.1677 -1.5784 -1.6367
 5778TIP3    H238750   2.082   2.233  15.514  0.4347  1.4199 -2.2891
 5779TIP3   OH238751   3.081   0.769  16.317  0.1187 -0.4264 -0.7503
 5779TIP3    H138752   2.995   0.727  16.325  0.6496 -1.7227 -1.6394
 5779TIP3    H238753   3.083   0.834  16.387 -0.3679 -2.5003  1.2561
 5780TIP3   OH238754   5.869   5.292   3.665 -0.0042  0.4887  0.2867
 5780TIP3    H138755   5.865   5.196   3.669  3.4685  0.3180  0.7891
 5780TIP3    H238756   5.876   5.319   3.757 -0.2539  1.2074  0.0951
 5781TIP3   OH238757   5.703   3.589   1.950  0.2593 -0.0907  1.0487
 5781TIP3    H138758   5.692   3.609   1.857  2.2861  0.6853  0.9512
 5781TIP3    H238759   5.765   3.516   1.952  1.1163  0.6459  1.8136
 5782TIP3   OH238760   6.083   1.223   4.129  0.1633  0.0253  0.0966
 5782TIP3    H138761   6.027   1.294   4.161  1.3327  1.3342 -0.7207
 5782TIP3    H238762   6.035   1.186   4.055 -0.9241 -0.7359  1.1544
 5783TIP3   OH238763   1.045   1.094  12.905 -0.0562  0.2082 -0.3436
 5783TIP3    H138764   1.039   1.189  12.916  1.9141  0.2327  0.8355
 5783TIP3    H238765   0.959   1.068  12.870 -0.0334  2.6178 -2.3370
 5784TIP3   OH238766   0.551   2.462   0.827 -0.1368 -0.3338  0.1695
 5784TIP3    H138767   0.526   2.448   0.918 -0.8034  1.6345  0.3121
 5784TIP3    H238768   0.476   2.430   0.777  0.3482 -1.6831  0.2792
 5785TIP3   OH238769   3.623   5.604  11.365  0.4552  0.3408 -0.3167
 5785TIP3    H138770   3.712   5.569  11.369 -0.1237 -1.1039  0.2277
 5785TIP3    H238771   3.569   5.531  11.335 -0.2850  1.7450 -2.5614
 5786TIP3   OH238772   1.397   1.206  12.685 -0.2811  0.2713  0.8690
 5786TIP3    H138773   1.410   1.299  12.666 -1.5024  0.2352 -0.1622
 5786TIP3    H238774   1.303   1.192  12.674  0.0906 -1.3826 -0.3810
 5787TIP3   OH238775   1.470   5.292   0.840 -0.1997 -0.1774  0.2731
 5787TIP3    H138776   1.472   5.313   0.747 -2.0064 -0.0632  0.2330
 5787TIP3    H238777   1.532   5.221   0.851  0.3027  0.0697 -0.9530
 5788TIP3   OH238778   1.937   4.641  16.989 -0.1422 -0.0271 -0.0267
 5788TIP3    H138779   1.891   4.564  16.954 -0.5170 -0.3997  1.2670
 5788TIP3    H238780   1.908   4.646  17.080  0.4851  1.1992  0.1024
 5789TIP3   OH238781   6.408   6.082   0.140  0.2493 -0.2580 -0.0608
 5789TIP3    H138782   6.400   6.177   0.131  1.0771 -0.1124  0.7837
 5789TIP3    H238783   6.367   6.062   0.224  0.9396 -0.5360  0.2108
 5790TIP3   OH238784   0.362   5.904   4.716 -0.7051 -0.2424  0.3801
 5790TIP3    H138785   0.420   5.965   4.671  1.1720 -1.5100  1.0726
 5790TIP3    H238786   0.320   5.957   4.784  1.2642  0.1825  1.2829
 5791TIP3   OH238787   2.004   5.930  12.055  0.1686 -0.2289  0.5056
 5791TIP3    H138788   1.974   5.889  12.137  1.7900 -1.7262  0.3876
 5791TIP3    H238789   1.939   5.903  11.990  1.0307 -2.3708  0.5021
 5792TIP3   OH238790   6.582   3.692  11.442 -0.4555 -0.1020  0.3525
 5792TIP3    H138791   6.619   3.740  11.367 -3.5459 -0.4000 -1.4345
 5792TIP3    H238792   6.500   3.737  11.460  0.5286  0.3278  4.0310
 5793TIP3   OH238793   6.581   4.342   5.419 -0.1807  0.2783 -0.0155
 5793TIP3    H138794   6.550   4.391   5.343  0.8218 -2.2864 -2.1309
 5793TIP3    H238795   6.511   4.280   5.438 -0.5892  1.1519  1.4339
 5794TIP3   OH238796   1.961   3.159  11.319  0.0532  0.6994  0.1380
 5794TIP3    H138797   2.013   3.147  11.239  1.3766  0.4803  1.0100
 5794TIP3    H238798   1.870   3.145  11.291  0.4580  1.0669 -1.4076
 5795TIP3   OH238799   5.595   3.825   2.789 -0.7921  0.1738  0.4423
 5795TIP3    H138800   5.669   3.884   2.803 -1.9971  1.8338 -0.0257
 5795TIP3    H238801   5.520   3.871   2.827 -1.3656 -2.1228  2.1951
 5796TIP3   OH238802   2.760   5.721  17.013  0.0841  0.7080 -0.0757
 5796TIP3    H138803   2.764   5.752  17.104  0.2115 -0.7606  0.4326
 5796TIP3    H238804   2.690   5.655  17.014  1.0793 -0.3759 -0.7035
 5797TIP3   OH238805   0.140   2.513  10.920  0.4007  0.3157  0.2660
 5797TIP3    H138806   0.203   2.455  10.877  0.9059 -0.5143  2.0549
 5797TIP3    H238807   0.055   2.474  10.902  0.4932  0.6902 -1.0319
 5798TIP3   OH238808   1.881   2.574   0.012  0.3087  0.0916  0.6087
 5798TIP3    H138809   1.866   2.657  -0.032 -1.5713 -1.6245 -2.1431
 5798TIP3    H238810   1.973   2.577   0.038  0.3531  2.8538  0.2470
 5799TIP3   OH238811   5.111   5.951  13.872 -0.4323 -0.6050  0.0250
 5799TIP3    H138812   5.105   5.953  13.967  1.0537 -0.6296  0.1267
 5799TIP3    H238813   5.096   5.859  13.849  0.1205 -0.7623  0.2994
 5800TIP3   OH238814   4.004   5.911  14.167 -0.1866 -0.1495 -0.3292
 5800TIP3    H138815   3.944   5.931  14.239 -1.3558 -3.0262 -0.4554
 5800TIP3    H238816   3.950   5.913  14.089  0.9327  2.2052 -1.0902
 5801TIP3   OH238817   3.982   2.126  12.328 -0.0126  0.0059  0.5592
 5801TIP3    H138818   4.020   2.198  12.377 -1.6590  0.3365  1.3847
 5801TIP3    H238819   3.985   2.154  12.237 -0.8808  1.2350  0.9046
 5802TIP3   OH238820   2.635   4.532  12.912  0.6446 -1.0916  0.7092
 5802TIP3    H138821   2.563   4.500  12.858  0.2819 -0.0833  0.6008
 5802TIP3    H238822   2.593   4.567  12.991  1.0583 -1.0414  0.9142
 5803TIP3   OH238823   6.370   1.564   2.777  0.2760  0.0992  0.4526
 5803TIP3    H138824   6.307   1.500   2.743  1.3972  0.0858 -1.6690
 5803TIP3    H238825   6.380   1.541   2.869 -0.2020 -2.0721 -0.0050
 5804TIP3   OH238826   6.044   0.959  11.243  0.2096  0.2053  0.7722
 5804TIP3    H138827   6.026   1.052  11.231 -0.0825  0.2006  1.1586
 5804TIP3    H238828   6.023   0.919  11.159  1.0683  0.5956  0.3586
 5805TIP3   OH238829   5.002   3.731  10.388 -0.0806  0.0409 -0.0531
 5805TIP3    H138830   5.009   3.811  10.440 -0.4694 -0.1300  0.2610
 5805TIP3    H238831   5.086   3.686  10.404 -0.3579 -0.2094  0.7671
 5806TIP3   OH238832   4.462   1.900   0.889 -0.3810 -0.2625 -0.2874
 5806TIP3    H138833   4.535   1.862   0.841 -0.5438 -0.6386 -0.2381
 5806TIP3    H238834   4.473   1.869   0.979 -1.7514 -2.0108 -0.7027
 5807TIP3   OH238835   3.159   1.998  12.186 -0.3698 -0.0353 -0.5342
 5807TIP3    H138836   3.128   2.077  12.231 -2.3800 -0.2712 -1.4456
 5807TIP3    H238837   3.149   1.929  12.252  0.5669  0.2962 -0.0264
 5808TIP3   OH238838   3.696   2.856  11.606 -0.0809 -0.4964 -0.1220
 5808TIP3    H138839   3.750   2.832  11.530  1.2576  1.4348  0.1722
 5808TIP3    H238840   3.674   2.773  11.647  0.8994 -1.4533 -1.4854
 5809TIP3   OH238841   3.567   1.979  16.282 -0.0099 -0.3705 -0.1659
 5809TIP3    H138842   3.637   2.017  16.229  1.0297 -1.7413  0.2047
 5809TIP3    H238843   3.571   1.885  16.263 -2.8681 -0.2872 -1.4693
 5810TIP3   OH238844   4.130   2.774  13.534  0.2125  0.0878  0.4367
 5810TIP3    H138845   4.049   2.823  13.522 -0.4382 -0.5840  1.9974
 5810TIP3    H238846   4.152   2.742  13.447 -0.8236  0.8527 -0.1088
 5811TIP3   OH238847   3.972   5.388   4.121  0.2710  0.0680  0.0755
 5811TIP3    H138848   3.911   5.423   4.055  0.4510  0.7148  0.2439
 5811TIP3    H238849   3.917   5.335   4.179  0.1048 -0.4609 -0.5647
 5812TIP3   OH238850   4.037   5.810   1.280  0.4085  0.0147  0.2736
 5812TIP3    H138851   4.034   5.869   1.355  0.1296 -0.0350  0.3020
 5812TIP3    H238852   4.009   5.726   1.315  0.6076 -0.0882  0.1875
 5813TIP3   OH238853   2.030   4.718  15.747 -0.4126  0.3845 -0.2843
 5813TIP3    H138854   2.100   4.739  15.809 -0.9826  1.7654 -0.0800
 5813TIP3    H238855   1.954   4.699  15.803 -1.0049  1.9222 -0.5442
 5814TIP3   OH238856   1.245   0.552  16.622 -0.0589 -0.1886 -0.2108
 5814TIP3    H138857   1.188   0.512  16.688  1.0893  0.3992  1.1711
 5814TIP3    H238858   1.258   0.642  16.653 -0.6815  0.5507 -2.0214
 5815TIP3   OH238859   4.561   5.952  11.783 -0.1762  0.5843 -0.2157
 5815TIP3    H138860   4.609   5.929  11.704 -0.4207  1.9141 -0.7677
 5815TIP3    H238861   4.607   5.906  11.853  0.4840 -0.0209 -1.0292
 5816TIP3   OH238862   4.687   5.483   2.795 -0.1543 -0.0946  0.2084
 5816TIP3    H138863   4.742   5.554   2.763 -1.0689 -0.0767 -1.3686
 5816TIP3    H238864   4.664   5.508   2.884  0.7819  0.8385  0.1904
 5817TIP3   OH238865   4.661   3.808   2.645 -0.4836  0.1622  0.3084
 5817TIP3    H138866   4.671   3.775   2.556 -1.3538 -1.9803  0.9759
 5817TIP3    H238867   4.694   3.738   2.701 -2.7374  0.2027  1.7914
 5818TIP3   OH238868   0.059   1.321   4.590 -0.1540  0.4614  0.0957
 5818TIP3    H138869  -0.032   1.348   4.577 -0.4222  0.6234  2.1522
 5818TIP3    H238870   0.102   1.398   4.627  0.5212 -0.0233  0.3358
 5819TIP3   OH238871   4.162   0.751   0.228 -0.4737  0.0475  0.5561
 5819TIP3    H138872   4.117   0.833   0.244 -2.7713 -1.0318 -0.1056
 5819TIP3    H238873   4.175   0.712   0.314  2.8630  2.1641  1.1184
 5820TIP3   OH238874   6.606   1.481   4.955  0.3314  0.1252 -0.3951
 5820TIP3    H138875   6.641   1.570   4.952  1.0035 -0.0985  0.3906
 5820TIP3    H238876   6.516   1.489   4.926 -0.0407  1.2998  1.0262
 5821TIP3   OH238877   6.443   2.265  11.471  0.2906 -0.9484 -0.1659
 5821TIP3    H138878   6.444   2.181  11.425  1.9597 -0.7850 -0.4832
 5821TIP3    H238879   6.523   2.308  11.442 -0.3020  0.5458  0.3793
 5822TIP3   OH238880   5.398   3.536   3.150  0.4848 -0.2954 -0.0248
 5822TIP3    H138881   5.365   3.482   3.078 -1.6372  0.9832 -0.0423
 5822TIP3    H238882   5.492   3.541   3.135  0.1794 -0.7125 -2.2536
 5823TIP3   OH238883   5.255   1.631   0.128  0.0936 -0.4010 -0.2113
 5823TIP3    H138884   5.269   1.686   0.051  0.2199 -3.0775 -2.1615
 5823TIP3    H238885   5.171   1.661   0.163 -0.1059  0.6738 -1.5310
 5824TIP3   OH238886   0.460   5.862  13.672 -0.2802 -0.4965 -0.1895
 5824TIP3    H138887   0.402   5.815  13.731 -0.4736 -1.4325 -1.1020
 5824TIP3    H238888   0.457   5.812  13.590 -0.5755  1.1459 -1.2200
 5825TIP3   OH238889   4.163   5.871  15.453 -0.2177 -0.1192  0.3900
 5825TIP3    H138890   4.245   5.843  15.494  0.0597  0.0252 -0.0511
 5825TIP3    H238891   4.181   5.959  15.421 -0.0952 -0.5926 -0.9000
 5826TIP3   OH238892   6.654   3.066  15.780  0.3077  0.4017 -0.4169
 5826TIP3    H138893   6.652   2.975  15.810 -0.4718  1.1280  1.8717
 5826TIP3    H238894   6.743   3.079  15.748  0.3371 -1.2579 -1.0576
 5827TIP3   OH238895   4.141   0.641  15.233 -0.0752  0.5394 -0.1094
 5827TIP3    H138896   4.190   0.570  15.193 -2.3911 -0.8867 -0.5487
 5827TIP3    H238897   4.146   0.713  15.170  3.9429  1.5317  1.2203
 5828TIP3   OH238898   5.428   4.205   3.346 -0.2779  0.0518  0.3920
 5828TIP3    H138899   5.459   4.127   3.300 -2.1474 -0.3328 -0.2638
 5828TIP3    H238900   5.339   4.217   3.314 -0.9949  0.8132  2.6106
 5829TIP3   OH238901   6.408   4.490  14.072  0.0390  0.1841  0.1213
 5829TIP3    H138902   6.434   4.547  14.144  0.5731  0.1674 -0.0573
 5829TIP3    H238903   6.464   4.413  14.081  0.6011  0.4859 -0.7313
 5830TIP3   OH238904   4.811   4.296   2.729 -0.1962  0.6708 -0.1616
 5830TIP3    H138905   4.741   4.275   2.668 -1.1456 -0.8400  1.4060
 5830TIP3    H238906   4.769   4.355   2.793 -0.2545 -0.7491  1.1470
 5831TIP3   OH238907   5.557   6.309  13.932 -0.5859  0.0990 -0.4866
 5831TIP3    H138908   5.587   6.313  14.023 -0.8388 -1.1252 -0.3403
 5831TIP3    H238909   5.616   6.368  13.885  1.4779 -1.5701 -0.0468
 5832TIP3   OH238910   6.396   3.061   2.362 -0.4748  0.2930 -1.0220
 5832TIP3    H138911   6.335   3.024   2.298 -1.2935 -1.8561  0.9671
 5832TIP3    H238912   6.340   3.106   2.425  0.0344 -0.9315  0.3198
 5833TIP3   OH238913   1.184   4.750  13.012  0.0151 -0.0446  0.2942
 5833TIP3    H138914   1.144   4.813  13.071 -1.2737 -0.0340 -0.5536
 5833TIP3    H238915   1.164   4.665  13.051 -1.5606 -0.0781 -0.5221
 5834TIP3   OH238916   4.629   3.618   5.623 -0.0347  0.0944 -0.1307
 5834TIP3    H138917   4.608   3.545   5.681 -0.5851  0.7102  0.4404
 5834TIP3    H238918   4.724   3.611   5.609  0.1646  0.1865  1.1614
 5835TIP3   OH238919   5.739   6.249  12.980  0.1433 -0.0591 -0.0113
 5835TIP3    H138920   5.682   6.294  13.043  0.3827 -0.5143  0.5307
 5835TIP3    H238921   5.797   6.318  12.947  2.3027 -0.4658  2.8045
 5836TIP3   OH238922   6.566   4.161   0.806  0.5383  0.4929 -0.0333
 5836TIP3    H138923   6.652   4.167   0.765  0.8912 -0.2075  0.5914
 5836TIP3    H238924   6.527   4.082   0.769  0.5874  0.2352  0.4606
 5837TIP3   OH238925   3.764   6.480  14.882 -0.0973  0.0526  0.1237
 5837TIP3    H138926   3.855   6.504  14.898  0.0697  0.6920 -1.6051
 5837TIP3    H238927   3.769   6.397  14.835 -0.4093 -0.0539  0.2812
 5838TIP3   OH238928   2.295   3.908  12.776  0.8628  0.2139  0.8450
 5838TIP3    H138929   2.246   3.894  12.857  0.1268 -0.7592  0.2512
 5838TIP3    H238930   2.261   3.990  12.742 -1.7399 -1.3295 -0.4802
 5839TIP3   OH238931   4.936   0.126  14.795 -0.0572  0.3996  0.7418
 5839TIP3    H138932   4.923   0.144  14.701  1.1846  2.6788  0.9695
 5839TIP3    H238933   4.847   0.115  14.829 -0.6549  1.8444 -0.2933
 5840TIP3   OH238934   6.329   5.699   4.506 -0.1410  0.4323 -0.0292
 5840TIP3    H138935   6.371   5.616   4.530 -0.1019  0.0305 -1.4755
 5840TIP3    H238936   6.399   5.752   4.468 -0.0408  1.3681  1.3928
 5841TIP3   OH238937   1.910   0.989   0.691  0.3119  0.1480  0.6206
 5841TIP3    H138938   1.881   1.079   0.709  2.3038  0.5845  1.8213
 5841TIP3    H238939   1.886   0.975   0.600 -0.5789  1.6793  0.5841
 5842TIP3   OH238940   6.317   2.261  14.178 -0.4293 -0.2023 -0.2997
 5842TIP3    H138941   6.307   2.221  14.092 -0.7138 -1.6688  0.3912
 5842TIP3    H238942   6.396   2.315  14.171 -0.6423 -0.0441 -1.5683
 5843TIP3   OH238943   0.795   1.016  16.852  0.5935 -0.6365 -0.3252
 5843TIP3    H138944   0.849   1.016  16.931  0.8008  0.2333 -0.4628
 5843TIP3    H238945   0.834   1.083  16.796  0.1833 -0.9411 -0.9879
 5844TIP3   OH238946   5.584   3.530   4.608 -0.1761  0.1440 -0.0824
 5844TIP3    H138947   5.488   3.529   4.603 -0.1326 -1.5985 -1.0087
 5844TIP3    H238948   5.604   3.606   4.661 -2.1054  0.2437  0.5585
 5845TIP3   OH238949   1.545   4.672   4.801  0.3721  0.6805 -0.4034
 5845TIP3    H138950   1.452   4.687   4.820  0.2248  1.5240 -1.7054
 5845TIP3    H238951   1.588   4.754   4.823  0.6188  0.7045 -0.9465
 5846TIP3   OH238952   0.526   6.758  13.613  0.0815 -0.3856 -0.1318
 5846TIP3    H138953   0.481   6.707  13.546 -0.4090  2.0293 -1.7030
 5846TIP3    H238954   0.615   6.771  13.578  0.6976 -1.4986  0.9913
 5847TIP3   OH238955   3.708   2.112   0.457  0.0548 -0.0200  0.0720
 5847TIP3    H138956   3.669   2.189   0.415  1.5141 -0.6140 -2.4613
 5847TIP3    H238957   3.721   2.049   0.386  1.4100 -1.5623  1.6314
 5848TIP3   OH238958   4.981   2.984  10.951 -0.2058  0.1514 -0.3707
 5848TIP3    H138959   5.070   3.017  10.941 -0.4667  0.4349 -1.8521
 5848TIP3    H238960   4.926   3.058  10.924 -0.8470 -0.7057 -1.4172
 5849TIP3   OH238961   2.599   3.279   1.538  0.4804 -0.2169  0.0992
 5849TIP3    H138962   2.535   3.237   1.595 -0.2175  0.8373  0.0976
 5849TIP3    H238963   2.680   3.230   1.553 -0.6875 -2.6387 -1.1246
 5850TIP3   OH238964   5.940   4.289   5.838 -0.0008 -0.3475 -0.1763
 5850TIP3    H138965   5.996   4.233   5.892 -0.3256  0.4100  0.9598
 5850TIP3    H238966   6.001   4.350   5.796  0.0027  0.8821  1.5468
 5851TIP3   OH238967   3.893   2.371   5.213 -0.1167  0.6998 -0.1976
 5851TIP3    H138968   3.891   2.353   5.307  0.1301  0.4280 -0.2413
 5851TIP3    H238969   3.811   2.333   5.180 -1.0154  2.2982  0.1631
 5852TIP3   OH238970   6.482   1.754   5.229  0.0638 -0.4138 -0.9428
 5852TIP3    H138971   6.501   1.662   5.215 -0.7569 -0.5659 -1.0312
 5852TIP3    H238972   6.476   1.791   5.141 -1.4622 -0.6482 -0.9414
 5853TIP3   OH238973   2.838   5.272  14.831 -0.4183 -0.1052  0.4020
 5853TIP3    H138974   2.822   5.301  14.921 -0.3359  0.5899  0.2018
 5853TIP3    H238975   2.752   5.270  14.790 -0.3073  0.9770  0.0957
 5854TIP3   OH238976   5.012   5.037  12.808 -0.4455 -0.1075  0.0699
 5854TIP3    H138977   4.967   4.972  12.755 -1.9626  0.3893  0.7195
 5854TIP3    H238978   4.981   5.020  12.897  2.0464 -0.9241  0.8254
 5855TIP3   OH238979   2.920   6.668  13.364 -0.4021  0.0022 -0.5202
 5855TIP3    H138980   2.941   6.755  13.330  1.1113 -0.4473 -0.7878
 5855TIP3    H238981   2.882   6.621  13.290 -2.1101  0.7306 -0.1164
 5856TIP3   OH238982   2.795   0.822  10.801 -0.1532 -0.4177 -0.4196
 5856TIP3    H138983   2.782   0.779  10.717 -1.3343  0.9440 -0.9321
 5856TIP3    H238984   2.890   0.829  10.809 -0.0361 -0.4882 -1.6603
 5857TIP3   OH238985   5.710   3.094   1.025  0.4908 -0.0443  0.0135
 5857TIP3    H138986   5.703   3.187   1.004 -0.0137 -0.1913 -0.4935
 5857TIP3    H238987   5.797   3.084   1.064  2.3637 -0.0970 -3.9136
 5858TIP3   OH238988   0.976   0.630   2.331 -0.5748  0.1755  0.3287
 5858TIP3    H138989   0.951   0.660   2.418 -0.7829 -0.1943  0.3986
 5858TIP3    H238990   0.990   0.536   2.341 -0.4512  0.1569 -0.0038
 5859TIP3   OH238991   4.068   4.701   1.667 -0.1372  0.3183  0.0614
 5859TIP3    H138992   4.071   4.792   1.637 -0.1988  0.6398  1.0085
 5859TIP3    H238993   3.983   4.669   1.637 -0.7628  1.0418  1.0202
 5860TIP3   OH238994   1.434   4.594   3.950  0.5394 -0.5581  0.4214
 5860TIP3    H138995   1.442   4.655   4.024 -0.6493 -1.3054  1.1709
 5860TIP3    H238996   1.381   4.522   3.983 -1.3269 -0.1791 -1.6273
 5861TIP3   OH238997   3.744   4.614   5.692  0.5910 -0.0129  0.2811
 5861TIP3    H138998   3.831   4.578   5.675 -0.2840 -3.3996  2.4382
 5861TIP3    H238999   3.691   4.583   5.619  0.4455 -0.8838  0.7480
 5862TIP3   OH239000   6.041   3.530  15.171  0.1304  0.6365  0.2503
 5862TIP3    H139001   6.107   3.516  15.103 -0.1486 -0.6566  0.2495
 5862TIP3    H239002   5.979   3.592  15.132  0.0250 -0.0211 -0.6321
 5863TIP3   OH239003   0.107   6.721   2.501 -0.0109 -0.6802  0.8698
 5863TIP3    H139004   0.173   6.776   2.543 -0.9574  0.2034  1.2085
 5863TIP3    H239005   0.023   6.761   2.523 -0.4831  1.1040 -3.6451
 5864TIP3   OH239006   1.349   0.633   3.949  0.2080  0.0359 -0.8728
 5864TIP3    H139007   1.349   0.570   3.876 -0.4388  0.5179 -1.3008
 5864TIP3    H239008   1.397   0.709   3.915  1.0615 -0.2577 -0.3270
 5865TIP3   OH239009   4.060   2.678  16.304  0.2525 -0.1809  0.7905
 5865TIP3    H139010   4.100   2.706  16.386  0.1259  0.5106  0.6185
 5865TIP3    H239011   4.035   2.759  16.260 -2.0171 -0.6135  1.2179
 5866TIP3   OH239012   4.342   6.561   1.842  0.1701 -0.2342  0.9465
 5866TIP3    H139013   4.356   6.598   1.755 -1.0570  0.4736  1.0274
 5866TIP3    H239014   4.424   6.576   1.889  0.0499  1.4957  0.6492
 5867TIP3   OH239015   6.313   1.880  16.262  0.4215  0.2952  0.0056
 5867TIP3    H139016   6.334   1.826  16.186 -0.4616 -0.8455  0.5448
 5867TIP3    H239017   6.394   1.885  16.312  0.9723  0.9480 -0.9447
 5868TIP3   OH239018   6.714   3.674   5.834  0.6622 -0.6246  0.4450
 5868TIP3    H139019   6.751   3.660   5.921 -0.1176 -1.2103  0.6905
 5868TIP3    H239020   6.621   3.655   5.844  0.7339 -1.6672 -0.7432
 5869TIP3   OH239021   3.520   4.743  12.730 -0.6586 -0.1658  0.1879
 5869TIP3    H139022   3.611   4.771  12.723 -0.1530 -0.5435  4.2485
 5869TIP3    H239023   3.515   4.665  12.675  1.1177  0.5963 -1.0970
 5870TIP3   OH239024   3.521   1.414   5.120 -0.1658 -0.1147 -0.5546
 5870TIP3    H139025   3.429   1.439   5.131  0.0654  0.1773  0.9061
 5870TIP3    H239026   3.565   1.456   5.194  0.9155 -1.3712 -0.4730
 5871TIP3   OH239027   6.595   3.825   2.514 -0.0029 -0.2489  0.2104
 5871TIP3    H139028   6.663   3.767   2.480  0.3151  0.5427 -0.5204
 5871TIP3    H239029   6.514   3.792   2.476 -0.0876 -1.4190  1.3729
 5872TIP3   OH239030   1.130   4.822   3.337  0.3877 -0.0183 -0.0692
 5872TIP3    H139031   1.170   4.891   3.390  0.1357  0.6032 -0.6759
 5872TIP3    H239032   1.104   4.866   3.256  0.7944 -0.9634 -0.7235
 5873TIP3   OH239033   5.430   0.885   0.723 -0.5405 -0.1363 -0.1225
 5873TIP3    H139034   5.515   0.928   0.713 -0.7876  0.1423 -1.0876
 5873TIP3    H239035   5.366   0.955   0.713 -0.8724 -0.1641  1.6383
 5874TIP3   OH239036   5.876   4.172   4.819  0.3288  0.2687 -0.0880
 5874TIP3    H139037   5.932   4.113   4.869  0.5132 -0.5784 -1.2600
 5874TIP3    H239038   5.934   4.242   4.791  0.9078 -0.7956 -1.6060
 5875TIP3   OH239039   4.085   2.146   0.681 -0.0490  0.0567  0.0642
 5875TIP3    H139040   4.120   2.071   0.729 -0.8602 -1.1514 -1.1973
 5875TIP3    H239041   4.067   2.112   0.593 -0.2498  1.7815 -0.5796
 5876TIP3   OH239042   3.049   2.868  14.367 -0.4354 -0.2647  0.1471
 5876TIP3    H139043   3.113   2.814  14.320  2.5427  0.6793  2.8748
 5876TIP3    H239044   3.064   2.956  14.335  1.2856  0.3121  2.3866
 5877TIP3   OH239045   5.529   4.305   2.916  0.2626  0.7136 -0.2258
 5877TIP3    H139046   5.610   4.270   2.953  1.1497  0.5419 -2.2306
 5877TIP3    H239047   5.459   4.267   2.969  1.4401 -0.3280  0.5919
 5878TIP3   OH239048   6.541   5.169  16.813  0.1612  0.4293 -0.0329
 5878TIP3    H139049   6.580   5.083  16.798  1.6590  1.1580 -0.4855
 5878TIP3    H239050   6.447   5.155  16.808  0.4449 -0.5730 -3.4919
 5879TIP3   OH239051   0.812   4.915  14.573 -0.2701  0.1586  0.1635
 5879TIP3    H139052   0.851   5.000  14.552 -1.7563  1.3854  2.1904
 5879TIP3    H239053   0.721   4.922  14.542  0.3268 -1.7572 -2.2297
 5880TIP3   OH239054   5.440   4.047   0.755 -0.1055  0.1365 -0.0290
 5880TIP3    H139055   5.360   4.068   0.707 -0.1743  0.3202  0.1670
 5880TIP3    H239056   5.452   3.953   0.741  1.0732  0.5630 -2.2298
 5881TIP3   OH239057   0.201   5.455  13.858  0.8510 -0.3978 -0.5777
 5881TIP3    H139058   0.113   5.472  13.891  1.0945  0.9083 -0.5980
 5881TIP3    H239059   0.189   5.383  13.795 -0.3590  0.4686 -1.3599
 5882TIP3   OH239060   1.919   2.446   2.734 -0.4194  0.0767  0.1803
 5882TIP3    H139061   1.869   2.516   2.695  1.5105  0.4085 -1.7851
 5882TIP3    H239062   1.987   2.490   2.786  0.0594 -0.3300 -0.0891
 5883TIP3   OH239063   1.362   0.295  11.278  0.7338  0.2758 -0.1108
 5883TIP3    H139064   1.268   0.298  11.261  0.7073  1.1325  0.2037
 5883TIP3    H239065   1.401   0.288  11.191  0.3375 -1.2008 -0.1812
 5884TIP3   OH239066   2.247   6.339   4.928  0.2831  0.5750 -0.0280
 5884TIP3    H139067   2.165   6.389   4.929 -1.0377 -1.5364  0.9363
 5884TIP3    H239068   2.289   6.360   5.012  0.5325  1.3145 -0.3327
 5885TIP3   OH239069   4.856   2.564  14.234 -0.2755 -0.4496 -0.2305
 5885TIP3    H139070   4.858   2.633  14.301  0.7428 -0.2106 -0.4992
 5885TIP3    H239071   4.836   2.484  14.283 -0.5971 -0.1036  0.2064
 5886TIP3   OH239072   2.040   3.772  14.225  0.1645  0.1776 -0.1394
 5886TIP3    H139073   2.104   3.701  14.221 -0.6700 -0.5852 -0.2810
 5886TIP3    H239074   1.985   3.750  14.301  0.9122  1.5531  0.8141
 5887TIP3   OH239075   0.300   5.089   2.454 -0.0314  0.2267  0.2581
 5887TIP3    H139076   0.266   5.127   2.535 -0.0317  0.0561  0.3386
 5887TIP3    H239077   0.229   5.100   2.390 -0.3462 -0.3760  0.4975
 5888TIP3   OH239078   1.092   0.849   0.030 -0.0849  0.2980 -0.4070
 5888TIP3    H139079   1.180   0.886   0.034 -0.3539  0.9026  0.0842
 5888TIP3    H239080   1.105   0.754   0.026  0.5904  0.3908 -0.3513
 5889TIP3   OH239081   3.552   2.032   4.512 -0.7448  0.7893 -0.6865
 5889TIP3    H139082   3.518   1.968   4.575 -0.3363 -0.4919 -1.7572
 5889TIP3    H239083   3.647   2.032   4.527 -0.7404  1.0928 -0.7244
 5890TIP3   OH239084   5.770   5.702  16.873  0.3969 -0.0110 -0.3111
 5890TIP3    H139085   5.734   5.788  16.851 -0.9098 -0.2989  0.6574
 5890TIP3    H239086   5.817   5.717  16.956  1.9005  0.1998 -1.1860
 5891TIP3   OH239087   1.229   2.595   1.982 -0.1601  0.3923  0.5375
 5891TIP3    H139088   1.201   2.527   1.920 -0.1655  0.0279  0.9391
 5891TIP3    H239089   1.201   2.677   1.942 -1.8215  0.0329  0.9360
 5892TIP3   OH239090   1.883   4.457  12.369 -0.7271  0.1701 -0.1296
 5892TIP3    H139091   1.790   4.461  12.389 -1.1693  0.8451 -2.1577
 5892TIP3    H239092   1.910   4.549  12.363  0.0426 -0.0211  0.2842
 5893TIP3   OH239093   6.189   6.477   3.194 -0.0089  0.0197 -0.1575
 5893TIP3    H139094   6.242   6.556   3.206 -1.6858  1.1050  0.1714
 5893TIP3    H239095   6.191   6.434   3.280 -0.9785  0.8849  0.3009
 5894TIP3   OH239096   3.122   1.217  13.290 -0.0041  0.3535  0.3302
 5894TIP3    H139097   3.137   1.237  13.198 -0.0637 -2.0762 -0.2403
 5894TIP3    H239098   3.157   1.292  13.337  2.0488  0.6397 -1.5666
 5895TIP3   OH239099   5.345   2.695  11.351 -0.1288 -1.0664  0.1295
 5895TIP3    H139100   5.312   2.701  11.262 -2.3371 -1.8542  0.8499
 5895TIP3    H239101   5.415   2.760  11.356 -1.8596  0.9795 -1.3718
 5896TIP3   OH239102   4.462   6.277   3.993  0.2119  0.5724 -0.0249
 5896TIP3    H139103   4.449   6.262   4.087 -0.4321  0.2458 -0.1635
 5896TIP3    H239104   4.531   6.216   3.968 -1.9164 -1.7353 -0.4454
 5897TIP3   OH239105   4.637   2.048  15.641  0.2190  0.4289 -0.0225
 5897TIP3    H139106   4.711   2.091  15.684  0.8041  0.5249 -1.1094
 5897TIP3    H239107   4.560   2.077  15.690  0.7954  1.2108  0.4211
 5898TIP3   OH239108   2.677   6.128  11.806  0.1646 -0.0543  0.1420
 5898TIP3    H139109   2.622   6.203  11.785 -2.2236 -1.0986  2.4578
 5898TIP3    H239110   2.655   6.063  11.740 -0.4895 -0.0311  0.3356
 5899TIP3   OH239111   2.254   0.968  15.820  0.5816 -0.4762 -0.0413
 5899TIP3    H139112   2.237   0.913  15.896 -1.3732 -0.9557 -0.7895
 5899TIP3    H239113   2.250   0.908  15.746  0.3533  0.3591 -0.7133
 5900TIP3   OH239114   5.710   1.432   4.651  0.1348  0.1382  0.3281
 5900TIP3    H139115   5.656   1.354   4.663  0.8191 -0.2316  1.0142
 5900TIP3    H239116   5.707   1.477   4.736 -0.1582  0.7931 -0.0257
 5901TIP3   OH239117   4.576   5.455   4.804 -0.1364 -0.4040  0.3421
 5901TIP3    H139118   4.611   5.526   4.858  1.0037 -0.7429  0.0381
 5901TIP3    H239119   4.650   5.396   4.790 -0.5087 -0.4682 -1.3671
 5902TIP3   OH239120   1.967   4.795   1.978  0.7180  0.5369 -0.0290
 5902TIP3    H139121   2.047   4.780   1.928  0.6629 -3.5377  0.9228
 5902TIP3    H239122   1.897   4.770   1.919  0.4104 -0.0962  0.5975
 5903TIP3   OH239123   3.852   3.301  11.439  0.5631 -0.1907 -0.1218
 5903TIP3    H139124   3.832   3.395  11.436  0.4019 -0.2466 -0.9198
 5903TIP3    H239125   3.814   3.266  11.359  1.1781 -0.8363 -0.1345
 5904TIP3   OH239126   4.118   1.326   6.197 -0.4178 -0.5836 -0.9860
 5904TIP3    H139127   4.082   1.412   6.220 -1.0399 -0.1992 -3.2927
 5904TIP3    H239128   4.053   1.264   6.229  0.0522 -0.2400  0.7331
 5905TIP3   OH239129   2.149   3.888  13.444 -0.2183  0.2463 -0.5372
 5905TIP3    H139130   2.169   3.887  13.537 -2.4820  3.3463  0.0918
 5905TIP3    H239131   2.204   3.958  13.408 -0.2786 -0.0749 -1.2688
 5906TIP3   OH239132   0.507   3.223  14.707 -0.5523 -0.1577  0.6489
 5906TIP3    H139133   0.505   3.184  14.795  3.3171  0.5861  1.1847
 5906TIP3    H239134   0.550   3.156  14.653  1.2570  1.1621  0.4025
 5907TIP3   OH239135   6.191   4.205  16.974  0.6097 -0.0569 -0.0484
 5907TIP3    H139136   6.165   4.291  16.939 -0.0183  0.2067  1.0521
 5907TIP3    H239137   6.283   4.217  16.999  0.7697  0.0465 -0.6883
 5908TIP3   OH239138   2.917   3.228  13.454 -0.5184 -0.1378  0.2875
 5908TIP3    H139139   3.001   3.205  13.496 -0.0506  0.4018 -0.3533
 5908TIP3    H239140   2.922   3.187  13.368 -1.1275 -0.5135  0.4230
 5909TIP3   OH239141   0.152   5.100  16.213  0.1285 -0.3329 -0.1849
 5909TIP3    H139142   0.196   5.026  16.255 -0.4719 -0.2969  0.5065
 5909TIP3    H239143   0.067   5.105  16.256 -0.5840 -0.4454 -1.5665
 5910TIP3   OH239144   4.479   0.503   1.733 -0.6636 -0.2854  0.7465
 5910TIP3    H139145   4.445   0.414   1.737  0.6174 -0.8123  0.1059
 5910TIP3    H239146   4.573   0.493   1.745 -0.2913  0.8023 -1.0274
 5911TIP3   OH239147   0.957   5.070  11.928 -0.1872 -0.5537 -0.1427
 5911TIP3    H139148   0.956   5.154  11.882  1.1692 -0.9283 -0.8771
 5911TIP3    H239149   0.928   5.007  11.863 -0.0648 -0.8302  0.0692
 5912TIP3   OH239150   4.204   4.561  12.130  0.1136 -0.6373  0.4212
 5912TIP3    H139151   4.223   4.468  12.125 -0.0914 -0.6209 -0.6213
 5912TIP3    H239152   4.283   4.599  12.170  0.0882 -1.2883  1.0995
 5913TIP3   OH239153   0.149   4.805  12.998  0.5093 -0.4677 -1.0042
 5913TIP3    H139154   0.100   4.864  13.055 -0.0267 -0.2056 -1.7169
 5913TIP3    H239155   0.112   4.719  13.014  0.9267 -0.5335 -0.3557
 5914TIP3   OH239156   0.797   0.137  13.653 -0.1362 -0.3354 -0.5285
 5914TIP3    H139157   0.715   0.182  13.632  0.6154  2.0479  1.3757
 5914TIP3    H239158   0.853   0.154  13.577 -0.6604 -0.0530 -0.8559
 5915TIP3   OH239159   5.418   4.258  11.172 -0.3370 -0.7638 -0.1846
 5915TIP3    H139160   5.445   4.202  11.245  0.5387 -1.3603 -0.9376
 5915TIP3    H239161   5.399   4.197  11.101 -1.7617 -0.2188 -0.2716
 5916TIP3   OH239162   1.355   4.939   4.734  0.2095  0.2864  0.1271
 5916TIP3    H139163   1.287   4.875   4.713 -1.0129  1.7333 -0.3881
 5916TIP3    H239164   1.307   5.018   4.758  1.7238  1.9234 -2.1158
 5917TIP3   OH239165   6.252   0.236   4.744 -0.5538 -0.2652  0.7841
 5917TIP3    H139166   6.266   0.142   4.753 -0.0684 -0.1298  1.4902
 5917TIP3    H239167   6.331   0.268   4.699 -1.4915 -0.4459 -1.0239
 5918TIP3   OH239168   1.868   2.709  11.980 -0.3555 -0.2417  0.0996
 5918TIP3    H139169   1.846   2.630  12.029  3.0320 -0.5403  1.2595
 5918TIP3    H239170   1.889   2.677  11.892  2.3782 -0.8445  0.9449
 5919TIP3   OH239171   2.596   3.067  15.119 -0.0182 -0.1901 -0.0591
 5919TIP3    H139172   2.691   3.058  15.107  0.4778  0.4929  2.9119
 5919TIP3    H239173   2.565   2.978  15.135  0.1768 -0.3617 -0.6257
 5920TIP3   OH239174   2.474   1.899   4.719 -0.2393 -0.1890 -0.5435
 5920TIP3    H139175   2.496   1.808   4.737 -0.3739 -0.6261 -2.5695
 5920TIP3    H239176   2.558   1.942   4.706 -0.2013 -0.0921 -0.0238
 5921TIP3   OH239177   4.391   6.668  11.597  0.2681  0.0164  0.5800
 5921TIP3    H139178   4.479   6.701  11.584  0.1070  0.0169 -0.5552
 5921TIP3    H239179   4.350   6.730  11.656  0.8322  0.3554  0.6107
 5922TIP3   OH239180   2.737   1.614  15.547  0.3339 -0.3153 -0.1120
 5922TIP3    H139181   2.688   1.673  15.490  0.7360  0.3763  0.2469
 5922TIP3    H239182   2.687   1.612  15.629  0.2838 -0.5259 -0.1468
 5923TIP3   OH239183   5.123   6.476   4.582 -0.4316 -0.3638 -0.2298
 5923TIP3    H139184   5.072   6.552   4.553 -0.4952 -0.7342 -1.0999
 5923TIP3    H239185   5.088   6.455   4.668  0.4901  1.4256  0.6243
 5924TIP3   OH239186   4.501   4.541   4.967 -0.1335  0.3726 -0.1225
 5924TIP3    H139187   4.488   4.552   4.872  1.3811  1.9799 -0.1521
 5924TIP3    H239188   4.420   4.574   5.006 -1.0878 -1.0080 -0.8663
 5925TIP3   OH239189   4.540   2.793  16.189 -0.3356  0.4427  0.2220
 5925TIP3    H139190   4.516   2.763  16.277 -0.0341 -0.6817 -0.0636
 5925TIP3    H239191   4.482   2.866  16.171 -1.5547 -0.3941  0.6930
 5926TIP3   OH239192   1.627   3.376  10.674 -0.3141  0.4497  0.2822
 5926TIP3    H139193   1.602   3.296  10.720 -1.1272  0.0348 -0.8739
 5926TIP3    H239194   1.616   3.445  10.740 -2.1247 -0.0453  0.5345
 5927TIP3   OH239195   0.551   3.154   4.447 -0.4255 -0.9213 -0.4403
 5927TIP3    H139196   0.488   3.165   4.377 -0.4132 -0.8057 -0.4337
 5927TIP3    H239197   0.608   3.231   4.440 -1.4857 -0.0045  0.7941
 5928TIP3   OH239198   3.158   1.468  15.587 -0.0079 -0.3451 -0.0668
 5928TIP3    H139199   3.117   1.397  15.637 -0.0870 -1.3811 -1.5779
 5928TIP3    H239200   3.128   1.548  15.630  1.8198 -1.2364  3.0306
 5929TIP3   OH239201   1.996   0.391   1.422 -0.3463  0.7322 -0.7369
 5929TIP3    H139202   2.065   0.454   1.443  0.4522 -0.1045 -0.8030
 5929TIP3    H239203   1.983   0.400   1.327  0.4081  0.1772 -0.9024
 5930TIP3   OH239204   6.777   1.730   0.338  0.1190 -0.4241  0.2607
 5930TIP3    H139205   6.830   1.685   0.272  0.0297 -2.2893  1.4124
 5930TIP3    H239206   6.687   1.704   0.319  0.1683 -1.7227  1.6106
 5931TIP3   OH239207   4.819   4.038   5.420  0.3125 -0.0534  0.3030
 5931TIP3    H139208   4.760   4.033   5.344 -0.0996 -0.5102  0.6517
 5931TIP3    H239209   4.763   4.017   5.495  1.0910 -1.2513  0.5513
 5932TIP3   OH239210   5.825   0.789   1.420  0.1337  0.3091 -0.1952
 5932TIP3    H139211   5.874   0.795   1.338  0.0201 -0.2707 -0.3049
 5932TIP3    H239212   5.752   0.850   1.409 -1.3635 -1.6484 -1.5462
 5933TIP3   OH239213   5.543   0.850  12.665  0.0695  0.1011  0.0540
 5933TIP3    H139214   5.495   0.903  12.728 -0.2451  0.6945 -0.6876
 5933TIP3    H239215   5.526   0.760  12.692 -2.0650  0.2793 -0.6460
 5934TIP3   OH239216   5.217   3.795  14.393  0.0822 -0.6446 -0.0488
 5934TIP3    H139217   5.133   3.765  14.429  0.4682 -1.4703  0.2050
 5934TIP3    H239218   5.227   3.884  14.426 -0.6428 -0.5855  0.0171
 5935TIP3   OH239219   6.239   2.039   2.531  0.2911  0.0980  0.7919
 5935TIP3    H139220   6.291   1.994   2.463  0.5444  1.3989  0.1014
 5935TIP3    H239221   6.238   1.978   2.605  2.4870 -0.1378  0.6683
 5936TIP3   OH239222   5.056   5.118  16.755  0.4285 -0.4652  0.4770
 5936TIP3    H139223   5.110   5.087  16.828 -0.1718  0.0027  1.1318
 5936TIP3    H239224   5.116   5.121  16.680  0.8604 -1.7242  0.7534
 5937TIP3   OH239225   6.619   3.047   5.629 -0.4187  0.5022 -0.4288
 5937TIP3    H139226   6.637   3.119   5.691  1.6831 -0.3060 -0.0602
 5937TIP3    H239227   6.590   3.091   5.549  1.2097  1.8187 -0.3376
 5938TIP3   OH239228   6.060   4.128  14.375  0.3442 -0.0800 -0.2294
 5938TIP3    H139229   6.062   4.145  14.469  0.2433 -0.8163 -0.0872
 5938TIP3    H239230   6.120   4.192  14.337 -1.4348  1.8253  0.0718
 5939TIP3   OH239231   2.847   3.919  13.853  0.6280 -0.2244 -0.3047
 5939TIP3    H139232   2.842   3.912  13.948 -1.2430 -1.9096 -0.4858
 5939TIP3    H239233   2.756   3.934  13.826  1.2776  1.2503 -1.7808
 5940TIP3   OH239234   0.497   5.155   5.105 -0.0943  0.2112 -0.2660
 5940TIP3    H139235   0.529   5.118   5.187 -1.0960  1.6404  0.8007
 5940TIP3    H239236   0.478   5.079   5.050  2.0122 -0.7214  0.2527
 5941TIP3   OH239237   2.672   4.619   5.728 -0.0762  0.1730 -0.2485
 5941TIP3    H139238   2.651   4.685   5.793  0.0643  0.5052 -0.5393
 5941TIP3    H239239   2.653   4.536   5.771 -0.1334  0.3969  0.1588
 5942TIP3   OH239240   3.527   3.450   5.105  0.0426  1.0605 -0.1390
 5942TIP3    H139241   3.512   3.366   5.062 -1.4401  1.2968 -0.1084
 5942TIP3    H239242   3.610   3.439   5.151  0.5683  0.0892 -1.2978
 5943TIP3   OH239243   2.636   1.240  14.815 -0.1353 -0.1776  0.4857
 5943TIP3    H139244   2.605   1.329  14.800 -1.0568 -0.4792  0.5637
 5943TIP3    H239245   2.626   1.197  14.730  1.6009  0.1733  0.0942
 5944TIP3   OH239246   5.497   3.160  11.479 -0.2159 -0.5649 -0.4436
 5944TIP3    H139247   5.431   3.095  11.501 -0.6238 -0.5991 -1.7289
 5944TIP3    H239248   5.462   3.205  11.402  1.2715 -0.6288 -1.1871
 5945TIP3   OH239249   1.267   6.168   3.984 -0.3916 -0.1073  0.9881
 5945TIP3    H139250   1.311   6.241   4.027 -0.3845 -0.5094  1.6666
 5945TIP3    H239251   1.293   6.091   4.034  0.4061 -0.7126 -0.3312
 5946TIP3   OH239252   6.259   1.987  11.616 -0.1044  0.5131 -0.2482
 5946TIP3    H139253   6.170   2.023  11.619  0.3327  1.4917  1.2994
 5946TIP3    H239254   6.302   2.020  11.695  1.1811 -1.1755 -0.2000
 5947TIP3   OH239255   0.880   0.364  14.530  0.2064 -0.3700 -0.9626
 5947TIP3    H139256   0.883   0.390  14.622  1.7675  0.4063 -1.2146
 5947TIP3    H239257   0.951   0.413  14.489  0.6793 -2.0481 -2.2330
 5948TIP3   OH239258   1.132   6.399  13.450 -0.1561 -0.6046  0.0612
 5948TIP3    H139259   1.059   6.336  13.441  1.2322 -2.3675  0.7344
 5948TIP3    H239260   1.126   6.429  13.541 -0.3450 -0.3703 -0.0286
 5949TIP3   OH239261   1.537   2.376  13.064 -0.5181 -0.1291 -0.0112
 5949TIP3    H139262   1.543   2.325  13.145  2.0663  0.7196  0.3920
 5949TIP3    H239263   1.523   2.466  13.093 -0.1512  0.0948 -0.5166
 5950TIP3   OH239264   2.210   5.573  13.183 -0.4427  0.2717 -0.4122
 5950TIP3    H139265   2.230   5.482  13.164  0.0847  0.4623 -0.7896
 5950TIP3    H239266   2.168   5.605  13.103  1.0084  0.8446 -0.9732
 5951TIP3   OH239267   1.562   3.494   2.922  0.2247  0.6512  0.0069
 5951TIP3    H139268   1.484   3.544   2.899 -0.1099  0.3907  0.5734
 5951TIP3    H239269   1.564   3.495   3.017  1.5857  1.6899 -0.0262
 5952TIP3   OH239270   3.628   3.793   0.055 -0.2273 -0.1458  0.0550
 5952TIP3    H139271   3.611   3.701   0.077 -0.8954 -0.2787 -0.9785
 5952TIP3    H239272   3.711   3.791   0.007  0.1175 -0.1224  0.6490
 5953TIP3   OH239273   5.774   6.666  17.102 -0.2379  0.1169  0.5731
 5953TIP3    H139274   5.718   6.605  17.150  1.3750 -4.3115 -2.8162
 5953TIP3    H239275   5.728   6.679  17.018  2.0441 -0.8533 -0.8760
 5954TIP3   OH239276   1.748   1.529  13.436  0.4372 -0.3136 -0.4240
 5954TIP3    H139277   1.665   1.575  13.439 -0.0016 -1.1170  0.0592
 5954TIP3    H239278   1.803   1.573  13.500  0.1122 -0.2910 -0.1618
 5955TIP3   OH239279   2.856   3.546  15.730  0.5276 -0.3853 -0.8914
 5955TIP3    H139280   2.921   3.482  15.702 -0.8105 -1.9908 -0.3797
 5955TIP3    H239281   2.772   3.502  15.720 -0.3119  0.6670  1.1194
 5956TIP3   OH239282   5.762   6.125   0.380  0.3060  0.0815  0.2459
 5956TIP3    H139283   5.819   6.152   0.308 -1.5576  3.2045 -0.1538
 5956TIP3    H239284   5.800   6.166   0.458  0.5924 -0.7694  0.5609
 5957TIP3   OH239285   0.078   0.180  13.226  0.1514  0.3784 -0.1788
 5957TIP3    H139286   0.161   0.219  13.198  0.5615 -0.3663 -0.0158
 5957TIP3    H239287   0.028   0.169  13.145  0.1296  1.0173 -0.2517
 5958TIP3   OH239288   4.004   6.250  11.896 -0.0241 -0.2730  0.2572
 5958TIP3    H139289   4.070   6.306  11.855  2.2521 -1.6498  1.9244
 5958TIP3    H239290   3.962   6.205  11.823  2.4997 -1.1041 -0.7439
 5959TIP3   OH239291   6.045   0.324  12.877 -0.1219 -0.1998 -0.4213
 5959TIP3    H139292   5.994   0.263  12.824 -0.6791 -1.2534  1.3146
 5959TIP3    H239293   5.980   0.382  12.916  0.1778 -0.3061  0.2340
 5960TIP3   OH239294   4.492   4.933   0.017  0.0195  0.2116 -0.6341
 5960TIP3    H139295   4.465   5.021   0.046  1.1666  0.8238 -1.4052
 5960TIP3    H239296   4.418   4.901  -0.034 -0.2425  0.8906 -0.6868
 5961TIP3   OH239297   1.720   2.225  15.007 -0.4380  0.0559 -0.1059
 5961TIP3    H139298   1.681   2.205  15.092  0.7843  2.2210  1.0104
 5961TIP3    H239299   1.680   2.163  14.946 -3.8838  0.7053  1.4129
 5962TIP3   OH239300   2.291   1.249   4.928  0.5456 -0.1097 -0.1487
 5962TIP3    H139301   2.233   1.197   4.984  0.2968 -0.7294 -0.9813
 5962TIP3    H239302   2.241   1.263   4.848  1.0835  0.3881 -0.4009
 5963TIP3   OH239303   5.552   1.812  16.772 -0.1914 -0.0508 -0.2984
 5963TIP3    H139304   5.566   1.886  16.831  0.9481 -2.0755  2.1093
 5963TIP3    H239305   5.625   1.816  16.710  1.8547 -1.0553  1.9597
 5964TIP3   OH239306   0.262   3.248   0.554  0.0568 -0.2740 -0.1623
 5964TIP3    H139307   0.169   3.245   0.580  0.8202 -0.0322  2.7547
 5964TIP3    H239308   0.286   3.340   0.563  0.8490 -0.5006 -0.0123
 5965TIP3   OH239309   1.906   3.613   4.112 -0.3180  0.0220 -0.0366
 5965TIP3    H139310   1.957   3.692   4.128 -1.0661  0.0813  2.1424
 5965TIP3    H239311   1.838   3.613   4.179 -0.0049 -2.7602  0.3753
 5966TIP3   OH239312   1.073   2.066   0.864  0.3469  0.1983  0.0180
 5966TIP3    H139313   1.150   2.010   0.859  0.2497  0.0247  0.4244
 5966TIP3    H239314   1.107   2.152   0.886  0.4074  0.0698  0.4385
 5967TIP3   OH239315   0.642   0.884   4.634 -0.1770  0.3489  0.0546
 5967TIP3    H139316   0.588   0.886   4.555  0.9799  1.9175 -0.7056
 5967TIP3    H239317   0.620   0.800   4.675  2.2078 -2.4109 -4.0200
 5968TIP3   OH239318   4.824   2.936   5.381  0.3086  0.8025  0.2546
 5968TIP3    H139319   4.885   2.993   5.428 -0.3068  0.6633  1.2386
 5968TIP3    H239320   4.877   2.894   5.313  1.5199 -0.0512  1.7061
 5969TIP3   OH239321   6.372   3.032   0.815 -0.0027  0.1903 -0.3064
 5969TIP3    H139322   6.358   3.028   0.909 -0.4419  0.3060 -0.3654
 5969TIP3    H239323   6.356   3.124   0.792  1.8682  0.5501 -0.2207
 5970TIP3   OH239324   2.346   2.167   2.459 -0.1004 -0.2931 -0.6426
 5970TIP3    H139325   2.429   2.125   2.438  0.7975  1.0021  0.2547
 5970TIP3    H239326   2.280   2.110   2.420  1.0915 -2.4088  0.3408
 5971TIP3   OH239327   6.312   4.431   0.174  0.2357  0.1032 -0.0570
 5971TIP3    H139328   6.347   4.361   0.230 -2.0512 -0.9527  0.1228
 5971TIP3    H239329   6.282   4.386   0.095 -1.9122  0.7393  0.3542
 5972TIP3   OH239330   5.655   0.721   5.315 -0.0923  0.7410 -0.3907
 5972TIP3    H139331   5.573   0.761   5.344 -0.5211 -0.3234 -0.0866
 5972TIP3    H239332   5.721   0.751   5.378 -1.2047 -2.4024  2.4212
 5973TIP3   OH239333   2.419   3.725  12.159  0.0727  0.4009  0.2612
 5973TIP3    H139334   2.485   3.730  12.228  0.2712  1.2036  0.0119
 5973TIP3    H239335   2.451   3.782  12.090 -0.7018  0.5229 -0.0079
 5974TIP3   OH239336   2.446   0.283   6.655 -0.2869  0.4501 -0.7892
 5974TIP3    H139337   2.412   0.199   6.687 -0.2489  1.4678  2.0503
 5974TIP3    H239338   2.381   0.313   6.593 -1.3679 -0.6662 -0.2195
 5975TIP3   OH239339   0.237   4.943   0.244  0.6117 -0.0106 -0.3451
 5975TIP3    H139340   0.144   4.928   0.259  0.5836  0.6850  0.1883
 5975TIP3    H239341   0.264   4.872   0.186 -0.5929  0.6421 -1.7467
 5976TIP3   OH239342   4.217   4.217   5.705 -0.5832 -0.5256  0.4319
 5976TIP3    H139343   4.307   4.228   5.735 -0.2539 -0.6614 -0.4694
 5976TIP3    H239344   4.164   4.213   5.785  0.4111 -2.1992  1.0247
 5977TIP3   OH239345   2.558   3.627   2.745  0.0716  0.2785  0.2988
 5977TIP3    H139346   2.533   3.536   2.728 -1.1559  0.7843 -0.6881
 5977TIP3    H239347   2.609   3.623   2.826 -0.7138 -1.1743  0.7357
 5978TIP3   OH239348   4.551   4.242   0.631  0.0122 -0.1159  0.4684
 5978TIP3    H139349   4.576   4.165   0.581 -1.0514 -0.1953  0.0658
 5978TIP3    H239350   4.492   4.209   0.699 -0.7176  0.3890  0.0847
 5979TIP3   OH239351   3.842   1.310  15.932  0.2891 -0.2729  0.1276
 5979TIP3    H139352   3.788   1.237  15.960  0.8047 -0.8081 -0.2498
 5979TIP3    H239353   3.780   1.374  15.896 -0.4209  0.6368  2.8875
 5980TIP3   OH239354   3.326   1.327   2.641  0.0795  0.1612 -0.3724
 5980TIP3    H139355   3.374   1.405   2.614 -0.7866  1.2270  1.1006
 5980TIP3    H239356   3.288   1.292   2.560  3.2017 -0.6424 -1.5445
 5981TIP3   OH239357   1.665   5.677   1.384  0.2589  0.4231  0.5757
 5981TIP3    H139358   1.708   5.762   1.387 -2.0956  1.6763 -0.2681
 5981TIP3    H239359   1.581   5.694   1.342  0.0316 -2.4472 -0.2218
 5982TIP3   OH239360   2.006   2.530   5.324 -0.1753 -0.1385 -0.0567
 5982TIP3    H139361   1.914   2.539   5.347 -0.6344  2.8320 -2.7250
 5982TIP3    H239362   2.010   2.450   5.271 -1.2619 -0.1385 -0.1439
 5983TIP3   OH239363   4.837   0.855  13.770  0.0276  0.2537 -0.9006
 5983TIP3    H139364   4.920   0.901  13.781 -0.4887  0.7720  0.9662
 5983TIP3    H239365   4.858   0.763  13.784  0.3675  0.3322 -0.9058
 5984TIP3   OH239366   2.385   2.286   0.289  0.5535  0.6828  0.7005
 5984TIP3    H139367   2.401   2.380   0.301  0.9172  0.6625  0.3672
 5984TIP3    H239368   2.448   2.244   0.346  0.7197  0.6289  0.4738
 5985TIP3   OH239369   1.891   3.795   4.604  0.2696  0.4476  0.2967
 5985TIP3    H139370   1.948   3.871   4.619  0.4626  0.4905 -0.6370
 5985TIP3    H239371   1.811   3.832   4.568  0.7259  0.1284 -1.0763
 5986TIP3   OH239372   6.087   1.667   0.483  0.1098  0.2357  0.6317
 5986TIP3    H139373   6.163   1.658   0.540  0.5777  1.2501  0.1884
 5986TIP3    H239374   6.100   1.752   0.439 -1.9135  1.0268  1.5056
 5987TIP3   OH239375   1.619   1.358   4.509 -0.1609 -0.4693  0.1821
 5987TIP3    H139376   1.711   1.360   4.535  0.2907 -0.7358 -1.3718
 5987TIP3    H239377   1.608   1.272   4.468 -1.0113 -0.2815  0.0096
 5988TIP3   OH239378   1.322   4.919   4.294 -0.1839 -0.0938  0.3214
 5988TIP3    H139379   1.383   4.846   4.288 -0.7831 -0.4760 -1.5742
 5988TIP3    H239380   1.239   4.880   4.321 -0.6188 -0.2149 -1.1245
 5989TIP3   OH239381   4.204   1.780  14.699 -0.0165  0.0160 -0.1386
 5989TIP3    H139382   4.241   1.702  14.657 -0.3138  0.1015 -0.5586
 5989TIP3    H239383   4.215   1.763  14.793 -1.1269 -1.0769 -0.1777
 5990TIP3   OH239384   0.305   4.880   1.359 -0.0742  0.6645  0.1075
 5990TIP3    H139385   0.272   4.843   1.277  0.4183  0.0360  0.1891
 5990TIP3    H239386   0.400   4.883   1.347  0.1565 -1.0238  1.3007
 5991TIP3   OH239387   1.575   4.433  12.440  1.0185 -0.1174  0.0906
 5991TIP3    H139388   1.505   4.401  12.497  0.6997  1.3751  0.5582
 5991TIP3    H239389   1.529   4.476  12.368  1.4317  0.0832 -0.0561
 5992TIP3   OH239390   1.390   0.479   0.595 -0.3312 -0.6766  0.6195
 5992TIP3    H139391   1.424   0.435   0.517 -0.6163 -0.7388  0.5286
 5992TIP3    H239392   1.452   0.457   0.664  1.1405  1.1624 -0.0603
 5993TIP3   OH239393   3.464   1.458  15.668  0.2346 -0.7655 -0.3250
 5993TIP3    H139394   3.392   1.405  15.703 -0.2813  1.7353  2.6306
 5993TIP3    H239395   3.420   1.535  15.630  1.2394  0.3115  0.6428
 5994TIP3   OH239396   1.545   0.738  16.282  0.2921  0.0395 -0.3471
 5994TIP3    H139397   1.613   0.681  16.245 -0.9072 -1.6389  0.0184
 5994TIP3    H239398   1.470   0.681  16.295 -0.7531  1.5943  0.5544
 5995TIP3   OH239399   2.726   4.952   4.773  0.2967  0.3598 -0.2233
 5995TIP3    H139400   2.781   4.956   4.695 -0.1499 -0.1145 -0.5672
 5995TIP3    H239401   2.718   5.043   4.801 -0.6792  0.7090 -1.5394
 5996TIP3   OH239402   1.390   2.930   0.976  0.4684  0.7840  0.1468
 5996TIP3    H139403   1.327   2.899   0.912  0.5202  1.6829 -0.3543
 5996TIP3    H239404   1.348   3.006   1.016  1.4144  1.7065 -0.5541
 5997TIP3   OH239405   3.532   2.524  15.610 -0.2178  0.9375 -0.3941
 5997TIP3    H139406   3.587   2.508  15.686 -0.9403 -2.1038 -0.4506
 5997TIP3    H239407   3.453   2.565  15.645  0.0905  0.9382  0.3019
 5998TIP3   OH239408   4.377   3.517  16.139 -0.4283 -0.1206 -0.1097
 5998TIP3    H139409   4.312   3.574  16.097 -2.6310 -3.0148 -0.8170
 5998TIP3    H239410   4.327   3.441  16.168  2.2036 -1.1666  1.9311
 5999TIP3   OH239411   0.560   5.092  13.896  0.2691  0.6157  0.1822
 5999TIP3    H139412   0.575   5.007  13.855  2.7425  0.2302  1.7488
 5999TIP3    H239413   0.484   5.079  13.952  1.8390 -1.1778  1.9616
 6000TIP3   OH239414   2.621   3.817  11.648 -0.1540  0.0627  0.1173
 6000TIP3    H139415   2.559   3.801  11.577 -0.0283 -0.3906  0.1086
 6000TIP3    H239416   2.590   3.897  11.690 -0.4918  0.0772 -0.1629
 6001TIP3   OH239417   6.013   5.217   0.755  0.5322  0.0551  0.4189
 6001TIP3    H139418   5.960   5.281   0.802 -2.4665 -1.6964 -0.4761
 6001TIP3    H239419   6.015   5.140   0.813  2.3808  0.1687  0.5654
 6002TIP3   OH239420   4.929   0.187   0.084 -0.4154  0.3043  0.2197
 6002TIP3    H139421   4.900   0.210   0.172  0.1475  1.4809  0.1006
 6002TIP3    H239422   4.908   0.094   0.075  2.0639 -0.5276  2.6181
 6003TIP3   OH239423   5.049   1.699   2.730  0.0696 -0.3515 -0.2008
 6003TIP3    H139424   5.104   1.776   2.729 -0.6031  0.1556 -2.4513
 6003TIP3    H239425   4.962   1.732   2.754  0.3425 -0.8601  1.5447
 6004TIP3   OH239426   2.050   0.398  15.697  0.2680  0.0018 -0.2644
 6004TIP3    H139427   2.136   0.356  15.697  0.0664 -0.4347 -1.3941
 6004TIP3    H239428   1.997   0.344  15.638 -0.9907 -0.1396  0.9508
 6005TIP3   OH239429   1.139   3.252  13.266  0.4392  0.2182  0.0940
 6005TIP3    H139430   1.169   3.310  13.195 -0.2314  1.9887  1.2103
 6005TIP3    H239431   1.217   3.237  13.320  0.6833 -0.1781 -0.3637
 6006TIP3   OH239432   2.424   1.551   3.105 -0.3091  0.4371 -0.1951
 6006TIP3    H139433   2.384   1.616   3.163 -0.0493  1.0816 -0.7304
 6006TIP3    H239434   2.352   1.492   3.083 -0.6766  0.8618 -0.1450
 6007TIP3   OH239435   4.871   0.991   4.289  0.1036 -0.1020 -0.4318
 6007TIP3    H139436   4.938   0.984   4.221  1.4149 -0.0376  0.8293
 6007TIP3    H239437   4.883   0.913   4.343  0.1729  0.6615  0.6795
 6008TIP3   OH239438   0.645   2.945   0.704 -0.1474  0.0757  0.3071
 6008TIP3    H139439   0.655   2.856   0.738 -1.5577  0.0334  0.6527
 6008TIP3    H239440   0.600   2.933   0.620 -2.0877  0.5560  1.2392
 6009TIP3   OH239441   1.226   0.064   6.487  0.0796  0.5596 -0.1644
 6009TIP3    H139442   1.159   0.093   6.549  1.3818  1.1052  0.9999
 6009TIP3    H239443   1.227  -0.031   6.495  1.7762  0.7544  2.2822
 6010TIP3   OH239444   1.985   4.373  15.316 -0.4930 -0.3439  0.4762
 6010TIP3    H139445   1.979   4.469  15.319 -0.3712 -0.3483  0.9453
 6010TIP3    H239446   2.070   4.356  15.277 -1.2316 -0.2694 -1.2014
 6011TIP3   OH239447   5.362   6.456   6.009  0.5987  0.1724 -0.1665
 6011TIP3    H139448   5.395   6.373   6.043  0.5245  0.3419  0.3191
 6011TIP3    H239449   5.281   6.471   6.058  0.6198  0.5376 -0.2422
 6012TIP3   OH239450   1.207   6.760  15.560  0.1804  0.1539  0.2716
 6012TIP3    H139451   1.195   6.737  15.468 -0.0568  2.7220 -0.3622
 6012TIP3    H239452   1.282   6.709  15.588  1.1280  0.4110 -1.7380
 6013TIP3   OH239453   0.913   3.971  16.043 -0.2283 -0.1860 -0.2148
 6013TIP3    H139454   0.940   3.884  16.015 -1.2408 -0.5990  0.0494
 6013TIP3    H239455   0.916   3.967  16.139  1.4741  0.6469 -0.2257
 6014TIP3   OH239456   4.025   4.723  10.730  0.4606 -0.0373 -0.2081
 6014TIP3    H139457   4.090   4.762  10.789  0.2443 -1.6108  1.1021
 6014TIP3    H239458   3.945   4.719  10.782  0.0683 -0.7427 -0.8667
 6015TIP3   OH239459   2.100   5.153  13.463  0.2079 -0.3222  0.0346
 6015TIP3    H139460   2.033   5.096  13.425  1.1655 -0.8831 -0.8159
 6015TIP3    H239461   2.060   5.185  13.545 -1.5491  0.2703 -1.0216
 6016TIP3   OH239462   3.227   5.425   5.897 -0.1260 -0.1408 -0.3014
 6016TIP3    H139463   3.205   5.343   5.941 -0.2376  0.5252  0.9128
 6016TIP3    H239464   3.174   5.491   5.941 -0.1396  0.5633 -1.3644
 6017TIP3   OH239465   1.312   1.961  15.474  0.0148 -0.8368 -0.5341
 6017TIP3    H139466   1.405   1.953  15.494  0.2777  0.7288 -1.0441
 6017TIP3    H239467   1.268   1.963  15.559  0.4882 -1.0110 -0.2855
 6018TIP3   OH239468   5.954   6.344   1.483  0.0734 -0.1230  0.0201
 6018TIP3    H139469   5.984   6.303   1.401 -0.4389 -1.2479  0.3896
 6018TIP3    H239470   6.035   6.362   1.531  0.3499  0.0592 -0.5042
 6019TIP3   OH239471   2.958   2.122   1.979  0.2724  0.0527  0.5312
 6019TIP3    H139472   2.947   2.063   2.053  0.7846 -0.5413  0.1422
 6019TIP3    H239473   3.034   2.175   2.003  0.0951  0.2425  0.6764
 6020TIP3   OH239474   6.301   1.150   6.035  0.4202  0.2732 -0.2628
 6020TIP3    H139475   6.346   1.224   6.075  1.5823 -1.3135  1.5036
 6020TIP3    H239476   6.218   1.144   6.083  0.7394 -0.1196  0.2530
 6021TIP3   OH239477   0.510   3.903  11.170  0.0797  0.3593  0.0539
 6021TIP3    H139478   0.575   3.889  11.238 -1.6808  0.9930  1.9409
 6021TIP3    H239479   0.490   3.816  11.137  2.0160  0.1810 -0.7071
 6022TIP3   OH239480   6.158   2.847  13.131  0.1762  0.3539 -1.1483
 6022TIP3    H139481   6.238   2.798  13.150 -0.2722  0.2706  0.6271
 6022TIP3    H239482   6.108   2.843  13.212 -0.4110  2.7237 -1.3458
 6023TIP3   OH239483   1.289   3.253   4.417  1.0889 -0.5430 -0.2005
 6023TIP3    H139484   1.232   3.185   4.453 -0.9924  1.0753 -0.3014
 6023TIP3    H239485   1.295   3.232   4.324 -1.0328  0.3705 -0.5770
 6024TIP3   OH239486   0.018   2.978   0.269  0.2794  0.3636 -0.1909
 6024TIP3    H139487  -0.051   2.919   0.298 -0.7123  1.1240 -0.9516
 6024TIP3    H239488  -0.027   3.044   0.216  1.8069 -0.0199 -2.0118
 6025TIP3   OH239489   2.885   5.591   2.208  0.2247 -0.0311  0.3927
 6025TIP3    H139490   2.885   5.681   2.240  2.6350  0.1203  0.0558
 6025TIP3    H239491   2.797   5.578   2.172  0.4858  2.8590 -1.4318
 6026TIP3   OH239492   6.219   5.845  12.888 -0.0776  0.4071 -0.3359
 6026TIP3    H139493   6.200   5.829  12.795  1.1857  1.0677 -0.7189
 6026TIP3    H239494   6.293   5.789  12.908 -0.2617  0.3633  0.2445
 6027TIP3   OH239495   1.481   1.738   5.733  0.4002  0.1036  0.2345
 6027TIP3    H139496   1.542   1.765   5.664  1.2132 -2.2398 -0.0281
 6027TIP3    H239497   1.509   1.649   5.756 -1.0965  0.1012  2.1989
 6028TIP3   OH239498   1.439   0.083  10.763 -0.6728 -0.5706 -0.1779
 6028TIP3    H139499   1.438   0.134  10.682 -1.3693 -0.0477  0.1539
 6028TIP3    H239500   1.528   0.092  10.796 -0.2942 -1.0428 -1.0394
 6029TIP3   OH239501   1.915   4.748  13.716  0.2591  0.1353  0.2446
 6029TIP3    H139502   1.931   4.760  13.809 -2.0686 -0.6406  0.7921
 6029TIP3    H239503   1.841   4.806  13.697  1.2483  0.9075 -1.3102
 6030TIP3   OH239504   1.436   3.091  13.132 -0.2303 -0.4850  0.0201
 6030TIP3    H139505   1.372   3.117  13.198 -0.4769  2.6764 -1.3803
 6030TIP3    H239506   1.397   3.013  13.091 -2.5438  0.5616  0.1458
 6031TIP3   OH239507   5.902   6.715  11.698 -0.4030  0.7513 -0.4531
 6031TIP3    H139508   5.964   6.690  11.767 -1.1790 -2.7254 -0.9181
 6031TIP3    H239509   5.957   6.746  11.626  0.6881 -0.3578 -0.1065
 6032TIP3   OH239510   2.453   2.845  14.157  0.2918  0.0637 -0.0200
 6032TIP3    H139511   2.387   2.878  14.096 -1.5503 -1.0896  1.2893
 6032TIP3    H239512   2.491   2.769  14.113  0.0385  0.1310 -0.3513
 6033TIP3   OH239513   5.128   6.219  13.772  0.0249  0.2581  0.1984
 6033TIP3    H139514   5.101   6.272  13.847 -1.6058  1.5141 -1.2259
 6033TIP3    H239515   5.082   6.136  13.784 -1.0672  0.8311  0.0650
 6034TIP3   OH239516   1.572   2.567  14.409 -0.2574 -0.3690 -1.3273
 6034TIP3    H139517   1.619   2.499  14.360  0.2671 -2.1639  1.5862
 6034TIP3    H239518   1.484   2.530  14.422  0.5449 -1.3466  1.7829
 6035TIP3   OH239519   6.695   1.177   5.032 -0.4896 -0.1629 -0.4005
 6035TIP3    H139520   6.774   1.143   5.073 -1.1856 -0.3582  0.7919
 6035TIP3    H239521   6.722   1.262   4.996  0.7652 -1.1178 -1.7830
 6036TIP3   OH239522   4.927   5.241  14.355  0.2963 -0.3919  0.3834
 6036TIP3    H139523   4.965   5.156  14.331  1.5457  0.0559  0.7016
 6036TIP3    H239524   4.913   5.285  14.271  0.3272 -0.6323  0.2504
 6037TIP3   OH239525   4.402   0.658   6.509  0.2004  0.4957  0.9007
 6037TIP3    H139526   4.314   0.622   6.512 -0.2329  1.5380  0.8204
 6037TIP3    H239527   4.392   0.744   6.469  0.5227  2.7504  5.4421
 6038TIP3   OH239528   2.115   3.365   2.524 -0.2410 -0.0039 -0.4340
 6038TIP3    H139529   2.020   3.373   2.528 -0.1219  2.4890 -1.3805
 6038TIP3    H239530   2.143   3.370   2.616 -0.9474  0.5724 -0.2442
 6039TIP3   OH239531   3.697   6.121   1.770 -0.2061 -0.4969 -0.1744
 6039TIP3    H139532   3.617   6.139   1.819 -0.0042 -1.8605  0.7179
 6039TIP3    H239533   3.669   6.110   1.680 -1.1181 -1.4227  0.2041
 6040TIP3   OH239534   1.786   3.503   3.877  0.3533  0.3174 -0.0578
 6040TIP3    H139535   1.825   3.520   3.962  2.2971  1.0265 -1.0539
 6040TIP3    H239536   1.822   3.571   3.820 -0.6353 -0.3476 -1.5232
 6041TIP3   OH239537   0.014   4.507  15.816  0.6175 -0.1342 -0.3716
 6041TIP3    H139538   0.021   4.426  15.866  0.7534  0.6267  0.8444
 6041TIP3    H239539   0.103   4.543  15.815  0.3434  0.5674  0.0426
 6042TIP3   OH239540   2.505   5.190  11.246  0.1882  0.4469 -0.4188
 6042TIP3    H139541   2.565   5.167  11.317  0.8091  1.0378 -0.7504
 6042TIP3    H239542   2.480   5.106  11.208  1.7164  0.2587 -1.0184
 6043TIP3   OH239543   5.040   4.484  11.153 -0.2290  0.1652 -0.6245
 6043TIP3    H139544   5.083   4.564  11.123 -0.5202 -0.2972 -2.3042
 6043TIP3    H239545   5.079   4.467  11.239 -1.7423  3.3081  0.7642
 6044TIP3   OH239546   0.674   0.046  10.531 -0.6510  0.4332  0.1042
 6044TIP3    H139547   0.702  -0.044  10.547 -1.8885  0.1827  0.8984
 6044TIP3    H239548   0.592   0.038  10.483 -0.9789  1.1427  0.5355
 6045TIP3   OH239549   4.903   0.147  15.996  0.0864  0.0872  0.0232
 6045TIP3    H139550   4.972   0.087  16.024  0.9307  0.7607 -0.5858
 6045TIP3    H239551   4.822   0.100  16.014  0.7054 -0.7921  0.5717
 6046TIP3   OH239552   0.536   4.376  14.394  0.0764  0.6648  0.0998
 6046TIP3    H139553   0.557   4.468  14.378 -0.9656  0.8459 -0.2847
 6046TIP3    H239554   0.459   4.359  14.340  0.4725 -0.5357 -0.1150
 6047TIP3   OH239555   2.128   2.654   3.463  0.1227 -0.0391 -0.1595
 6047TIP3    H139556   2.140   2.593   3.536  0.8909 -1.0797 -1.1242
 6047TIP3    H239557   2.051   2.705   3.487  0.6758  0.0138  1.6237
 6048TIP3   OH239558   6.741   0.571   6.299  0.1886  0.4085 -0.2517
 6048TIP3    H139559   6.787   0.651   6.274 -1.3330  1.5531  0.5300
 6048TIP3    H239560   6.649   0.596   6.301 -0.5082 -1.8522 -1.8351
 6049TIP3   OH239561   1.407   5.272  14.748 -0.1710 -0.6146 -0.5758
 6049TIP3    H139562   1.380   5.214  14.819  0.6510 -0.7758 -0.3897
 6049TIP3    H239563   1.371   5.358  14.771 -1.8873 -1.1525 -1.1421
 6050TIP3   OH239564   4.813   2.317   0.572  0.2559  0.1552 -0.5299
 6050TIP3    H139565   4.738   2.366   0.536 -1.3217 -1.5977  0.3031
 6050TIP3    H239566   4.859   2.284   0.495  0.2169  1.2588 -1.0501
 6051TIP3   OH239567   4.932   5.300  14.037 -0.1677 -0.7280  0.0951
 6051TIP3    H139568   4.894   5.363  13.976 -1.4296 -0.9841  0.5967
 6051TIP3    H239569   4.956   5.225  13.982 -0.2523 -0.4963 -0.2603
 6052TIP3   OH239570   3.519   6.008  17.041 -0.1098 -0.8626 -0.0424
 6052TIP3    H139571   3.475   5.948  16.981  1.6025 -1.3263 -0.8535
 6052TIP3    H239572   3.460   6.013  17.117 -0.4173 -3.3544 -0.0712
 6053TIP3   OH239573   4.455   3.340  13.547 -0.1775  0.0534  0.1691
 6053TIP3    H139574   4.396   3.390  13.491  0.6553  1.2736  0.3817
 6053TIP3    H239575   4.419   3.350  13.635  0.0695  0.3953  0.2314
 6054TIP3   OH239576   4.878   3.564   5.558 -0.5343 -0.1390  0.2148
 6054TIP3    H139577   4.915   3.605   5.481 -1.9629 -1.9412 -1.5072
 6054TIP3    H239578   4.928   3.483   5.569 -1.8381 -1.0406 -0.2666
 6055TIP3   OH239579   4.036   2.027   0.426 -0.4192  0.0195  0.1835
 6055TIP3    H139580   3.990   2.107   0.402  2.2109  0.7232 -2.8089
 6055TIP3    H239581   4.004   1.961   0.365 -0.1190 -0.3760  0.4483
 6056TIP3   OH239582   2.305   1.761   5.442 -0.1606 -0.0857 -0.3691
 6056TIP3    H139583   2.368   1.732   5.377 -0.8706  0.5572 -1.3447
 6056TIP3    H239584   2.287   1.852   5.420 -0.4993  0.1074  0.6494
 6057TIP3   OH239585   6.204   4.751   0.622  0.1276  0.0967 -0.0689
 6057TIP3    H139586   6.158   4.693   0.561  0.2020  0.6909 -0.7041
 6057TIP3    H239587   6.162   4.836   0.610  1.0268  0.5226 -0.2691
 6058TIP3   OH239588   4.196   2.397   0.713  0.5900 -0.1067 -0.1819
 6058TIP3    H139589   4.172   2.306   0.696  0.1465  0.1118 -0.7535
 6058TIP3    H239590   4.198   2.404   0.808 -0.2994 -0.4768 -0.1312
 6059TIP3   OH239591   5.452   4.274   4.326  0.1355 -0.0987  0.2414
 6059TIP3    H139592   5.496   4.192   4.350  0.8782  0.8763  2.3634
 6059TIP3    H239593   5.494   4.302   4.245  1.8964 -0.3570  1.0367
 6060TIP3   OH239594   2.109   6.044   5.850 -0.6743 -1.0378 -0.5895
 6060TIP3    H139595   2.097   6.130   5.890  1.8632 -1.6863  1.7367
 6060TIP3    H239596   2.022   6.005   5.849 -1.5084  0.7651  0.2593
 6061TIP3   OH239597   4.985   2.203   5.632 -0.7721 -0.2290  0.8110
 6061TIP3    H139598   4.997   2.127   5.690 -1.2296 -1.6580 -0.9066
 6061TIP3    H239599   4.901   2.187   5.590 -0.0384  0.3255 -0.8867
 6062TIP3   OH239600   2.786   3.937   4.599  0.4185  0.6840 -0.4571
 6062TIP3    H139601   2.862   3.990   4.623 -0.3047  1.3156  0.4957
 6062TIP3    H239602   2.711   3.984   4.636 -0.3527 -0.4122 -0.5892
 6063TIP3   OH239603   5.967   4.941   0.850  0.1373 -0.5260 -0.3276
 6063TIP3    H139604   5.923   4.877   0.794 -4.1181 -0.6418  2.9434
 6063TIP3    H239605   5.896   4.988   0.893  3.2269  3.3099  0.8524
 6064TIP3   OH239606   3.753   1.838   0.580  0.3548 -0.5366 -0.3510
 6064TIP3    H139607   3.761   1.763   0.521 -3.3577 -1.6513  0.4584
 6064TIP3    H239608   3.748   1.914   0.522  3.7710 -0.8713 -1.1868
 6065TIP3   OH239609   4.595   5.918   0.445 -0.3123 -0.0277  0.2516
 6065TIP3    H139610   4.525   5.940   0.384 -0.6972  2.0620  1.4167
 6065TIP3    H239611   4.676   5.930   0.394 -0.6137  2.0120  0.2160
 6066TIP3   OH239612   5.668   3.118  13.890  0.4454  0.0365  0.2272
 6066TIP3    H139613   5.659   3.164  13.974  0.2662  0.2230  0.1088
 6066TIP3    H239614   5.578   3.089  13.870  0.2805  1.0339 -0.4861
 6067TIP3   OH239615   0.981   3.417   1.969  0.0343  0.4660 -0.2172
 6067TIP3    H139616   1.068   3.453   1.951  0.0758  0.4789  0.0128
 6067TIP3    H239617   0.933   3.488   2.011 -0.0909  0.4612 -0.3495
 6068TIP3   OH239618   0.413   5.559   0.380 -0.4228  0.0342 -0.4837
 6068TIP3    H139619   0.456   5.640   0.408  1.4246 -0.8738 -0.5753
 6068TIP3    H239620   0.338   5.550   0.439  0.2776  0.9793  0.5802
 6069TIP3   OH239621   0.436   4.773   1.758 -0.1037  0.1211  0.4248
 6069TIP3    H139622   0.519   4.754   1.801 -1.5212 -2.0089  2.3743
 6069TIP3    H239623   0.409   4.689   1.721 -2.6655  0.0811  2.2012
 6070TIP3   OH239624   0.857   5.791  13.674 -0.1443 -0.0656  0.2447
 6070TIP3    H139625   0.882   5.703  13.700  0.1696 -0.3449 -0.9947
 6070TIP3    H239626   0.939   5.833  13.648 -0.3466  0.4644  0.4506
 6071TIP3   OH239627   6.212   6.010  14.976 -0.0782 -0.0944  0.3658
 6071TIP3    H139628   6.307   6.018  14.991  0.2140 -1.1348 -0.8949
 6071TIP3    H239629   6.183   6.101  14.965  0.7720  0.2344  0.7083
 6072TIP3   OH239630   1.594   1.259  11.558 -0.3755 -0.2577  0.0296
 6072TIP3    H139631   1.562   1.297  11.477 -1.6060 -1.8417 -0.2582
 6072TIP3    H239632   1.631   1.333  11.607 -0.4783  0.8605 -1.5414
 6073TIP3   OH239633   2.499   2.086  16.255  0.4138  0.5338  0.1894
 6073TIP3    H139634   2.510   2.063  16.347  2.5829  1.2263  0.1322
 6073TIP3    H239635   2.474   2.004  16.212 -1.8501  0.4603  1.5652
 6074TIP3   OH239636   0.519   6.589  16.155 -0.3980  0.4889  0.1565
 6074TIP3    H139637   0.475   6.543  16.227 -2.1695  1.7824 -0.0656
 6074TIP3    H239638   0.594   6.631  16.196 -0.3063 -0.3602  0.8802
 6075TIP3   OH239639   0.487   4.174  11.208  0.2018  0.6936  0.5649
 6075TIP3    H139640   0.579   4.192  11.194  0.2067 -0.2037 -0.6143
 6075TIP3    H239641   0.474   4.085  11.175 -1.1736  0.9713  0.3102
 6076TIP3   OH239642   3.336   6.454  12.885  0.1229 -0.6278  0.1143
 6076TIP3    H139643   3.340   6.371  12.931  0.5672  0.2389  1.6909
 6076TIP3    H239644   3.426   6.486  12.883 -0.0269 -0.2192 -0.5438
 6077TIP3   OH239645   5.682   5.864  11.252 -0.2295  0.3440  0.0439
 6077TIP3    H139646   5.632   5.842  11.331 -1.4991  0.4858 -0.7058
 6077TIP3    H239647   5.693   5.780  11.207  3.0195 -0.2352  1.7719
 6078TIP3   OH239648   6.348   1.537   3.061  0.7728 -0.1378 -0.2759
 6078TIP3    H139649   6.356   1.550   3.156 -0.7119 -1.9783  0.1419
 6078TIP3    H239650   6.274   1.477   3.052  0.7583  0.1940 -2.6307
 6079TIP3   OH239651   6.779   2.024   0.366 -0.4342 -0.2777 -0.2212
 6079TIP3    H139652   6.770   1.932   0.391  2.0856 -0.6920 -0.6464
 6079TIP3    H239653   6.817   2.020   0.278  0.1336  1.1735 -0.0427
 6080TIP3   OH239654   2.349   0.630  16.692 -0.1620  0.1408  0.1174
 6080TIP3    H139655   2.327   0.723  16.698  0.3430  0.2509  0.3301
 6080TIP3    H239656   2.441   0.626  16.720 -0.3104 -0.4775  0.5188
 6081TIP3   OH239657   2.705   5.476  15.138  0.2465 -0.4760 -0.3242
 6081TIP3    H139658   2.779   5.424  15.169 -0.1967 -1.0485 -0.2135
 6081TIP3    H239659   2.682   5.531  15.213  1.2314  0.4653 -0.7098
 6082TIP3   OH239660   1.761   5.505  13.090 -0.4532  0.0342 -0.1458
 6082TIP3    H139661   1.795   5.464  13.169 -2.1016  1.6892  1.4887
 6082TIP3    H239662   1.684   5.453  13.067 -0.3269 -0.0820 -0.3057
 6083TIP3   OH239663   3.676   3.800  15.270 -0.2416  0.3998  0.0006
 6083TIP3    H139664   3.667   3.765  15.181  1.7447  2.2606 -1.0007
 6083TIP3    H239665   3.710   3.727  15.321  1.0733  0.0218 -1.3732
 6084TIP3   OH239666   5.928   0.702  14.767  0.1893  0.6331 -0.0788
 6084TIP3    H139667   5.841   0.669  14.745  1.4457 -3.0739  0.0900
 6084TIP3    H239668   5.942   0.673  14.857  0.9230  2.7386  0.4956
 6085TIP3   OH239669   0.508   0.129   2.964  0.0604  0.2507 -0.2844
 6085TIP3    H139670   0.452   0.060   2.928  0.7455 -0.1563 -0.5830
 6085TIP3    H239671   0.461   0.160   3.041 -0.1480 -0.7030 -0.0134
 6086TIP3   OH239672   0.475   3.958   1.002  0.4812 -0.2946 -0.2762
 6086TIP3    H139673   0.556   3.925   1.040  0.5162  0.5745  0.4028
 6086TIP3    H239674   0.471   3.917   0.916  2.0576  0.2922 -0.6420
 6087TIP3   OH239675   0.479   3.696  12.177  0.3618  0.1478  0.0225
 6087TIP3    H139676   0.549   3.746  12.136  0.1071 -0.0548 -0.6714
 6087TIP3    H239677   0.491   3.607  12.143  0.4969 -0.1467  0.8387
 6088TIP3   OH239678   5.600   4.726   0.528 -0.5365  0.4550 -0.2415
 6088TIP3    H139679   5.550   4.787   0.583  1.0559  0.3156  1.4019
 6088TIP3    H239680   5.614   4.773   0.446 -1.1435  1.4773  0.2317
 6089TIP3   OH239681   0.423   5.368  12.572 -0.1103  0.3030 -0.0393
 6089TIP3    H139682   0.396   5.382  12.481 -2.1894  0.5062  0.5928
 6089TIP3    H239683   0.407   5.275  12.587  1.7125 -0.0738 -0.3440
 6090TIP3   OH239684   1.240   0.539   0.996  0.0022 -0.0874  0.7620
 6090TIP3    H139685   1.190   0.604   1.046  0.0264 -0.2411  0.9876
 6090TIP3    H239686   1.316   0.587   0.964 -1.8164  0.9374 -2.1763
 6091TIP3   OH239687   4.058   5.069  17.207  0.2232 -0.8837  0.1492
 6091TIP3    H139688   4.069   5.159  17.235 -1.4390 -0.0760 -1.6317
 6091TIP3    H239689   3.968   5.047  17.231  0.6801 -2.1409  0.7466
 6092TIP3   OH239690   6.268   1.184  10.874 -0.0440 -0.0535  0.7141
 6092TIP3    H139691   6.237   1.098  10.904  0.4608  0.5240  2.9937
 6092TIP3    H239692   6.230   1.193  10.786 -0.6357 -2.3176  0.6864
 6093TIP3   OH239693   3.009   2.961  12.620 -0.2401 -1.0749  0.6183
 6093TIP3    H139694   2.931   2.943  12.673 -1.2016 -0.8025 -0.6766
 6093TIP3    H239695   3.013   3.057  12.615 -0.6614 -1.1105 -0.5228
 6094TIP3   OH239696   4.105   5.276   5.816  0.3591 -0.7083 -0.1621
 6094TIP3    H139697   4.090   5.362   5.776  0.3951 -1.3180 -1.4991
 6094TIP3    H239698   4.028   5.262   5.872  0.2762  0.1183 -0.0629
 6095TIP3   OH239699   4.634   0.732   0.934  0.2402 -0.2659 -0.3251
 6095TIP3    H139700   4.554   0.707   0.887  2.4621 -1.4404 -3.7177
 6095TIP3    H239701   4.632   0.827   0.937 -1.6089 -0.2969  0.3115
 6096TIP3   OH239702   2.037   3.779  15.088  0.1990  0.9244  0.0288
 6096TIP3    H139703   2.057   3.730  15.168  0.9852  0.4683 -0.4401
 6096TIP3    H239704   1.992   3.857  15.119 -3.7871 -1.4548  0.6095
 6097TIP3   OH239705   0.425   4.770   0.848 -0.1037 -0.7312  0.5294
 6097TIP3    H139706   0.497   4.818   0.806 -0.3530 -0.0946  0.8121
 6097TIP3    H239707   0.431   4.682   0.813  1.0662 -0.7910  0.8589
 6098TIP3   OH239708   2.169   3.090   3.797 -0.2853 -0.0095 -0.3329
 6098TIP3    H139709   2.135   3.008   3.832 -0.3312 -0.6681 -1.8615
 6098TIP3    H239710   2.124   3.100   3.713  1.0574  0.6574 -0.9851
 6099TIP3   OH239711   5.765   1.776  16.132 -0.2549 -0.3464 -0.0003
 6099TIP3    H139712   5.833   1.738  16.076 -0.6943 -1.2729  0.1024
 6099TIP3    H239713   5.814   1.815  16.205  0.1588 -1.2396  0.2096
 6100TIP3   OH239714   2.638   2.010   1.127  0.2554  0.8169 -0.2104
 6100TIP3    H139715   2.590   2.008   1.044  0.1509  1.6463 -0.1717
 6100TIP3    H239716   2.598   2.080   1.177 -1.4286 -1.4122  1.6410
 6101TIP3   OH239717   6.625   3.839  16.108 -0.4774  0.9715  0.1688
 6101TIP3    H139718   6.547   3.793  16.076  0.7195 -0.6980 -0.4098
 6101TIP3    H239719   6.597   3.879  16.191 -2.2912  1.4407 -0.6438
 6102TIP3   OH239720   2.505   6.238  14.672 -0.8436  0.3520  0.6976
 6102TIP3    H139721   2.568   6.217  14.742 -0.4060  1.7894  0.7541
 6102TIP3    H239722   2.427   6.187  14.694  0.3059 -1.4444  0.6268
 6103TIP3   OH239723   4.555   3.200  15.844  0.5143  0.5763 -0.0323
 6103TIP3    H139724   4.561   3.131  15.778  0.4454  1.3611 -0.8651
 6103TIP3    H239725   4.626   3.181  15.905 -0.5441 -1.2084  0.6913
 6104TIP3   OH239726   5.922   0.093  12.754  0.1899 -0.0021  0.4493
 6104TIP3    H139727   5.851   0.079  12.816 -0.1738  0.0866  0.0563
 6104TIP3    H239728   5.920   0.015  12.698  0.3602  0.0296  0.4001
 6105TIP3   OH239729   4.450   6.643   5.140  0.2207  0.4205 -0.2963
 6105TIP3    H139730   4.451   6.687   5.225 -0.8786  0.7261 -0.4317
 6105TIP3    H239731   4.443   6.550   5.161 -0.5681  0.5328 -0.0541
 6106TIP3   OH239732   2.906   0.275  12.773 -0.6288  0.1444 -0.3735
 6106TIP3    H139733   2.934   0.218  12.701  0.7616 -0.5339  0.6790
 6106TIP3    H239734   2.960   0.353  12.764 -1.6692  0.7962 -1.0794
 6107TIP3   OH239735   6.269   5.802   3.280  0.3711 -0.0342 -0.5656
 6107TIP3    H139736   6.297   5.816   3.370  0.5023  1.0429 -0.7583
 6107TIP3    H239737   6.213   5.725   3.283  0.9591 -0.4289  0.3124
 6108TIP3   OH239738   3.813   2.192   5.733  0.3212 -0.0454  0.5417
 6108TIP3    H139739   3.720   2.194   5.713  0.2869  1.7566  0.7258
 6108TIP3    H239740   3.818   2.205   5.827  0.7483 -0.2963  0.5545
 6109TIP3   OH239741   3.433   1.325   2.118  0.0700 -0.2619 -0.0097
 6109TIP3    H139742   3.488   1.370   2.055 -0.1808 -0.0145 -0.0540
 6109TIP3    H239743   3.407   1.244   2.074 -0.8916  0.3586 -0.5986
 6110TIP3   OH239744   5.147   6.371   0.574 -0.0905  0.3086  0.3334
 6110TIP3    H139745   5.202   6.294   0.560  0.8636  0.6199  2.0936
 6110TIP3    H239746   5.201   6.444   0.545  0.2812  0.5795  1.6743
 6111TIP3   OH239747   6.274   3.150   0.348 -0.2052  0.4870  0.1983
 6111TIP3    H139748   6.266   3.055   0.340 -0.2527  0.5322 -0.3278
 6111TIP3    H239749   6.197   3.176   0.400  0.0886  0.1835  0.7924
 6112TIP3   OH239750   6.680   5.804  16.367 -0.5959 -0.1943 -0.4531
 6112TIP3    H139751   6.741   5.804  16.441 -0.6845 -1.0885 -0.3727
 6112TIP3    H239752   6.615   5.870  16.390 -0.5280 -0.3465  0.1921
 6113TIP3   OH239753   6.462   4.984  15.680 -0.1479 -0.2549 -0.8261
 6113TIP3    H139754   6.411   5.048  15.630 -0.5558 -0.4850 -0.7084
 6113TIP3    H239755   6.453   4.902  15.630 -0.9374 -0.5956 -0.1357
 6114TIP3   OH239756   0.077   0.583  12.421 -0.0334 -0.5659 -0.1577
 6114TIP3    H139757   0.111   0.516  12.480  0.2487  0.0010  0.3291
 6114TIP3    H239758  -0.018   0.576  12.429 -0.0438 -1.9494 -1.2957
 6115TIP3   OH239759   3.272   4.975   0.725  0.0852 -0.2513 -0.4858
 6115TIP3    H139760   3.276   4.949   0.817  0.4640  0.0599 -0.4115
 6115TIP3    H239761   3.193   5.028   0.718  1.4324  1.9241  0.2419
 6116TIP3   OH239762   1.438   0.809  17.172 -0.3475  0.4508  0.4008
 6116TIP3    H139763   1.483   0.828  17.255 -0.5450  3.0300 -0.0270
 6116TIP3    H239764   1.401   0.722  17.184  2.1147 -0.4552  1.9184
 6117TIP3   OH239765   6.339   5.604  12.862  0.4441 -0.0797  0.0699
 6117TIP3    H139766   6.321   5.514  12.834 -0.2748 -0.3294  1.2994
 6117TIP3    H239767   6.417   5.629  12.813  0.6585 -1.3761 -0.2702
 6118TIP3   OH239768   3.026   3.664  13.315  0.7982 -0.0721  0.6710
 6118TIP3    H139769   3.068   3.733  13.262  1.1554 -1.3292 -0.7354
 6118TIP3    H239770   2.971   3.711  13.377  2.5981  1.5556  1.0792
 6119TIP3   OH239771   5.205   6.323  13.000 -0.2449 -0.6998  0.0620
 6119TIP3    H139772   5.248   6.337  13.084 -1.0459  2.0369  0.0719
 6119TIP3    H239773   5.111   6.327  13.020 -0.4441 -0.0322 -0.9357
 6120TIP3   OH239774   1.657   6.412  10.960 -0.7630 -0.8284 -0.3431
 6120TIP3    H139775   1.719   6.472  10.918 -1.4986  1.2911  1.4868
 6120TIP3    H239776   1.673   6.328  10.919  1.9524  0.1212 -1.3087
 6121TIP3   OH239777   0.135   5.158   3.139 -0.1821 -0.1858  0.0855
 6121TIP3    H139778   0.197   5.225   3.111  1.8704 -1.7477  0.8283
 6121TIP3    H239779   0.118   5.178   3.231 -2.0253  1.1686 -0.5222
 6122TIP3   OH239780   3.580   3.384   2.272  0.2259  0.1518  0.0861
 6122TIP3    H139781   3.497   3.337   2.277 -0.0351  0.6053  0.0427
 6122TIP3    H239782   3.618   3.374   2.360 -0.8696  1.7455  0.7660
 6123TIP3   OH239783   2.788   5.441  11.580 -0.0500 -0.1826 -0.0429
 6123TIP3    H139784   2.695   5.449  11.558 -0.1147  1.9102  0.8723
 6123TIP3    H239785   2.790   5.396  11.664 -0.2531  0.1191  0.1233
 6124TIP3   OH239786   4.472   1.824  15.687 -0.0120 -0.0265  0.5426
 6124TIP3    H139787   4.408   1.895  15.688 -0.1293 -0.1522  1.8270
 6124TIP3    H239788   4.555   1.867  15.664 -0.7908 -0.0931 -2.6812
 6125TIP3   OH239789   6.573   0.895  14.586 -0.2856 -0.0818  0.3297
 6125TIP3    H139790   6.504   0.960  14.594  0.7493  1.1688 -0.7804
 6125TIP3    H239791   6.557   0.854  14.500  0.7021  0.6193 -0.1892
 6126TIP3   OH239792   3.768   6.749  16.632  0.1673 -0.0500  0.2766
 6126TIP3    H139793   3.837   6.727  16.569  3.3647  2.5685  2.6601
 6126TIP3    H239794   3.781   6.687  16.704 -0.6501 -0.2100  0.2907
 6127TIP3   OH239795   5.773   5.077  12.255 -0.2806  0.3474 -0.4113
 6127TIP3    H139796   5.768   5.157  12.204 -1.0208  0.3967 -0.2661
 6127TIP3    H239797   5.859   5.081  12.298  0.8272 -0.2171 -2.4961
 6128TIP3   OH239798   3.374   5.450  16.443  0.4078  0.3164  0.1001
 6128TIP3    H139799   3.432   5.404  16.503  1.3148 -0.0389 -1.0286
 6128TIP3    H239800   3.389   5.409  16.358 -1.7819 -0.0421 -0.1502
 6129TIP3   OH239801   4.590   1.314  12.795 -0.6049 -0.1856 -0.5425
 6129TIP3    H139802   4.646   1.244  12.760 -1.0596  0.1227 -1.9036
 6129TIP3    H239803   4.536   1.341  12.721 -2.7224 -0.6165  0.7976
 6130TIP3   OH239804   5.593   1.814  13.421 -0.1738 -0.0816 -0.4984
 6130TIP3    H139805   5.682   1.778  13.420  0.0901  0.5826 -1.1429
 6130TIP3    H239806   5.541   1.747  13.464  0.5783 -0.6267 -0.4261
 6131TIP3   OH239807   6.768   6.510   4.002 -0.3162  0.4568 -0.7223
 6131TIP3    H139808   6.779   6.467   4.086  0.6547  0.3169 -0.9197
 6131TIP3    H239809   6.851   6.497   3.957 -0.3074  1.8221 -1.1151
 6132TIP3   OH239810   3.642   2.052   1.011 -0.5169  0.2918 -0.2271
 6132TIP3    H139811   3.608   1.990   0.947  0.2045 -1.9314  1.4926
 6132TIP3    H239812   3.585   2.042   1.087  0.0271  1.2701  0.3246
 6133TIP3   OH239813   1.371   4.148  11.860  0.6154  0.1597  0.4317
 6133TIP3    H139814   1.287   4.193  11.869  0.8566  0.4745  1.1445
 6133TIP3    H239815   1.395   4.123  11.949  2.4041  2.1316  0.5514
 6134TIP3   OH239816   3.120   6.282   4.975 -0.1661  0.1414  0.1838
 6134TIP3    H139817   3.079   6.339   5.041  0.5792 -0.2563  1.0086
 6134TIP3    H239818   3.073   6.301   4.894 -1.0924  0.6540  0.8301
 6135TIP3   OH239819   6.602   2.880  14.551  0.0428 -0.7342  0.0113
 6135TIP3    H139820   6.614   2.826  14.474  1.9688 -0.0663 -0.1715
 6135TIP3    H239821   6.513   2.914  14.543  0.0100 -1.1905 -1.5765
 6136TIP3   OH239822   2.572   3.913  14.030 -0.0034  0.0173 -0.4405
 6136TIP3    H139823   2.618   3.925  14.113 -1.2674  0.8893  0.1311
 6136TIP3    H239824   2.528   3.829  14.039  1.8127 -1.0580 -1.1711
 6137TIP3   OH239825   6.413   1.915   2.072  0.3057  0.0554 -0.3416
 6137TIP3    H139826   6.490   1.874   2.033  0.8815  2.0168 -1.3311
 6137TIP3    H239827   6.425   2.008   2.055 -3.0720  0.2696 -1.8885
 6138TIP3   OH239828   0.185   3.864   4.706 -0.0008  0.2214 -0.1454
 6138TIP3    H139829   0.221   3.815   4.780 -0.2316  1.8520  1.0850
 6138TIP3    H239830   0.166   3.951   4.742 -1.0328  0.7408 -1.8850
 6139TIP3   OH239831   2.086   5.048  12.177  0.5244  0.5254 -0.1729
 6139TIP3    H139832   2.025   5.062  12.249 -0.1596 -1.5751 -0.3303
 6139TIP3    H239833   2.055   5.106  12.107 -1.0349 -0.2344 -0.1124
 6140TIP3   OH239834   0.708   2.731  12.771 -0.0722  0.0354 -0.2221
 6140TIP3    H139835   0.769   2.797  12.805  0.6235 -0.0040 -1.3768
 6140TIP3    H239836   0.641   2.783  12.726 -0.0026 -0.0051 -0.3705
 6141TIP3   OH239837   3.856   0.942  10.744  0.4945  0.5015 -0.4163
 6141TIP3    H139838   3.945   0.963  10.718  0.4836 -0.4316 -1.2025
 6141TIP3    H239839   3.810   0.925  10.662  0.0580 -0.8428  0.0893
 6142TIP3   OH239840   1.254   1.098   4.878 -0.1723 -0.0398  0.3629
 6142TIP3    H139841   1.263   1.159   4.805 -1.6661  0.8948  0.9318
 6142TIP3    H239842   1.160   1.079   4.881 -0.0389 -0.5318  1.6667
 6143TIP3   OH239843   0.808   5.716  17.104  0.6395 -0.9497  0.1322
 6143TIP3    H139844   0.802   5.705  17.009  1.0063  1.1076 -0.1443
 6143TIP3    H239845   0.860   5.795  17.116  0.3154 -1.0015  2.0477
 6144TIP3   OH239846   5.774   6.401  11.066  0.5074 -0.5377 -0.0076
 6144TIP3    H139847   5.769   6.307  11.048  3.8572 -0.4498 -1.9624
 6144TIP3    H239848   5.850   6.410  11.124  2.1356  1.1549 -2.2624
 6145TIP3   OH239849   4.774   2.884  11.314  0.6780 -0.1493 -0.1326
 6145TIP3    H139850   4.748   2.930  11.234  0.0034  0.1575  0.2504
 6145TIP3    H239851   4.696   2.890  11.370  1.7444  1.2136  1.2397
 6146TIP3   OH239852   5.927   4.420  11.670 -0.1490  0.5250 -0.2719
 6146TIP3    H139853   5.959   4.443  11.583 -1.3518 -0.9401 -1.1347
 6146TIP3    H239854   5.837   4.390  11.655  0.4736 -2.2025  1.1042
 6147TIP3   OH239855   5.768   1.586   4.899  0.1684  0.1064  0.3092
 6147TIP3    H139856   5.829   1.647   4.857  0.8335 -1.0872 -0.4893
 6147TIP3    H239857   5.823   1.536   4.959 -0.2647 -0.0818  0.5439
 6148TIP3   OH239858   1.158   5.826   0.850 -0.2163  0.0344  0.0782
 6148TIP3    H139859   1.128   5.839   0.940  2.1687  0.3595  0.8572
 6148TIP3    H239860   1.253   5.835   0.855 -0.0282 -0.2855 -2.4262
 6149TIP3   OH239861   2.731   1.817   0.256 -0.4189 -0.0039 -0.0723
 6149TIP3    H139862   2.682   1.779   0.183 -0.4948 -1.1980  0.5966
 6149TIP3    H239863   2.692   1.779   0.335  0.9207 -0.2252  0.5124
 6150TIP3   OH239864   1.404   5.359  12.074  0.2466  0.3059 -0.0386
 6150TIP3    H139865   1.365   5.271  12.076 -1.8567  1.2160  0.6174
 6150TIP3    H239866   1.490   5.348  12.115 -0.6667 -1.1428  1.5672
 6151TIP3   OH239867   2.956   1.689  10.925  0.2840 -0.3914 -0.1811
 6151TIP3    H139868   3.015   1.761  10.950  0.9619 -0.8417 -0.4895
 6151TIP3    H239869   2.895   1.730  10.864 -0.7528  0.4732  1.3763
 6152TIP3   OH239870   1.401   1.462   0.810 -0.9971 -0.1888  0.0907
 6152TIP3    H139871   1.440   1.546   0.786 -1.8777 -0.0933 -1.0739
 6152TIP3    H239872   1.316   1.485   0.848 -1.8063 -0.5973 -1.4327
 6153TIP3   OH239873   2.673   5.263   5.975  0.0781 -0.2337  0.7481
 6153TIP3    H139874   2.672   5.356   5.951  1.9921 -0.1660  0.8791
 6153TIP3    H239875   2.741   5.257   6.042 -1.7716 -1.3042  2.5674
 6154TIP3   OH239876   2.901   6.647   1.482 -0.2101  0.0847 -0.0907
 6154TIP3    H139877   2.973   6.658   1.420  0.0707  0.3988  0.2902
 6154TIP3    H239878   2.827   6.689   1.440  0.4428  1.9820  0.6239
 6155TIP3   OH239879   2.158   6.117  13.128  0.2056 -0.6157  0.8513
 6155TIP3    H139880   2.082   6.082  13.176  0.2291 -0.7070  0.8218
 6155TIP3    H239881   2.139   6.210  13.118 -0.2285 -0.7641  0.2334
 6156TIP3   OH239882   4.165   2.267   3.035 -0.4128 -0.3025  0.5592
 6156TIP3    H139883   4.079   2.299   3.061 -1.8277 -1.9364 -1.9965
 6156TIP3    H239884   4.208   2.344   2.996 -0.7011  0.4772  1.7262
 6157TIP3   OH239885   3.770   0.309   2.505 -0.0805  0.5027  0.5563
 6157TIP3    H139886   3.750   0.387   2.453  1.7016  2.1921  2.3287
 6157TIP3    H239887   3.685   0.268   2.520 -1.0387  2.0671 -0.4712
 6158TIP3   OH239888   6.339   1.539   3.348 -0.1512 -0.2822  0.1559
 6158TIP3    H139889   6.244   1.551   3.348  0.0779  1.7180  0.6791
 6158TIP3    H239890   6.368   1.570   3.434  0.8609 -2.0094  0.4673
 6159TIP3   OH239891   3.971   4.318  14.773  0.1349 -0.2681 -0.0658
 6159TIP3    H139892   4.028   4.249  14.741  2.3396  0.8966  1.2732
 6159TIP3    H239893   3.972   4.308  14.868 -1.5852  0.0204  0.0030
 6160TIP3   OH239894   1.211   0.593   5.503  0.5641 -0.3439 -0.2965
 6160TIP3    H139895   1.183   0.505   5.480 -1.0552 -0.9933  3.7035
 6160TIP3    H239896   1.301   0.599   5.471  0.4097 -3.1087 -1.4019
 6161TIP3   OH239897   0.185   3.099  14.127 -0.3436 -0.2038 -0.0449
 6161TIP3    H139898   0.252   3.165  14.111 -0.8613  0.3984  0.2554
 6161TIP3    H239899   0.205   3.029  14.065  0.2763  0.1830 -0.2850
 6162TIP3   OH239900   6.084   5.075  10.963 -0.2496 -0.1310 -0.4145
 6162TIP3    H139901   6.022   5.026  10.908 -1.2378 -0.3847  0.8966
 6162TIP3    H239902   6.101   5.016  11.036  0.4348  0.5318 -0.0451
 6163TIP3   OH239903   6.346   3.400  11.486 -0.4534  0.3669  0.2163
 6163TIP3    H139904   6.253   3.382  11.477  0.0034 -2.1641  0.3196
 6163TIP3    H239905   6.352   3.496  11.493 -3.1519  0.4436  1.8455
 6164TIP3   OH239906   1.010   1.309  12.160  0.3109  0.3893 -0.0610
 6164TIP3    H139907   1.058   1.341  12.237 -1.1006  0.9349  0.6142
 6164TIP3    H239908   0.945   1.248  12.197  1.4522 -1.4998 -1.1041
 6165TIP3   OH239909   4.900   3.710   2.078  0.5292  0.1964  0.2822
 6165TIP3    H139910   4.840   3.719   2.004 -1.1792 -2.3223  1.2704
 6165TIP3    H239911   4.986   3.698   2.038 -0.1549  0.2719 -1.2581
 6166TIP3   OH239912   4.065   0.758  13.972 -0.1388  0.1595 -0.5047
 6166TIP3    H139913   4.033   0.691  14.032 -0.1939 -1.3072 -2.1476
 6166TIP3    H239914   4.155   0.773  13.999 -0.0764 -0.7004 -0.2149
 6167TIP3   OH239915   3.374   4.189  12.102 -1.0243  0.0972  0.2684
 6167TIP3    H139916   3.408   4.111  12.059 -2.3476  0.1042 -0.8298
 6167TIP3    H239917   3.280   4.174  12.109 -0.8262  0.0616  3.2774
 6168TIP3   OH239918   0.689   5.316   0.970  1.0567 -0.4917  0.8624
 6168TIP3    H139919   0.598   5.320   1.000  0.8358 -0.9193  0.2678
 6168TIP3    H239920   0.715   5.225   0.984  1.3481 -0.4027  0.8974
 6169TIP3   OH239921   5.487   1.061   3.537  1.0913  0.1059  0.4097
 6169TIP3    H139922   5.395   1.086   3.526  0.8556 -1.2311 -0.8285
 6169TIP3    H239923   5.513   1.100   3.620  0.5966  3.9775 -1.1485
 6170TIP3   OH239924   4.621   0.281   1.210 -0.7825  0.4233 -0.2321
 6170TIP3    H139925   4.560   0.221   1.253 -0.6386  0.8925  0.6280
 6170TIP3    H239926   4.588   0.368   1.229 -0.9164  0.6311 -1.3738
 6171TIP3   OH239927   6.327   0.085   0.848 -0.3044  0.0718 -0.2046
 6171TIP3    H139928   6.322   0.048   0.936 -2.1010 -0.8505 -0.6782
 6171TIP3    H239929   6.250   0.051   0.803  0.5103  0.6483 -2.0975
 6172TIP3   OH239930   4.254   0.715   1.033 -0.2340 -0.7505 -0.0882
 6172TIP3    H139931   4.235   0.785   0.970  2.4522 -0.2531 -0.4102
 6172TIP3    H239932   4.260   0.760   1.117  1.0247 -0.6384 -0.2260
 6173TIP3   OH239933   5.856   0.593   1.979  0.3286  0.4252  0.2534
 6173TIP3    H139934   5.798   0.527   1.941 -0.3836  1.7132 -0.8953
 6173TIP3    H239935   5.830   0.597   2.071 -0.9959  0.5456 -0.1188
 6174TIP3   OH239936   0.570   3.736  16.046 -0.4271  0.2721 -0.0204
 6174TIP3    H139937   0.624   3.673  16.094 -2.2657 -0.8328  0.6240
 6174TIP3    H239938   0.582   3.818  16.093 -2.3870 -0.8484  2.4951
 6175TIP3   OH239939   4.410   4.189  16.000 -0.2991  0.0300  0.2361
 6175TIP3    H139940   4.343   4.146  15.947 -1.6172  1.5211  0.6350
 6175TIP3    H239941   4.364   4.213  16.081  0.0275  3.1880 -0.4525
 6176TIP3   OH239942   2.137   1.217  15.742  0.6203 -0.4948 -0.1633
 6176TIP3    H139943   2.163   1.255  15.658  0.0200 -1.4742 -0.8042
 6176TIP3    H239944   2.201   1.147  15.758 -0.4504 -1.6519 -0.8139
 6177TIP3   OH239945   2.578   4.559   2.037 -0.3746 -0.2503 -0.3612
 6177TIP3    H139946   2.483   4.555   2.046 -0.4165  1.0319 -0.1276
 6177TIP3    H239947   2.611   4.519   2.117 -0.7282  1.3292  0.5858
 6178TIP3   OH239948   3.792   2.219   2.827 -0.6643 -0.1536  0.0863
 6178TIP3    H139949   3.825   2.297   2.873  2.3507 -1.9588  1.1109
 6178TIP3    H239950   3.844   2.216   2.746 -0.4519 -1.3085  0.2570
 6179TIP3   OH239951   6.077   4.656   4.672 -0.3146  0.0969  0.2609
 6179TIP3    H139952   6.023   4.710   4.730 -0.2090  1.6614 -1.0720
 6179TIP3    H239953   6.149   4.713   4.646  0.8187 -1.2901  0.3033
 6180TIP3   OH239954   1.493   4.261   1.191  0.2096 -0.0192 -0.9756
 6180TIP3    H139955   1.469   4.171   1.211 -0.2323  0.2811 -0.1426
 6180TIP3    H239956   1.470   4.310   1.269 -0.7629  1.0448 -1.9167
 6181TIP3   OH239957   2.944   4.773   3.425 -0.0185  0.2880 -0.2102
 6181TIP3    H139958   2.913   4.688   3.394 -0.0957  1.0158 -2.2233
 6181TIP3    H239959   3.039   4.766   3.425 -0.0507 -0.6140  2.0918
 6182TIP3   OH239960   0.452   3.156  16.616  0.0728  0.4162  0.6668
 6182TIP3    H139961   0.386   3.104  16.569  1.3567  0.1562 -0.8935
 6182TIP3    H239962   0.444   3.244  16.578 -0.5058  0.8082  1.6657
 6183TIP3   OH239963   1.257   2.582   1.466  0.0294 -0.3166  0.4300
 6183TIP3    H139964   1.174   2.584   1.419  0.7907  0.4882 -0.8976
 6183TIP3    H239965   1.256   2.661   1.520  0.5212  0.4060 -0.6147
 6184TIP3   OH239966   3.782   2.640   3.593  0.0852  0.6564  0.0275
 6184TIP3    H139967   3.777   2.707   3.661  0.4834  1.7633 -1.0135
 6184TIP3    H239968   3.751   2.560   3.635  0.7340  1.2368  1.6310
 6185TIP3   OH239969   2.475   2.402   4.803 -0.2025 -0.1568 -0.0938
 6185TIP3    H139970   2.473   2.415   4.898 -1.3082 -0.5379 -0.0601
 6185TIP3    H239971   2.392   2.360   4.783  0.2817 -0.6288 -1.1586
 6186TIP3   OH239972   5.227   1.615   4.531  0.1028 -0.3036  0.6212
 6186TIP3    H139973   5.231   1.522   4.556 -2.4590 -0.4111  0.8213
 6186TIP3    H239974   5.280   1.660   4.597 -1.0672 -1.3421  2.3306
 6187TIP3   OH239975   3.336   6.519   2.505  0.0725  0.1115  0.0436
 6187TIP3    H139976   3.402   6.588   2.505  2.4219 -2.0684  1.3063
 6187TIP3    H239977   3.285   6.535   2.585  0.8298  0.1547  0.5184
 6188TIP3   OH239978   2.654   2.710   5.188 -0.3594 -0.7192  0.4128
 6188TIP3    H139979   2.605   2.675   5.263 -0.5509  0.4063  0.8212
 6188TIP3    H239980   2.726   2.648   5.176 -2.3482 -2.8888 -0.7644
 6189TIP3   OH239981   0.319   1.074   5.016  0.1878 -0.3103 -0.0917
 6189TIP3    H139982   0.225   1.054   5.015  0.2204 -0.4637 -0.2592
 6189TIP3    H239983   0.331   1.136   4.944 -0.0228  0.8354  0.8548
 6190TIP3   OH239984   3.308   1.286  11.661 -0.2984 -0.3329 -0.1354
 6190TIP3    H139985   3.392   1.313  11.626 -1.3759  0.4751 -2.1791
 6190TIP3    H239986   3.271   1.366  11.701 -0.2300 -0.6126  0.4975
 6191TIP3   OH239987   5.763   6.410   2.391 -0.5814 -0.4850  0.0937
 6191TIP3    H139988   5.828   6.479   2.374 -1.1984  0.3388  1.0089
 6191TIP3    H239989   5.816   6.331   2.403 -0.0024 -0.6915 -3.3214
 6192TIP3   OH239990   5.855   1.181  11.470 -0.2963 -0.2395 -0.2611
 6192TIP3    H139991   5.830   1.224  11.551  0.3101 -2.5651  1.2314
 6192TIP3    H239992   5.774   1.141  11.438 -0.0942 -1.2116  0.4179
 6193TIP3   OH239993   1.683   2.124  11.635  0.9282 -0.2539 -0.3232
 6193TIP3    H139994   1.718   2.092  11.718 -1.5550  1.0241  1.2738
 6193TIP3    H239995   1.701   2.218  11.636 -0.1069 -0.0436 -0.7231
 6194TIP3   OH239996   0.465   3.102   0.064  0.1237 -0.3979 -0.0904
 6194TIP3    H139997   0.435   3.056  -0.014 -1.0943  1.4577 -0.7547
 6194TIP3    H239998   0.405   3.075   0.133 -0.3479 -0.1111 -0.3881
 6195TIP3   OH239999   6.442   4.326  16.189  0.2690  0.0494  0.3157
 6195TIP3    H140000   6.391   4.393  16.145  2.3891  0.9724 -0.8153
 6195TIP3    H240001   6.447   4.254  16.125 -0.8753 -0.6599  1.0089
 6196TIP3   OH240002   6.053   5.594  12.944  0.1108 -0.2673 -0.1717
 6196TIP3    H140003   5.999   5.621  12.869 -0.5845  0.4682  0.5807
 6196TIP3    H240004   6.137   5.637  12.930 -0.0814  0.0307 -0.4304
 6197TIP3   OH240005   5.338   1.783   0.832  0.1549 -0.2527  0.0220
 6197TIP3    H140006   5.378   1.858   0.875 -2.5971  1.5531 -0.4001
 6197TIP3    H240007   5.340   1.714   0.898  2.0905  0.3969  0.6697
 6198TIP3   OH240008   4.581   2.369   0.156 -0.1441  0.3396  0.4510
 6198TIP3    H140009   4.634   2.448   0.150  0.2468 -0.0005 -0.7747
 6198TIP3    H240010   4.547   2.356   0.067  0.9592 -1.6423  0.2870
 6199TIP3   OH240011   1.379   1.499   4.514  0.1177 -0.0454 -0.2346
 6199TIP3    H140012   1.318   1.473   4.445 -2.1729  0.0142  1.6735
 6199TIP3    H240013   1.455   1.444   4.502 -0.7379 -0.8617 -2.0769
 6200TIP3   OH240014   1.927   1.391   6.144  0.2425 -0.2553 -0.1686
 6200TIP3    H140015   1.982   1.468   6.126  0.2186 -0.4437 -1.0757
 6200TIP3    H240016   1.888   1.409   6.229  0.9004  0.3569  0.0104
 6201TIP3   OH240017   4.441   0.931  15.021 -0.0107  0.3259 -0.2749
 6201TIP3    H140018   4.424   0.948  15.114  0.9398  0.9979 -0.2154
 6201TIP3    H240019   4.535   0.913  15.017 -0.1024  0.0166 -1.0688
 6202TIP3   OH240020   5.019   5.936   5.813  0.0814  0.7526  0.3790
 6202TIP3    H140021   4.988   6.007   5.870 -2.6572 -0.5745  0.6408
 6202TIP3    H240022   5.095   5.900   5.858  1.1700  3.1454  0.5166
 6203TIP3   OH240023   5.631   1.813   0.890 -0.4982 -0.1741 -0.1553
 6203TIP3    H140024   5.727   1.811   0.883 -0.5658 -1.7845 -0.8721
 6203TIP3    H240025   5.601   1.833   0.801 -0.8544 -0.6649 -0.1459
 6204TIP3   OH240026   1.009   3.843   5.250  0.2786  0.2572 -0.0630
 6204TIP3    H140027   0.922   3.852   5.288  1.4824  1.6861  2.4864
 6204TIP3    H240028   1.012   3.752   5.219 -1.8231 -0.0466  0.5167
 6205TIP3   OH240029   0.480   3.631  11.069  0.1341 -0.0250  0.7568
 6205TIP3    H140030   0.490   3.627  10.974  1.8738 -1.0250  0.9609
 6205TIP3    H240031   0.464   3.541  11.096  0.9650  0.0502  1.5364
 6206TIP3   OH240032   1.971   2.623  15.134 -0.1421 -0.3186  0.0476
 6206TIP3    H140033   2.046   2.611  15.192 -0.6713 -0.5459  0.6955
 6206TIP3    H240034   1.910   2.554  15.159  0.5645 -1.8732 -2.3542
 6207TIP3   OH240035   6.417   3.673  15.527  0.2256  0.0519  0.1538
 6207TIP3    H140036   6.467   3.592  15.522 -0.8615 -0.5337 -1.7782
 6207TIP3    H240037   6.482   3.742  15.517  0.7154 -0.6810 -1.8115
 6208TIP3   OH240038   3.985   4.132  13.632 -0.5852  0.1537  0.3057
 6208TIP3    H140039   4.038   4.148  13.711 -0.3829  0.0037  0.1995
 6208TIP3    H240040   4.037   4.071  13.580  0.1937  1.7873 -0.8648
 6209TIP3   OH240041   1.376   2.351   0.562 -0.7662 -0.3291  0.1240
 6209TIP3    H140042   1.367   2.409   0.638 -0.7509  0.5251 -0.5286
 6209TIP3    H240043   1.357   2.264   0.597 -0.5060  0.0221  1.1710
 6210TIP3   OH240044   0.242   3.365  13.732  0.6703 -0.7594 -0.4422
 6210TIP3    H140045   0.230   3.270  13.726 -1.4249 -0.9213  3.8829
 6210TIP3    H240046   0.311   3.376  13.797  0.3879  0.6850 -0.3691
 6211TIP3   OH240047   3.472   0.797   5.738 -0.3722  0.4491 -0.1448
 6211TIP3    H140048   3.506   0.717   5.779  0.5265  1.5235  1.2313
 6211TIP3    H240049   3.426   0.766   5.660  1.2702 -1.2734 -0.4531
 6212TIP3   OH240050   3.684   1.606  11.524  0.0233 -0.5710  0.1781
 6212TIP3    H140051   3.760   1.569  11.569 -0.4261 -2.8719 -0.8878
 6212TIP3    H240052   3.708   1.604  11.431 -0.8281 -0.1090 -0.0594
 6213TIP3   OH240053   1.774   3.760   0.400  0.0000 -0.1662  0.8516
 6213TIP3    H140054   1.810   3.734   0.315 -2.1967 -0.7429  0.0749
 6213TIP3    H240055   1.834   3.720   0.464  2.9339  2.1175 -0.3802
 6214TIP3   OH240056   2.980   4.040  12.614  0.2941 -0.0190  0.6599
 6214TIP3    H140057   2.950   4.110  12.557  0.7977 -0.6464 -0.3883
 6214TIP3    H240058   2.986   4.080  12.701 -2.9394  0.3015  0.8027
 6215TIP3   OH240059   2.759   5.575  14.243  0.0753 -0.1799  0.3383
 6215TIP3    H140060   2.838   5.629  14.235  1.2835 -1.6399  2.1276
 6215TIP3    H240061   2.739   5.549  14.153  2.6701 -1.2103 -0.0020
 6216TIP3   OH240062   3.291   0.705  11.107 -0.1567 -0.2930 -0.3037
 6216TIP3    H140063   3.232   0.777  11.084  0.1065 -1.0736 -3.6448
 6216TIP3    H240064   3.377   0.735  11.078 -0.0031 -1.8160 -1.4805
 6217TIP3   OH240065   4.605   5.008  12.826 -0.2846 -0.6399  0.1846
 6217TIP3    H140066   4.538   5.062  12.869  1.0702  0.2073  1.2872
 6217TIP3    H240067   4.570   4.991  12.739 -0.1979  3.1824 -0.6890
 6218TIP3   OH240068   3.387   0.282   1.457  0.6970  0.0748  0.3487
 6218TIP3    H140069   3.409   0.316   1.370  1.4110 -1.1936  0.0224
 6218TIP3    H240070   3.362   0.359   1.508 -1.6472  0.6427 -1.5424
 6219TIP3   OH240071   0.376   5.679   3.247  0.5001  0.4483  0.1611
 6219TIP3    H140072   0.400   5.661   3.338  1.7189  3.1452  0.4291
 6219TIP3    H240073   0.457   5.705   3.205 -0.0883 -0.6174 -1.6928
 6220TIP3   OH240074   4.980   5.546  14.410  0.1920 -0.3435  0.0473
 6220TIP3    H140075   5.004   5.530  14.318  0.2852  0.3238 -0.0467
 6220TIP3    H240076   4.916   5.478  14.430 -0.2487 -0.1513 -0.6794
 6221TIP3   OH240077   5.689   2.484   3.212  0.7063 -0.2682 -0.3722
 6221TIP3    H140078   5.722   2.451   3.129  2.1537  2.1586 -0.8015
 6221TIP3    H240079   5.744   2.441   3.278  2.2626  0.8521 -0.9006
 6222TIP3   OH240080   6.080   6.782  15.084  0.0586 -0.6778  0.4137
 6222TIP3    H140081   6.100   6.713  15.147 -2.6103 -1.9231 -0.0444
 6222TIP3    H240082   5.985   6.795  15.090  0.5541  3.5969  1.0963
 6223TIP3   OH240083   1.619   6.773  16.419 -0.2188  0.5042 -0.4462
 6223TIP3    H140084   1.545   6.790  16.360  0.7335 -1.7890 -2.4306
 6223TIP3    H240085   1.673   6.852  16.413 -2.0345  1.8311  0.3286
 6224TIP3   OH240086   6.661   4.829   4.795 -0.1737  0.0023 -0.3533
 6224TIP3    H140087   6.707   4.810   4.877 -0.0074 -0.7080 -0.6103
 6224TIP3    H240088   6.569   4.814   4.816 -0.0743 -0.7961 -0.4672
 6225TIP3   OH240089   1.919   2.113   4.221 -0.0972  1.0305  0.3824
 6225TIP3    H140090   1.973   2.068   4.156  0.2917  3.4797 -1.0232
 6225TIP3    H240091   1.908   2.049   4.292  2.5881 -0.3443 -0.4055
 6226TIP3   OH240092   5.224   4.907   1.760  0.2888 -0.8144  0.7433
 6226TIP3    H140093   5.257   4.934   1.674  1.4892  0.0434  1.4559
 6226TIP3    H240094   5.177   4.983   1.793 -0.3889 -1.2313  0.7534
 6227TIP3   OH240095   2.600   6.719  16.423  0.1708 -0.3151  1.1184
 6227TIP3    H140096   2.672   6.745  16.365 -0.6074  0.2819  0.4147
 6227TIP3    H240097   2.634   6.643  16.470  1.0929 -0.3349  0.4393
 6228TIP3   OH240098   0.937   6.567   0.126 -0.3275 -0.0205  0.4463
 6228TIP3    H140099   0.861   6.526   0.165 -0.2018 -0.4188  0.2716
 6228TIP3    H240100   1.011   6.514   0.154 -0.3943 -1.3241 -1.6907
 6229TIP3   OH240101   3.317   2.811  14.988 -0.0393  0.4802  0.4163
 6229TIP3    H140102   3.289   2.848  14.904 -1.2739  1.6752  1.3313
 6229TIP3    H240103   3.356   2.885  15.034  1.1074 -0.2981  0.6969
 6230TIP3   OH240104   5.217   2.458  15.718 -0.9010  0.9310 -0.0626
 6230TIP3    H140105   5.160   2.507  15.778 -0.5750  1.2832 -0.0386
 6230TIP3    H240106   5.170   2.460  15.635 -2.5915 -1.7438  0.7677
 6231TIP3   OH240107   0.980   2.764   2.766  0.2308 -0.3545  0.0134
 6231TIP3    H140108   0.993   2.829   2.697  1.0691 -0.4446  0.0811
 6231TIP3    H240109   1.066   2.722   2.776 -0.4058 -1.7534 -0.3094
 6232TIP3   OH240110   3.030   0.557  11.024 -0.4962 -0.2050  0.0650
 6232TIP3    H140111   2.934   0.559  11.023 -0.4831  3.2532 -0.0064
 6232TIP3    H240112   3.055   0.564  10.932 -0.1590 -0.3595  0.1449
 6233TIP3   OH240113   3.955   4.510   2.254  0.1795  0.3129 -0.0648
 6233TIP3    H140114   3.884   4.555   2.209  0.0399 -2.4239 -2.7009
 6233TIP3    H240115   4.035   4.551   2.221 -0.0496  1.2986  0.5782
 6234TIP3   OH240116   6.630   0.168   6.332 -0.0720  0.3610 -0.7608
 6234TIP3    H140117   6.605   0.170   6.240 -2.5345 -0.8621 -0.1571
 6234TIP3    H240118   6.558   0.212   6.377  1.2745  1.2557  0.5687
 6235TIP3   OH240119   4.382   3.842   1.892  0.3325  0.2133  0.1358
 6235TIP3    H140120   4.307   3.894   1.919  1.3498  1.0881  1.3793
 6235TIP3    H240121   4.392   3.860   1.799 -0.3134  0.9912  0.2107
 6236TIP3   OH240122   3.326   1.635  13.643  0.1379  0.0312  0.3041
 6236TIP3    H140123   3.348   1.557  13.692  0.8708 -0.4585 -0.7792
 6236TIP3    H240124   3.315   1.703  13.709 -1.7566 -1.2471  1.3502
 6237TIP3   OH240125   4.030   5.482   1.033 -0.2344 -0.4779 -0.7082
 6237TIP3    H140126   4.076   5.564   1.011  0.0074 -0.7878 -1.3604
 6237TIP3    H240127   4.002   5.495   1.123  0.4403  0.0427 -0.5622
 6238TIP3   OH240128   4.851   0.825   1.773  0.3817 -0.1862 -0.6016
 6238TIP3    H140129   4.916   0.863   1.832 -1.3204  1.2484  0.3787
 6238TIP3    H240130   4.786   0.786   1.831 -1.1646  0.9982 -1.5093
 6239TIP3   OH240131   5.680   2.958   1.519 -0.1939 -0.1231 -0.3627
 6239TIP3    H140132   5.717   2.978   1.605  2.7431 -0.3331 -1.5144
 6239TIP3    H240133   5.675   3.043   1.475  3.3427 -0.5530 -1.8224
 6240TIP3   OH240134   5.517   4.541   0.793 -0.0275  0.1308  0.7939
 6240TIP3    H140135   5.437   4.536   0.740 -0.3512  1.9115  1.0700
 6240TIP3    H240136   5.550   4.452   0.796 -0.6149 -0.1904 -1.4680
 6241TIP3   OH240137   3.045   1.468   3.492 -0.7718 -0.1491  0.7956
 6241TIP3    H140138   3.103   1.483   3.417 -1.4233 -0.8686  0.1414
 6241TIP3    H240139   3.041   1.553   3.537  0.3121  0.0582  0.5130
 6242TIP3   OH240140   2.381   0.478  14.391  0.2025 -0.1127 -0.3305
 6242TIP3    H140141   2.449   0.470  14.324  0.4874 -0.9494  0.0436
 6242TIP3    H240142   2.428   0.473  14.474 -0.4389 -2.3314 -0.0503
 6243TIP3   OH240143   3.267   1.426  11.293 -0.2377  0.2202 -0.0660
 6243TIP3    H140144   3.184   1.382  11.312 -1.1668  2.7199  2.0593
 6243TIP3    H240145   3.333   1.374  11.338 -1.0294 -0.2056  0.6051
 6244TIP3   OH240146   3.318   6.420   4.612  0.0060 -0.7672  0.3184
 6244TIP3    H140147   3.388   6.478   4.584  0.8201 -1.4761  0.8534
 6244TIP3    H240148   3.239   6.455   4.570  0.4427  0.8390  0.8166
 6245TIP3   OH240149   5.641   1.081  15.688  0.2796  0.4603  0.0807
 6245TIP3    H140150   5.691   1.067  15.768  0.3873 -0.2363 -0.1023
 6245TIP3    H240151   5.564   1.131  15.716 -0.2363 -0.7172  0.8186
 6246TIP3   OH240152   3.303   4.251  16.650  0.4921 -0.5560  0.2155
 6246TIP3    H140153   3.329   4.159  16.648  0.1668 -0.6276 -3.0055
 6246TIP3    H240154   3.210   4.250  16.625  0.7829  0.7275 -0.9749
 6247TIP3   OH240155   3.819   6.311   4.269  0.0596 -0.2489  0.5947
 6247TIP3    H140156   3.850   6.257   4.197 -0.6063 -0.4943  0.4969
 6247TIP3    H240157   3.724   6.311   4.261  0.0348  0.6508  0.7957
 6248TIP3   OH240158   6.135   3.595   0.707  0.0237 -0.1078 -0.1230
 6248TIP3    H140159   6.150   3.583   0.613 -0.9694 -0.6334 -0.2136
 6248TIP3    H240160   6.049   3.635   0.713  0.3084  0.4184  0.5445
 6249TIP3   OH240161   2.576   5.507   5.036  0.3569  0.2976  0.0089
 6249TIP3    H140162   2.583   5.455   5.117  0.5874  2.6462  1.5347
 6249TIP3    H240163   2.543   5.445   4.971  0.3254 -1.6915  1.8558
 6250TIP3   OH240164   0.656   0.515  16.972  0.4090 -0.6292 -0.0279
 6250TIP3    H140165   0.751   0.508  16.962  0.4308  0.6639 -0.8002
 6250TIP3    H240166   0.626   0.557  16.891 -0.9695 -2.1175 -0.3207
 6251TIP3   OH240167   3.521   6.720   2.795  0.4977 -0.5337  0.3933
 6251TIP3    H140168   3.559   6.718   2.707  1.2344  0.6158  0.6681
 6251TIP3    H240169   3.542   6.635   2.833  1.2891 -0.5530 -0.0917
 6252TIP3   OH240170   2.507   3.855   6.100  0.6621 -0.2409 -0.7891
 6252TIP3    H140171   2.425   3.841   6.147 -0.1408  0.2424 -2.0016
 6252TIP3    H240172   2.566   3.893   6.165  0.3511 -1.8253  0.4361
 6253TIP3   OH240173   4.804   3.835   5.769  0.6423 -0.0615  0.3852
 6253TIP3    H140174   4.803   3.759   5.711  1.8018  0.1911  0.0174
 6253TIP3    H240175   4.771   3.803   5.852 -4.1972  0.2874 -1.2625
 6254TIP3   OH240176   3.162   6.390  11.349  0.2228  0.1927 -0.1922
 6254TIP3    H140177   3.192   6.299  11.343 -0.9278 -0.1807 -0.4361
 6254TIP3    H240178   3.232   6.441  11.309  1.2407 -0.5112  0.6691
 6255TIP3   OH240179   4.449   2.771  15.079  0.6364  0.7031  0.0769
 6255TIP3    H140180   4.367   2.733  15.047 -0.7685  2.3392  1.6474
 6255TIP3    H240181   4.476   2.714  15.150  0.4519  0.5880  0.0542
 6256TIP3   OH240182   0.684   5.904  13.860 -0.5479 -0.0150 -0.4623
 6256TIP3    H140183   0.603   5.904  13.808  0.6991 -0.3372 -2.4532
 6256TIP3    H240184   0.753   5.880  13.798  1.1461  0.5927  1.1255
 6257TIP3   OH240185   3.016   1.056   1.530  0.4209 -0.8360 -0.0410
 6257TIP3    H140186   2.963   0.993   1.578 -0.3426  0.9314  1.4674
 6257TIP3    H240187   3.014   1.024   1.439  0.8469 -3.5002  0.8262
 6258TIP3   OH240188   5.369   5.457  12.422 -0.0709  0.0502  0.1561
 6258TIP3    H140189   5.428   5.457  12.347 -0.7277 -0.0162 -0.3623
 6258TIP3    H240190   5.422   5.490  12.494  0.9809 -1.2615 -0.0067
 6259TIP3   OH240191   5.525   1.297   1.437 -0.3479  0.0820 -0.7055
 6259TIP3    H140192   5.498   1.382   1.403 -0.2540 -0.0504 -1.1076
 6259TIP3    H240193   5.508   1.303   1.531 -0.1321  0.6291 -0.6956
 6260TIP3   OH240194   1.374   3.308   0.342  0.1386 -0.0781  0.0649
 6260TIP3    H140195   1.340   3.375   0.402 -1.9675 -2.0095  1.0798
 6260TIP3    H240196   1.469   3.313   0.352  0.0052  2.5055  0.3940
 6261TIP3   OH240197   4.693   5.781   4.874  0.0072  0.0378 -0.3317
 6261TIP3    H140198   4.714   5.873   4.855  2.7519  0.0971  2.4686
 6261TIP3    H240199   4.712   5.772   4.968 -1.2387 -3.1349 -0.3408
 6262TIP3   OH240200   1.735   4.225  13.186 -0.3463  0.4878  0.0162
 6262TIP3    H140201   1.799   4.154  13.179 -1.0196 -0.1869  0.6448
 6262TIP3    H240202   1.718   4.251  13.095  2.7515  2.4388 -0.0702
 6263TIP3   OH240203   6.207   3.297   3.855  0.2849  0.2247  0.8287
 6263TIP3    H140204   6.114   3.315   3.842  0.0701 -1.8297 -0.6315
 6263TIP3    H240205   6.213   3.274   3.948 -0.6568  0.4150  0.9474
 6264TIP3   OH240206   1.937   3.990  13.155  0.6571  0.0995  0.3886
 6264TIP3    H140207   2.013   4.003  13.098  1.5677  1.4005  1.8617
 6264TIP3    H240208   1.957   3.911  13.205  0.3494 -0.4142 -0.2871
 6265TIP3   OH240209   6.505   4.306  16.754 -0.1305  0.1025  0.0759
 6265TIP3    H140210   6.522   4.379  16.813 -0.8437 -0.4236  0.9496
 6265TIP3    H240211   6.417   4.323  16.720  0.0091  0.0531 -0.3070
 6266TIP3   OH240212   6.073   3.628  13.043  0.5467  0.6387 -0.1567
 6266TIP3    H140213   6.093   3.589  13.128  0.8617  3.3439  1.0518
 6266TIP3    H240214   5.977   3.628  13.039  0.5598 -1.5574 -0.8114
 6267TIP3   OH240215   2.600   0.647   4.733 -0.5027  0.0692  0.2399
 6267TIP3    H140216   2.601   0.557   4.702 -1.5109 -0.3172  1.2824
 6267TIP3    H240217   2.581   0.699   4.655  1.9199 -0.4492 -0.7129
 6268TIP3   OH240218   0.319   6.281  14.672 -0.4242  0.1765 -0.1915
 6268TIP3    H140219   0.370   6.208  14.706  0.2142  0.4114 -0.6423
 6268TIP3    H240220   0.381   6.353  14.666 -0.5809  0.1913 -1.6720
 6269TIP3   OH240221   1.274   3.242  16.415 -0.8492  0.5963 -0.4295
 6269TIP3    H140222   1.271   3.336  16.432 -0.8785  0.4835  0.2069
 6269TIP3    H240223   1.367   3.221  16.410 -0.8442  0.6873 -0.7566
 6270TIP3   OH240224   0.664   0.536   1.826 -0.2437 -0.5358 -0.2376
 6270TIP3    H140225   0.586   0.571   1.783  0.0103  0.8695  0.4210
 6270TIP3    H240226   0.644   0.540   1.920  1.2897  1.5328  0.0381
 6271TIP3   OH240227   1.142   2.877  17.036  0.2217 -0.1594 -0.2398
 6271TIP3    H140228   1.059   2.918  17.058  1.1794  0.7045  1.9066
 6271TIP3    H240229   1.119   2.787  17.012 -1.2122 -0.2830  1.5125
 6272TIP3   OH240230   1.514   6.385  12.133 -0.4335 -0.2500  0.5495
 6272TIP3    H140231   1.430   6.405  12.093  0.5096  0.6454 -1.0621
 6272TIP3    H240232   1.544   6.469  12.168 -0.4833 -0.6921  1.6676
 6273TIP3   OH240233   2.814   6.133  12.666 -0.5896 -0.5103 -0.3329
 6273TIP3    H140234   2.740   6.193  12.657 -0.8838 -0.8620 -0.2825
 6273TIP3    H240235   2.813   6.082  12.584 -0.2621 -0.3565 -0.4326
 6274TIP3   OH240236   5.129   2.317  12.111  0.1020  0.1022 -0.3635
 6274TIP3    H140237   5.213   2.346  12.146 -0.3815 -0.1537  1.0510
 6274TIP3    H240238   5.136   2.222  12.109 -0.0789  0.0906 -0.4213
 6275TIP3   OH240239   6.511   2.196   0.479 -0.2628  0.4494 -0.1120
 6275TIP3    H140240   6.420   2.184   0.453 -0.3712  1.2234 -0.1004
 6275TIP3    H240241   6.555   2.115   0.452 -0.8582  0.2649 -0.5306
 6276TIP3   OH240242   6.287   2.879  11.499 -0.3461 -0.0653  0.2112
 6276TIP3    H140243   6.227   2.930  11.553  0.7892  0.4410  1.0240
 6276TIP3    H240244   6.331   2.944  11.444 -0.2560 -0.3893 -0.1031
 6277TIP3   OH240245   4.531   1.874  12.065  0.1861  0.0878 -0.0792
 6277TIP3    H140246   4.600   1.849  12.127 -0.5550 -0.9240  0.3455
 6277TIP3    H240247   4.474   1.798  12.060 -0.4516  0.6144 -1.0699
 6278TIP3   OH240248   2.012   3.534  14.922 -0.1628 -0.1752  0.2106
 6278TIP3    H140249   1.977   3.569  14.840  2.0194  0.5107 -0.4557
 6278TIP3    H240250   1.994   3.602  14.987  1.9556  1.1755 -0.5975
 6279TIP3   OH240251   1.669   1.889  16.438  0.8006 -0.3597 -0.3018
 6279TIP3    H140252   1.695   1.885  16.530 -0.0709  0.7265 -0.0012
 6279TIP3    H240253   1.752   1.900  16.391  1.0481  1.3354  0.5159
 6280TIP3   OH240254   2.545   5.622  16.315 -0.0699  0.2492 -0.2433
 6280TIP3    H140255   2.600   5.696  16.289 -0.0315 -0.0519 -1.0282
 6280TIP3    H240256   2.567   5.553  16.252  0.2225 -0.5821  0.7543
 6281TIP3   OH240257   3.234   3.773   4.598 -0.7949  0.2101 -0.2277
 6281TIP3    H140258   3.280   3.797   4.679 -0.2482 -3.1286  0.5673
 6281TIP3    H240259   3.145   3.751   4.627 -0.4516 -1.5080 -0.3820
 6282TIP3   OH240260   1.483   1.690  16.428  0.7616  0.5636 -0.3115
 6282TIP3    H140261   1.527   1.607  16.444  0.4042  0.2523 -0.9174
 6282TIP3    H240262   1.553   1.754  16.424  1.1172  0.1456 -0.7693
 6283TIP3   OH240263   1.281   2.089   4.331 -0.3433 -0.1714 -0.1178
 6283TIP3    H140264   1.262   2.018   4.270  0.2592 -1.5874  1.3208
 6283TIP3    H240265   1.375   2.105   4.322 -0.4432  0.3226 -0.3040
 6284TIP3   OH240266   2.928   5.996  17.130 -0.0952 -0.2038  0.3720
 6284TIP3    H140267   2.908   6.084  17.098  0.6877  0.3290  1.3018
 6284TIP3    H240268   2.953   6.009  17.222  0.5331 -1.3337  0.3732
 6285TIP3   OH240269   4.755   4.672   1.609 -0.4642  0.2929 -0.2903
 6285TIP3    H140270   4.684   4.684   1.545 -0.8290 -0.0924  0.0416
 6285TIP3    H240271   4.712   4.674   1.694  0.0588  1.0499 -0.0340
 6286TIP3   OH240272   0.354   6.053  16.939  0.4836  0.3280  0.2711
 6286TIP3    H140273   0.305   5.984  16.983 -1.7061  0.9637 -1.1364
 6286TIP3    H240274   0.438   6.012  16.917  0.3387 -0.9813  2.0376
 6287TIP3   OH240275   1.073   0.639  15.063 -0.0065  0.3316 -0.2046
 6287TIP3    H140276   1.051   0.558  15.109 -1.9648 -0.8649 -3.1377
 6287TIP3    H240277   0.996   0.695  15.075  0.3256  0.8174 -0.3069
 6288TIP3   OH240278   2.959   3.294   4.965  0.4017 -0.3258  0.2518
 6288TIP3    H140279   2.897   3.301   5.038  1.3352 -0.7753  1.0972
 6288TIP3    H240280   3.042   3.323   5.002  0.2525  2.6321 -1.5001
 6289TIP3   OH240281   3.787   1.670  14.427 -0.0329 -0.1522 -0.0840
 6289TIP3    H140282   3.724   1.602  14.452  1.5052 -1.4176  0.4798
 6289TIP3    H240283   3.788   1.730  14.502 -2.5769  1.4040 -1.2533
 6290TIP3   OH240284   1.212   5.507  11.489  0.3112 -0.2454  0.2230
 6290TIP3    H140285   1.153   5.435  11.467 -0.4853 -0.0559  1.6949
 6290TIP3    H240286   1.199   5.571  11.419 -0.4327 -0.6800 -0.0416
 6291TIP3   OH240287   5.990   5.434   0.989 -0.4788  0.9190  0.0052
 6291TIP3    H140288   5.948   5.442   1.074 -0.1196  1.2855  0.1528
 6291TIP3    H240289   6.084   5.440   1.008 -0.3978  1.0190 -0.4167
 6292TIP3   OH240290   0.946   3.889  12.618  0.5227  0.1136 -0.1396
 6292TIP3    H140291   0.914   3.891  12.708  2.0620  1.0903  0.4206
 6292TIP3    H240292   1.000   3.968  12.610  0.3442  0.0750 -1.9389
 6293TIP3   OH240293   5.170   5.624  13.239  0.8211  0.2458 -0.2759
 6293TIP3    H140294   5.168   5.566  13.163 -1.8389  0.5357 -0.4778
 6293TIP3    H240295   5.133   5.572  13.310  3.4933 -0.0981  0.9037
 6294TIP3   OH240296   0.217   0.611   4.601  0.4630 -0.0363  0.0036
 6294TIP3    H140297   0.255   0.541   4.653 -2.4506 -2.2013 -0.6198
 6294TIP3    H240298   0.235   0.586   4.510  2.6501  2.0087 -0.1712
 6295TIP3   OH240299   3.248   1.540   0.109 -0.0244 -0.0623 -0.1389
 6295TIP3    H140300   3.171   1.597   0.112 -0.0763 -0.0157 -1.5962
 6295TIP3    H240301   3.279   1.536   0.199 -2.3665 -0.9451  0.6749
 6296TIP3   OH240302   2.893   2.389  16.011  0.1968 -0.2520  0.3219
 6296TIP3    H140303   2.971   2.443  16.022 -0.7282  1.2960 -0.3230
 6296TIP3    H240304   2.829   2.450  15.973 -0.8589 -1.8509 -0.4874
 6297TIP3   OH240305   0.619   3.392  15.512 -0.3987 -0.1001 -0.1699
 6297TIP3    H140306   0.659   3.307  15.531 -0.7551 -0.2677 -0.1662
 6297TIP3    H240307   0.576   3.380  15.428 -2.4068 -0.6198  0.8817
 6298TIP3   OH240308   0.445   2.385  13.123  0.9403  0.1113 -0.0185
 6298TIP3    H140309   0.530   2.343  13.107  0.6981 -0.2191 -0.4460
 6298TIP3    H240310   0.464   2.453  13.188  0.9233 -1.9942  2.2225
 6299TIP3   OH240311   4.483   4.292   5.691  0.1343  0.2754 -0.2412
 6299TIP3    H140312   4.518   4.344   5.763  2.7363 -0.7749 -0.7246
 6299TIP3    H240313   4.458   4.357   5.625  1.1884  1.0363  0.1034
 6300TIP3   OH240314   1.306   3.086   3.813  0.6867 -0.2307 -0.3485
 6300TIP3    H140315   1.318   3.175   3.779  0.4675  0.6711  1.8489
 6300TIP3    H240316   1.232   3.093   3.874  1.8578 -1.5043  1.2728
 6301TIP3   OH240317   3.903   1.760   1.036  0.0257 -0.1901 -0.1611
 6301TIP3    H140318   3.970   1.714   1.085  0.6086 -1.0025 -1.6948
 6301TIP3    H240319   3.890   1.842   1.084  2.3484  0.1241 -0.0241
 6302TIP3   OH240320   4.133   2.966  12.350 -0.9479 -0.2268  0.5087
 6302TIP3    H140321   4.163   3.056  12.363 -3.2446  0.9453 -1.8058
 6302TIP3    H240322   4.192   2.913  12.403  1.3589  2.5020  0.7828
 6303TIP3   OH240323   1.577   4.438   1.475  0.2556 -0.2487  0.0678
 6303TIP3    H140324   1.625   4.497   1.416 -0.3876 -0.4535 -0.6687
 6303TIP3    H240325   1.504   4.490   1.508  0.1437 -0.3885  0.0408
 6304TIP3   OH240326   2.312   2.388   5.643 -0.0966  0.4127  0.1371
 6304TIP3    H140327   2.330   2.482   5.652 -2.7328  0.9685 -0.1255
 6304TIP3    H240328   2.305   2.374   5.549  0.6540 -0.1435  0.1569
 6305TIP3   OH240329   6.401   3.850  14.570 -0.2741  0.8722 -0.2689
 6305TIP3    H140330   6.475   3.902  14.540 -0.8953  0.9596 -1.7134
 6305TIP3    H240331   6.441   3.773  14.611  0.6200  1.5488  0.1402
 6306TIP3   OH240332   5.207   0.350  13.219 -0.0527  0.8162  0.0146
 6306TIP3    H140333   5.251   0.344  13.135  1.6692 -0.0714  0.9585
 6306TIP3    H240334   5.213   0.443  13.242 -0.7347  1.1022 -0.9372
 6307TIP3   OH240335   5.090   2.796  11.153 -0.0075 -0.4613 -0.6563
 6307TIP3    H140336   5.073   2.831  11.066  0.6885 -1.5247 -1.2351
 6307TIP3    H240337   5.172   2.747  11.144  0.6732  0.3648  0.8639
 6308TIP3   OH240338   6.328   2.471   5.474  0.0400  0.3203 -0.2888
 6308TIP3    H140339   6.335   2.533   5.547  1.4577  0.6221 -0.6679
 6308TIP3    H240340   6.379   2.511   5.403 -0.2829 -0.5696 -1.0322
 6309TIP3   OH240341   5.210   4.768  16.794 -0.2076  0.5292 -0.8036
 6309TIP3    H140342   5.260   4.777  16.713 -1.0666 -1.8633 -1.6426
 6309TIP3    H240343   5.274   4.781  16.864  0.9452  0.5713 -1.8558
 6310TIP3   OH240344   6.728   2.558   5.350 -0.0586 -0.4778 -0.4387
 6310TIP3    H140345   6.670   2.580   5.277  0.7808 -0.1943 -1.0289
 6310TIP3    H240346   6.720   2.631   5.410  0.4542  0.0414 -0.9965
 6311TIP3   OH240347   2.702   4.114  15.326 -0.1173  0.5534  0.0131
 6311TIP3    H140348   2.797   4.105  15.326  0.1656  2.9417 -2.6455
 6311TIP3    H240349   2.683   4.171  15.400  0.6841  1.5531 -0.5556
 6312TIP3   OH240350   2.187   1.055  12.327  0.0271 -0.2349  0.2482
 6312TIP3    H140351   2.222   0.990  12.389 -0.7993 -2.0652 -1.1651
 6312TIP3    H240352   2.105   1.083  12.366 -0.0670 -0.7318  0.4163
 6313TIP3   OH240353   0.632   6.275   6.673  0.4426  0.5312 -0.3887
 6313TIP3    H140354   0.547   6.275   6.628  1.1316 -0.7429 -1.7301
 6313TIP3    H240355   0.677   6.352   6.638  0.2104  0.6601 -0.4070
 6314TIP3   OH240356   5.388   5.703  15.211  0.2422 -0.3135  0.0892
 6314TIP3    H140357   5.453   5.691  15.142 -0.4064  3.1771 -1.1879
 6314TIP3    H240358   5.353   5.615  15.226  1.5604 -1.3886 -2.8543
 6315TIP3   OH240359   4.886   6.545   3.319 -0.5376 -0.4929  0.7303
 6315TIP3    H140360   4.906   6.479   3.252 -2.2553 -0.8309  0.5254
 6315TIP3    H240361   4.891   6.497   3.402  2.2777  0.0856  0.9339
 6316TIP3   OH240362   0.548   1.718  13.416  0.1308 -0.1354 -0.2159
 6316TIP3    H140363   0.541   1.750  13.506  1.0357 -1.6103  0.3899
 6316TIP3    H240364   0.533   1.795  13.362  1.1515  1.0952  1.2169
 6317TIP3   OH240365   6.167   5.496   4.639 -0.1530  0.1194 -0.3313
 6317TIP3    H140366   6.192   5.532   4.724 -0.0128  0.4134 -0.4952
 6317TIP3    H240367   6.189   5.565   4.576  1.9240 -1.0057 -0.8693
 6318TIP3   OH240368   3.544   4.663   5.995 -0.0541 -0.1749 -0.3093
 6318TIP3    H140369   3.542   4.754   6.026  3.4429  0.6868 -2.3648
 6318TIP3    H240370   3.599   4.617   6.059  0.4585 -0.2328 -0.7942
 6319TIP3   OH240371   4.251   1.886   1.198 -0.1595  0.1609  0.2160
 6319TIP3    H140372   4.286   1.923   1.279  0.1507 -1.6014  0.9148
 6319TIP3    H240373   4.251   1.959   1.136  1.7497  0.9783  1.1355
 6320TIP3   OH240374   5.355   3.522   5.806  0.5033  0.5376 -0.1724
 6320TIP3    H140375   5.350   3.556   5.896  1.9032 -1.2648  0.6085
 6320TIP3    H240376   5.422   3.576   5.764  0.0822  1.1643 -0.0567
 6321TIP3   OH240377   1.199   4.821  11.497  0.0939  0.1089  0.2162
 6321TIP3    H140378   1.234   4.910  11.493  2.4150 -0.6803  2.2467
 6321TIP3    H240379   1.228   4.780  11.415  0.2731  0.7616 -0.0507
 6322TIP3   OH240380   5.622   5.498   5.176  0.2808 -0.3675  1.4083
 6322TIP3    H140381   5.704   5.501   5.125 -1.1725 -1.3416 -1.0535
 6322TIP3    H240382   5.594   5.590   5.181  1.8712  0.0637  2.9029
 6323TIP3   OH240383   6.140   6.581  15.275  0.4878  0.9702 -0.3521
 6323TIP3    H140384   6.119   6.578  15.368  1.0653  1.5214 -0.1962
 6323TIP3    H240385   6.235   6.594  15.273  0.4220  1.3443 -1.0167
 6324TIP3   OH240386   5.853   1.280   0.457  0.4911 -0.0160  0.3039
 6324TIP3    H140387   5.810   1.196   0.444 -0.0473  0.0265  1.6905
 6324TIP3    H240388   5.817   1.313   0.540 -1.1256  2.6757 -1.4100
 6325TIP3   OH240389   6.502   4.221   1.405 -0.0543  0.0229  0.3359
 6325TIP3    H140390   6.578   4.183   1.360 -1.1435 -1.4659 -0.2983
 6325TIP3    H240391   6.537   4.297   1.452  1.8086 -0.6167  0.0172
 6326TIP3   OH240392   2.260   1.210  15.429  0.1508  0.2728  0.0125
 6326TIP3    H140393   2.234   1.282  15.371  0.2837 -0.2474 -0.6945
 6326TIP3    H240394   2.330   1.248  15.483  0.8784  0.4031 -1.0043
 6327TIP3   OH240395   3.968   4.189   1.063 -0.5954 -0.0214  0.0009
 6327TIP3    H140396   3.874   4.208   1.058 -0.4908  0.6071  0.3392
 6327TIP3    H240397   3.990   4.153   0.977 -1.6671 -2.6203  0.7699
 6328TIP3   OH240398   6.278   5.002  14.763  0.0042 -0.1880 -0.5398
 6328TIP3    H140399   6.272   5.097  14.753  0.0765 -0.2080 -0.7910
 6328TIP3    H240400   6.269   4.968  14.673 -0.8902 -0.4642 -0.3461
 6329TIP3   OH240401   3.283   2.216  13.907  0.1460 -0.1084  0.0090
 6329TIP3    H140402   3.352   2.280  13.925  0.8963 -0.5862 -1.1390
 6329TIP3    H240403   3.308   2.139  13.959 -1.3233  0.8453  2.2470
 6330TIP3   OH240404   2.348   1.577  16.119 -0.1250 -0.2345 -0.2933
 6330TIP3    H140405   2.283   1.523  16.164 -0.5189 -0.2933 -0.9247
 6330TIP3    H240406   2.423   1.518  16.105  0.1198 -0.1259  0.5628
 6331TIP3   OH240407   1.415   0.982  16.649  0.3592  0.2620 -0.3292
 6331TIP3    H140408   1.434   0.894  16.683  1.7270 -0.1822 -2.1821
 6331TIP3    H240409   1.494   1.032  16.668  0.2481  0.6178 -0.8098
 6332TIP3   OH240410   6.644   3.983  12.921 -0.8308  0.2689 -0.4217
 6332TIP3    H140411   6.715   3.944  12.870  1.9715  2.3452  1.7242
 6332TIP3    H240412   6.638   3.927  12.999  0.6818  1.8532  0.8928
 6333TIP3   OH240413   4.997   5.879   0.035  0.4765  0.1010  0.3773
 6333TIP3    H140414   5.078   5.842   0.001  0.0649  0.8236 -1.4724
 6333TIP3    H240415   4.935   5.871  -0.038 -0.2912  2.1728  0.7749
 6334TIP3   OH240416   5.167   0.020  16.382 -0.2119 -0.2367  0.0504
 6334TIP3    H140417   5.107   0.055  16.448  0.0802 -0.2961  0.3454
 6334TIP3    H240418   5.254   0.046  16.412 -0.2365  1.8707 -1.6039
 6335TIP3   OH240419   6.464   4.615  13.675 -0.5871 -0.6161  0.1889
 6335TIP3    H140420   6.388   4.601  13.618 -0.6744  1.6934 -0.2905
 6335TIP3    H240421   6.463   4.708  13.694  3.3525 -0.0986 -1.6269
 6336TIP3   OH240422   5.861   2.008   3.716 -0.0777  0.3087 -0.7424
 6336TIP3    H140423   5.873   1.967   3.801 -1.8580  1.0836 -0.0809
 6336TIP3    H240424   5.795   1.954   3.672 -0.1571  0.6855 -1.0899
 6337TIP3   OH240425   2.716   3.124   5.015 -0.3740 -0.5260 -0.1914
 6337TIP3    H140426   2.640   3.175   5.041  0.4789  1.1987 -1.0404
 6337TIP3    H240427   2.779   3.188   4.982  1.6860 -1.8632  1.0264
 6338TIP3   OH240428   0.818   5.780  11.249  0.1321  0.1242  0.3125
 6338TIP3    H140429   0.842   5.768  11.157  0.0937  0.9502  0.1869
 6338TIP3    H240430   0.816   5.692  11.285  1.9815 -0.0640 -0.0245
 6339TIP3   OH240431   1.014   6.084  13.835 -0.9039 -0.8856 -0.9051
 6339TIP3    H140432   1.090   6.112  13.886 -0.1686 -2.2186 -1.2267
 6339TIP3    H240433   0.955   6.044  13.900 -0.7667 -0.9788 -0.8378
 6340TIP3   OH240434   2.400   2.788  16.478 -0.3985 -0.1328 -0.1600
 6340TIP3    H140435   2.418   2.838  16.398 -1.5274  0.2366 -0.1946
 6340TIP3    H240436   2.312   2.753  16.466 -0.3601 -0.5441  0.6834
 6341TIP3   OH240437   4.624   6.549  16.676  0.4533 -0.0229 -0.9253
 6341TIP3    H140438   4.681   6.471  16.674  1.7454  0.8023  1.5922
 6341TIP3    H240439   4.659   6.606  16.607  0.9111 -0.7152 -1.2718
 6342TIP3   OH240440   1.289   1.220   2.997 -0.1853 -0.4769  0.6216
 6342TIP3    H140441   1.361   1.280   2.977  0.5593 -0.9947  1.7045
 6342TIP3    H240442   1.332   1.137   3.018 -1.0254 -0.5404  2.1822
 6343TIP3   OH240443   5.353   3.716   1.495  0.0547  0.7632  0.3417
 6343TIP3    H140444   5.303   3.635   1.495  0.3426  0.5862  1.2933
 6343TIP3    H240445   5.340   3.753   1.582  2.7561 -0.0204  1.1094
 6344TIP3   OH240446   3.946   6.557   4.005 -0.2742  0.2193 -0.0231
 6344TIP3    H140447   3.924   6.592   4.091  0.2673 -0.3154  0.3425
 6344TIP3    H240448   3.973   6.633   3.954  0.5180  0.3998  0.6474
 6345TIP3   OH240449   5.245   0.575   4.626 -0.1785  0.1677  0.0383
 6345TIP3    H140450   5.329   0.580   4.580 -0.4653  2.6194 -0.2783
 6345TIP3    H240451   5.257   0.630   4.703 -1.3701  0.1814  0.2178
 6346TIP3   OH240452   6.376   3.692  12.063 -0.5751  0.5637 -0.4925
 6346TIP3    H140453   6.307   3.629  12.085  1.3124 -0.9171  1.4744
 6346TIP3    H240454   6.416   3.657  11.984 -0.2238 -0.1662 -0.0020
 6347TIP3   OH240455   3.065   0.444  16.032 -1.1665 -0.0097  0.4192
 6347TIP3    H140456   3.005   0.515  16.010 -1.1591 -0.2632 -0.4226
 6347TIP3    H240457   3.060   0.384  15.957 -0.5969 -0.5140  0.7813
 6348TIP3   OH240458   6.066   2.453  12.393  0.1132 -0.3328 -0.5833
 6348TIP3    H140459   6.114   2.393  12.336  1.5319  0.7195 -0.5041
 6348TIP3    H240460   6.093   2.540  12.364 -0.5296  0.2351  0.5267
 6349TIP3   OH240461   3.832   4.726  10.905 -1.0609 -0.4201 -0.5030
 6349TIP3    H140462   3.815   4.820  10.903  0.9143 -0.0238 -0.0630
 6349TIP3    H240463   3.785   4.695  10.983  0.0820  0.6171  0.6305
 6350TIP3   OH240464   5.104   1.008   1.926  0.1358 -0.0879 -0.3948
 6350TIP3    H140465   5.142   0.927   1.892  0.1592 -0.0232 -0.5197
 6350TIP3    H240466   5.179   1.066   1.941 -0.0771  0.8430 -2.7088
 6351TIP3   OH240467   6.081   4.019  13.393 -0.0814 -0.7669  0.4104
 6351TIP3    H140468   6.016   3.994  13.328 -0.0853 -0.7764  0.4175
 6351TIP3    H240469   6.032   4.072  13.456  0.4708  1.5362 -1.0317
 6352TIP3   OH240470   4.183   0.378  13.480 -0.7275  0.2698 -0.4455
 6352TIP3    H140471   4.173   0.366  13.385  1.3449 -0.4223 -0.6114
 6352TIP3    H240472   4.265   0.426  13.489 -2.3405  2.8987  0.8898
 6353TIP3   OH240473   5.609   6.494  12.793 -0.3136 -0.1284 -0.5934
 6353TIP3    H140474   5.544   6.564  12.787 -1.0916 -0.4348  3.1646
 6353TIP3    H240475   5.665   6.519  12.866  0.1056 -2.8380  0.0710
 6354TIP3   OH240476   2.511   3.031  13.500 -0.0825 -0.0645  0.3463
 6354TIP3    H140477   2.473   3.119  13.510  0.7669  0.3266  0.1588
 6354TIP3    H240478   2.601   3.040  13.531  0.1855 -0.7339 -0.2237
 6355TIP3   OH240479   4.437   4.480   6.208 -0.0244 -0.1243 -0.3820
 6355TIP3    H140480   4.353   4.518   6.234 -0.4401 -1.1772 -0.1707
 6355TIP3    H240481   4.436   4.392   6.245  0.7058 -0.5324 -1.3142
 6356TIP3   OH240482   5.713   2.073  11.518  0.3418 -0.2491  0.4322
 6356TIP3    H140483   5.745   2.149  11.470  2.4190 -0.8636  0.8137
 6356TIP3    H240484   5.718   2.000  11.456  1.4507 -0.7138  1.0517
 6357TIP3   OH240485   6.227   5.837  13.701 -0.1477  0.1007 -0.0300
 6357TIP3    H140486   6.159   5.845  13.634 -1.8117  0.6604  1.6692
 6357TIP3    H240487   6.288   5.772  13.666 -0.8956  0.4986 -2.1386
 6358TIP3   OH240488   3.203   2.518   5.171 -0.0604  0.5432 -0.0685
 6358TIP3    H140489   3.279   2.557   5.127  0.7433 -0.1891  0.6415
 6358TIP3    H240490   3.241   2.459   5.236 -1.2245 -2.7424 -2.2615
 6359TIP3   OH240491   3.434   2.810   0.825  0.0702 -0.2376  0.1244
 6359TIP3    H140492   3.518   2.765   0.822  1.0300  1.5587 -0.5765
 6359TIP3    H240493   3.406   2.805   0.916  0.9663 -0.7730  0.3657
 6360TIP3   OH240494   2.977   2.753   0.369  0.2600 -0.1660 -0.6714
 6360TIP3    H140495   2.984   2.657   0.367 -1.2326 -0.2722 -1.2703
 6360TIP3    H240496   3.049   2.781   0.425  0.7317 -1.6417 -0.5234
 6361TIP3   OH240497   5.977   2.685   2.227 -0.0575 -0.1069 -0.1715
 6361TIP3    H140498   6.035   2.647   2.160  0.4329 -1.6100  1.0859
 6361TIP3    H240499   6.030   2.753   2.269 -0.6892  1.5144 -1.9352
 6362TIP3   OH240500   4.338   1.099   1.642 -0.1421 -0.2127  0.3532
 6362TIP3    H140501   4.319   1.190   1.620  1.3937 -0.2235 -1.0460
 6362TIP3    H240502   4.324   1.051   1.561 -0.8386 -1.2289  1.0555
 6363TIP3   OH240503   3.329   6.215   5.600  0.4497  0.0632 -0.5389
 6363TIP3    H140504   3.250   6.268   5.607  0.0155 -0.6626  0.1683
 6363TIP3    H240505   3.342   6.203   5.506  0.7843  1.7468 -0.7191
 6364TIP3   OH240506   4.314   2.786  12.043  0.0081  0.6273  0.5891
 6364TIP3    H140507   4.276   2.872  12.065  1.6618  1.2044  1.2846
 6364TIP3    H240508   4.401   2.807  12.007  0.8709 -0.8120  1.7883
 6365TIP3   OH240509   6.182   4.525  10.437 -0.1619  0.1151 -0.8092
 6365TIP3    H140510   6.183   4.557  10.347 -0.2460  1.7594 -0.2374
 6365TIP3    H240511   6.274   4.523  10.463  0.0280 -2.2550 -1.5694
 6366TIP3   OH240512   2.125   4.838   4.919  0.3290  0.3026 -0.2409
 6366TIP3    H140513   2.067   4.794   4.981 -0.0093  0.2215 -0.6121
 6366TIP3    H240514   2.205   4.855   4.969  0.7877 -1.5001 -0.3376
 6367TIP3   OH240515   0.912   5.950   1.945  0.2158  0.3717  0.6425
 6367TIP3    H140516   0.983   5.931   2.006 -0.3183 -0.5060  0.9971
 6367TIP3    H240517   0.840   5.893   1.972 -0.0565  0.0219 -0.7520
 6368TIP3   OH240518   3.423   0.707   5.196 -0.4207  0.3624  1.0361
 6368TIP3    H140519   3.439   0.693   5.102  0.7442  0.4476  1.2055
 6368TIP3    H240520   3.334   0.676   5.211 -0.8513  0.9663 -0.2360
 6369TIP3   OH240521   0.211   2.420  17.060  0.4035  0.3596  0.1840
 6369TIP3    H140522   0.126   2.408  17.102  0.6803  0.0202  0.6604
 6369TIP3    H240523   0.275   2.406  17.131  0.8688  0.1376 -0.2718
 6370TIP3   OH240524   6.066   2.199   5.172 -0.1454  0.0843 -0.2711
 6370TIP3    H140525   6.088   2.149   5.094  0.7347 -0.4259  0.2870
 6370TIP3    H240526   6.052   2.288   5.140 -0.1883 -0.2017 -1.0645
 6371TIP3   OH240527   6.341   3.692   5.145 -0.3384  0.0404  0.2090
 6371TIP3    H140528   6.330   3.700   5.050 -1.0088 -2.5381  0.0363
 6371TIP3    H240529   6.433   3.670   5.157 -0.5357 -0.8796  0.0590
 6372TIP3   OH240530   4.711   6.734  10.724 -0.1020 -0.4325  0.2626
 6372TIP3    H140531   4.620   6.702  10.720 -0.1370 -0.1741 -1.4631
 6372TIP3    H240532   4.721   6.767  10.813 -1.3407 -1.5250  0.8348
 6373TIP3   OH240533   6.676   0.096   4.538  0.4384  0.4620  0.0641
 6373TIP3    H140534   6.589   0.118   4.505  0.3109 -0.9787 -0.6007
 6373TIP3    H240535   6.718   0.048   4.466  0.6100 -1.6529  1.5362
 6374TIP3   OH240536   5.984   6.126   1.978 -0.6316  0.6485  0.2434
 6374TIP3    H140537   6.039   6.192   1.936  1.3403 -0.1621  1.4503
 6374TIP3    H240538   5.995   6.048   1.923 -1.3946  0.7767 -0.0887
 6375TIP3   OH240539   1.768   4.672  12.061  0.4428  0.2370 -0.2993
 6375TIP3    H140540   1.791   4.757  12.099  0.0624  0.7866 -1.2677
 6375TIP3    H240541   1.690   4.645  12.110  1.9178 -0.6594  1.5824
 6376TIP3   OH240542   3.726   4.158   2.881 -0.0542  0.0014  0.0147
 6376TIP3    H140543   3.744   4.183   2.790  0.5976  0.4487  0.2630
 6376TIP3    H240544   3.795   4.200   2.931  0.0454 -0.8973  0.6359
 6377TIP3   OH240545   0.466   0.926  14.237  0.7600 -0.5365  0.1763
 6377TIP3    H140546   0.460   0.938  14.332  1.3478  0.9723  0.0443
 6377TIP3    H240547   0.406   0.854  14.218  0.2453 -0.5142  1.6339
 6378TIP3   OH240548   4.183   1.778   0.199 -0.5527  0.4704  0.1372
 6378TIP3    H140549   4.087   1.774   0.200 -0.5154 -0.2146  1.1284
 6378TIP3    H240550   4.209   1.769   0.290  0.4478  1.0325 -0.0886
 6379TIP3   OH240551   1.607   2.852   2.419  0.4615 -0.3097  0.1265
 6379TIP3    H140552   1.581   2.763   2.393  1.9500 -0.7940  0.2043
 6379TIP3    H240553   1.525   2.900   2.428 -0.2556 -1.1089 -1.9653
 6380TIP3   OH240554   4.651   3.869  14.630  0.1631  0.8929 -0.1720
 6380TIP3    H140555   4.603   3.848  14.551  0.0282  0.9857 -0.1137
 6380TIP3    H240556   4.739   3.893  14.600  0.9936 -1.8367 -0.1130
 6381TIP3   OH240557   4.460   4.789   5.980  0.0234  0.3588 -0.4340
 6381TIP3    H140558   4.553   4.770   5.963  0.0962  1.2012 -1.0015
 6381TIP3    H240559   4.460   4.839   6.061  0.0358  0.0844 -0.2639
 6382TIP3   OH240560   3.925   1.801   0.283  0.2081 -0.1173 -0.4335
 6382TIP3    H140561   3.853   1.864   0.281  1.3279  1.2073 -0.0119
 6382TIP3    H240562   3.886   1.721   0.316 -0.6218  1.2127  1.9106
 6383TIP3   OH240563   4.595   5.973   1.402  0.9994 -0.5117  0.0535
 6383TIP3    H140564   4.561   5.990   1.314  2.0836  0.0422 -0.2576
 6383TIP3    H240565   4.532   5.911   1.440 -0.4474  0.6258 -0.4546
 6384TIP3   OH240566   4.065   6.655  11.535  0.0981 -0.1544  0.2584
 6384TIP3    H140567   4.117   6.729  11.567 -0.3554 -0.1406  0.9905
 6384TIP3    H240568   3.992   6.649  11.597 -1.4816  0.6296 -1.4645
 6385TIP3   OH240569   6.085   0.510   0.551  0.0850 -0.3949  0.0704
 6385TIP3    H140570   6.110   0.492   0.642  1.8273 -1.9875 -0.7040
 6385TIP3    H240571   6.041   0.595   0.555 -0.8332 -0.9448  2.5674
 6386TIP3   OH240572   1.270   1.705  12.051 -0.5256 -0.3967  0.5617
 6386TIP3    H140573   1.310   1.648  12.116 -0.9209  0.0827  1.2342
 6386TIP3    H240574   1.185   1.665  12.033 -0.8913  0.0855  1.1905
 6387TIP3   OH240575   1.747   4.048   2.936 -0.0632  0.0225 -0.2967
 6387TIP3    H140576   1.830   4.068   2.892  0.6810 -1.0661  0.5694
 6387TIP3    H240577   1.740   4.114   3.005 -1.6689  2.2837 -2.5452
 6388TIP3   OH240578   0.321   1.052  12.459  0.0122  0.3646  0.1357
 6388TIP3    H140579   0.271   0.973  12.481  0.6122  0.3754  1.5585
 6388TIP3    H240580   0.412   1.029  12.478  0.0282  1.9049  2.0694
 6389TIP3   OH240581   5.847   1.452  12.967  0.1587 -0.9732 -0.3782
 6389TIP3    H140582   5.786   1.518  12.935 -0.0024 -0.9442 -0.0106
 6389TIP3    H240583   5.792   1.380  12.997  0.3550 -1.5118 -1.2962
 6390TIP3   OH240584   3.001   5.772  14.216 -0.3014 -0.4240  0.2757
 6390TIP3    H140585   3.065   5.710  14.251  0.8327 -0.2855 -1.5006
 6390TIP3    H240586   3.050   5.826  14.155 -1.5518  1.4391  0.8592
 6391TIP3   OH240587   1.245   0.004   5.494  0.3431 -0.0946  0.8715
 6391TIP3    H140588   1.216  -0.047   5.569 -0.1955 -0.2093  0.5885
 6391TIP3    H240589   1.299   0.074   5.531  0.6388 -0.5496  1.3048
 6392TIP3   OH240590   1.798   4.214   4.880  0.2548 -0.0962 -0.1510
 6392TIP3    H140591   1.716   4.259   4.857  1.3962  0.8958 -2.4887
 6392TIP3    H240592   1.775   4.159   4.955 -2.5199  0.2528 -0.6783
 6393TIP3   OH240593   0.498   3.477  13.822  0.4928 -0.0239 -0.1910
 6393TIP3    H140594   0.585   3.480  13.783  0.6859  1.1937  0.3044
 6393TIP3    H240595   0.508   3.522  13.905 -1.3164  3.0201 -1.5488
 6394TIP3   OH240596   0.951   4.548  15.074  0.7889  0.9581  0.1229
 6394TIP3    H140597   1.025   4.562  15.014  2.0146  0.8471  1.5921
 6394TIP3    H240598   0.965   4.609  15.145 -1.4122  2.0422 -0.3404
 6395TIP3   OH240599   4.693   5.966   2.091  0.2790  0.1933  0.1512
 6395TIP3    H140600   4.787   5.956   2.084  0.3356  1.8262 -1.9383
 6395TIP3    H240601   4.676   5.968   2.185  2.4628  1.0682  0.5577
 6396TIP3   OH240602   5.581   2.721   1.740 -0.0443  0.0357  0.4951
 6396TIP3    H140603   5.551   2.645   1.691  0.9656 -0.0696  0.0315
 6396TIP3    H240604   5.672   2.734   1.712 -0.1520  1.3117  0.6733
 6397TIP3   OH240605   2.740   3.602   2.535  0.2153  0.2011 -0.0797
 6397TIP3    H140606   2.660   3.625   2.583  1.1809 -0.9150  2.1547
 6397TIP3    H240607   2.715   3.608   2.443 -2.0056  1.3807  0.5501
 6398TIP3   OH240608   2.716   1.233   1.416  0.0372 -0.7907 -0.2151
 6398TIP3    H140609   2.714   1.137   1.414 -0.0781 -0.7779 -0.7989
 6398TIP3    H240610   2.629   1.259   1.385  0.9351 -0.4768 -2.5699
 6399TIP3   OH240611   1.066   4.972   2.472 -0.1309  0.5043  0.0579
 6399TIP3    H140612   1.005   4.994   2.403 -1.2582 -1.6334  0.3359
 6399TIP3    H240613   1.145   5.024   2.452 -2.2102  3.8225  0.1009
 6400TIP3   OH240614   5.242   4.661  13.412 -0.6258 -0.5764  0.3335
 6400TIP3    H140615   5.194   4.744  13.409 -0.0465 -0.2760 -0.8435
 6400TIP3    H240616   5.238   4.628  13.322  0.0765 -1.2998  0.5628
 6401TIP3   OH240617   6.255   1.553  13.541  0.0764 -0.7103  0.0135
 6401TIP3    H140618   6.247   1.466  13.580  0.1948 -0.2514  1.0835
 6401TIP3    H240619   6.317   1.599  13.598 -1.2477  0.6066  0.4060
 6402TIP3   OH240620   4.727   3.603  13.826 -0.0908 -0.1617  0.4394
 6402TIP3    H140621   4.801   3.556  13.863  0.0069  1.5998  2.6033
 6402TIP3    H240622   4.751   3.618  13.735  0.6277 -2.7124  0.1920
 6403TIP3   OH240623   3.962   5.759   5.946 -0.1753 -0.2012  0.6766
 6403TIP3    H140624   3.884   5.751   5.891  1.1377  0.8138 -1.3602
 6403TIP3    H240625   4.005   5.838   5.915  2.4698 -1.5623  0.7772
 6404TIP3   OH240626   5.438   4.999  13.186 -0.2567  0.0781  0.1096
 6404TIP3    H140627   5.513   4.981  13.130  0.2456  0.8626  0.5200
 6404TIP3    H240628   5.433   5.094  13.191 -0.7407  0.0245  0.8079
 6405TIP3   OH240629   5.293   3.098  14.465  0.4453 -0.1131  0.0400
 6405TIP3    H140630   5.210   3.133  14.496  0.3338  1.3182 -1.8144
 6405TIP3    H240631   5.343   3.080  14.545 -2.8407 -4.1720  1.3908
 6406TIP3   OH240632   3.230   3.398  11.911  0.8251  0.1032  0.1399
 6406TIP3    H140633   3.297   3.336  11.884  1.8754  0.1067  2.6251
 6406TIP3    H240634   3.201   3.367  11.997  1.5689  3.1264  1.5602
 6407TIP3   OH240635   2.286   6.441  14.669  0.0241  0.1167 -0.1463
 6407TIP3    H140636   2.359   6.379  14.661 -0.4579 -0.3851 -0.6932
 6407TIP3    H240637   2.210   6.386  14.688 -0.5722  0.4502 -1.5072
 6408TIP3   OH240638   5.158   2.592   1.767  0.4309 -0.5379 -0.5074
 6408TIP3    H140639   5.093   2.636   1.821  0.8701 -0.8986  0.3249
 6408TIP3    H240640   5.188   2.660   1.706  1.2006  0.3731  0.8528
 6409TIP3   OH240641   4.198   3.307   6.365  0.4684 -0.0316  0.0461
 6409TIP3    H140642   4.238   3.392   6.381 -0.7717  0.8258 -1.3077
 6409TIP3    H240643   4.167   3.311   6.274  1.1187 -2.2197 -0.3198
 6410TIP3   OH240644   3.265   5.899  13.013  0.1197 -0.4556 -1.0892
 6410TIP3    H140645   3.184   5.872  12.969  0.0853 -0.5260 -0.9809
 6410TIP3    H240646   3.297   5.819  13.055 -0.5363 -0.0896  0.1125
 6411TIP3   OH240647   4.299   3.554   4.143 -0.2964 -0.6575 -0.0589
 6411TIP3    H140648   4.222   3.586   4.097 -1.0163  0.7757  2.0558
 6411TIP3    H240649   4.330   3.480   4.091 -3.4413 -1.6198 -0.6378
 6412TIP3   OH240650   2.813   5.341   4.283 -0.9748  0.0206 -0.0107
 6412TIP3    H140651   2.773   5.306   4.203  2.4453 -1.5338 -1.1316
 6412TIP3    H240652   2.880   5.402   4.252  1.9995 -2.3296  1.4751
 6413TIP3   OH240653   4.540   2.516   0.802  0.1629 -0.6434  0.6654
 6413TIP3    H140654   4.498   2.434   0.775  1.0981 -0.8309 -0.2446
 6413TIP3    H240655   4.501   2.582   0.746  1.5445 -0.9169 -0.6379
 6414TIP3   OH240656   2.522   5.666   2.395  0.5742  0.3857  0.1250
 6414TIP3    H140657   2.554   5.709   2.474 -2.0788  0.6226  1.1225
 6414TIP3    H240658   2.474   5.735   2.349 -0.9042 -0.6640  0.0921
 6415TIP3   OH240659   4.704   4.621   4.193 -0.2901 -0.4779  0.1231
 6415TIP3    H140660   4.696   4.563   4.268 -1.3076 -0.3721  0.1060
 6415TIP3    H240661   4.741   4.566   4.123  0.3036 -0.6676  0.5822
 6416TIP3   OH240662   1.837   2.888   3.714 -0.5393 -0.0040 -0.1724
 6416TIP3    H140663   1.864   2.930   3.796  3.0758 -2.3419 -0.0175
 6416TIP3    H240664   1.874   2.944   3.645  1.5164 -1.1417 -0.0315
 6417TIP3   OH240665   1.270   6.486  12.030  0.2082  0.1839  0.2599
 6417TIP3    H140666   1.313   6.502  11.946  0.0411  0.2940  0.1965
 6417TIP3    H240667   1.254   6.573  12.066  0.2380  0.1380  0.3846
 6418TIP3   OH240668   2.644   0.232   6.017 -0.0680 -0.3007  0.4676
 6418TIP3    H140669   2.691   0.312   5.996  2.7497 -1.8544  0.5771
 6418TIP3    H240670   2.660   0.218   6.110  3.1309 -3.1489 -0.3659
 6419TIP3   OH240671   5.031   2.999  16.428 -0.4381  0.4656 -0.2661
 6419TIP3    H140672   5.086   2.954  16.364  1.3024 -0.0679  1.5744
 6419TIP3    H240673   4.971   2.932  16.460 -0.7008  0.5109 -0.6623
 6420TIP3   OH240674   1.091   3.308   3.579  0.2051  0.3622  0.0249
 6420TIP3    H140675   1.035   3.231   3.570 -0.2073  0.3460  2.3104
 6420TIP3    H240676   1.046   3.377   3.532 -0.9168 -0.0739  0.4436
 6421TIP3   OH240677   0.313   0.705  14.476 -0.3261 -0.2539  0.2708
 6421TIP3    H140678   0.281   0.762  14.546  0.0673  1.3254 -0.8276
 6421TIP3    H240679   0.266   0.735  14.398  0.3557 -1.0279 -0.4406
 6422TIP3   OH240680   1.444   3.817  12.311 -0.1399 -0.0458 -0.3084
 6422TIP3    H140681   1.500   3.744  12.284  0.0051  0.6560 -1.9462
 6422TIP3    H240682   1.387   3.834  12.236 -1.0504  0.6921  0.5306
 6423TIP3   OH240683   5.056   3.399   4.345  0.1122  0.1436  0.1260
 6423TIP3    H140684   5.106   3.430   4.421 -0.5442 -0.4625  0.8243
 6423TIP3    H240685   5.112   3.335   4.303  0.0303 -0.3693  0.7781
 6424TIP3   OH240686   0.571   1.581   1.304  0.3297 -0.4490 -0.0887
 6424TIP3    H140687   0.628   1.504   1.305  2.8680  1.3661  0.0291
 6424TIP3    H240688   0.503   1.559   1.241  1.9209 -2.1681 -1.2886
 6425TIP3   OH240689   2.964   3.678   4.300 -0.5489  0.2969  0.4153
 6425TIP3    H140690   2.918   3.758   4.328 -0.2252  0.4044  0.6395
 6425TIP3    H240691   3.045   3.709   4.260 -1.7156  0.2432 -2.1261
 6426TIP3   OH240692   2.822   4.105  16.973 -0.1910  0.4575 -0.0339
 6426TIP3    H140693   2.795   4.023  17.015  0.2074  0.6878  0.6662
 6426TIP3    H240694   2.797   4.093  16.881 -2.1199  0.4192  0.4767
 6427TIP3   OH240695   5.196   4.362   4.249 -0.6321  0.0881  0.1371
 6427TIP3    H140696   5.140   4.342   4.324  0.4685  0.8093  1.1808
 6427TIP3    H240697   5.279   4.318   4.269 -0.1408  0.7764 -0.3658
 6428TIP3   OH240698   5.315   0.446   0.597  0.3541  0.4979 -0.2156
 6428TIP3    H140699   5.261   0.520   0.626 -2.1823 -1.4047  0.0807
 6428TIP3    H240700   5.357   0.413   0.677 -0.3475  0.1855  0.0244
 6429TIP3   OH240701   1.109   2.517   4.720 -0.0034 -0.1187  0.1277
 6429TIP3    H140702   1.167   2.545   4.791 -0.7493 -1.3687  1.2771
 6429TIP3    H240703   1.122   2.581   4.650  2.0681  0.1269  0.7210
 6430TIP3   OH240704   5.841   1.941  15.439  0.0775  0.2228 -0.4359
 6430TIP3    H140705   5.858   2.016  15.496 -2.0450  0.7374 -0.4299
 6430TIP3    H240706   5.831   1.867  15.499 -0.9787  0.5404 -0.2153
 6431TIP3   OH240707   3.818   2.780   4.481  0.0208 -0.6019  0.1629
 6431TIP3    H140708   3.912   2.790   4.493  0.2822 -2.1047 -0.5262
 6431TIP3    H240709   3.799   2.691   4.512 -0.9566 -0.7785 -0.9021
 6432TIP3   OH240710   3.490   5.201   0.494 -0.0187  0.0879 -0.2754
 6432TIP3    H140711   3.570   5.251   0.476 -0.3041  0.3462 -0.8413
 6432TIP3    H240712   3.488   5.193   0.589 -0.8368  2.6116 -0.0430
 6433TIP3   OH240713   6.429   6.593   4.524 -0.2508  0.0637 -0.0241
 6433TIP3    H140714   6.341   6.573   4.492  0.1235  0.9182 -1.6448
 6433TIP3    H240715   6.471   6.508   4.532  0.2048 -0.1165 -3.5387
 6434TIP3   OH240716   5.471   0.344   4.927 -0.6756  0.0537  0.7822
 6434TIP3    H140717   5.409   0.392   4.982 -2.3044 -1.4553  0.3072
 6434TIP3    H240718   5.425   0.334   4.843 -0.1897 -1.9045  0.7341
 6435TIP3   OH240719   4.649   4.862  12.307  0.0446 -0.5810 -0.2638
 6435TIP3    H140720   4.586   4.933  12.316 -0.0535 -0.5578 -1.0432
 6435TIP3    H240721   4.654   4.847  12.212  0.7104 -1.0267 -0.1610
 6436TIP3   OH240722   0.311   4.967  12.224  0.5391  0.2168  0.1780
 6436TIP3    H140723   0.400   4.991  12.248  0.6935 -0.0963 -0.0850
 6436TIP3    H240724   0.302   4.876  12.252  0.9104 -0.3366 -1.4687
 6437TIP3   OH240725   2.277   1.601  13.022 -0.0750 -0.4249  0.8401
 6437TIP3    H140726   2.202   1.542  13.022 -1.4743  1.2543 -0.9180
 6437TIP3    H240727   2.325   1.579  12.942 -0.0449  0.1543  0.7001
 6438TIP3   OH240728   0.527   1.262   2.910  0.0347  0.4166 -0.5044
 6438TIP3    H140729   0.582   1.265   2.832  1.1448 -0.1280  0.2403
 6438TIP3    H240730   0.588   1.278   2.983 -0.5962 -1.2008  0.4177
 6439TIP3   OH240731   6.695   3.472   2.665 -0.4503  0.2490  0.3702
 6439TIP3    H140732   6.720   3.457   2.757  0.0232 -1.9905 -0.0991
 6439TIP3    H240733   6.622   3.412   2.650 -0.8454  0.9632 -0.5920
 6440TIP3   OH240734   0.413   3.948  11.924  0.4454  0.1872  0.1911
 6440TIP3    H140735   0.387   4.020  11.867 -4.0829 -1.7353 -0.4253
 6440TIP3    H240736   0.475   3.897  11.871  1.5904  2.0881 -0.3595
 6441TIP3   OH240737   1.956   4.471  12.059  0.3974  0.6840 -0.5348
 6441TIP3    H140738   1.892   4.400  12.066  0.9745  0.3736  2.0750
 6441TIP3    H240739   1.903   4.550  12.048 -0.4189  0.3207  0.7037
 6442TIP3   OH240740   0.289   2.778   5.592 -0.4545  0.0677  1.0634
 6442TIP3    H140741   0.315   2.769   5.501 -1.0961 -0.9831  0.9741
 6442TIP3    H240742   0.360   2.738   5.642 -1.0194 -1.1351  0.9165
 6443TIP3   OH240743   0.689   5.127  15.449  0.3112  0.1276  0.2353
 6443TIP3    H140744   0.734   5.047  15.421  0.6711  1.2340 -2.5770
 6443TIP3    H240745   0.759   5.191  15.460 -0.1080  0.4563  1.0454
 6444TIP3   OH240746   3.158   0.613   3.497 -0.2224  0.1690 -0.1734
 6444TIP3    H140747   3.141   0.688   3.440 -2.1942  1.0731  1.5640
 6444TIP3    H240748   3.187   0.544   3.437 -0.1307  1.7608 -2.0038
 6445TIP3   OH240749   1.165   2.348   0.341  0.4324 -0.0473 -0.3700
 6445TIP3    H140750   1.168   2.306   0.427 -1.2518  0.9462  0.1988
 6445TIP3    H240751   1.143   2.277   0.280 -0.6236 -0.3370  0.3385
 6446TIP3   OH240752   2.778   6.690  11.594 -0.1740 -0.1533  0.2706
 6446TIP3    H140753   2.815   6.629  11.658 -1.0833  0.8251  1.7561
 6446TIP3    H240754   2.794   6.648  11.509 -0.6178 -2.3684  1.2426
 6447TIP3   OH240755   4.405   3.777  11.710  0.5515  0.1932  0.2114
 6447TIP3    H140756   4.438   3.829  11.637 -0.6911  1.4131  0.4874
 6447TIP3    H240757   4.338   3.720  11.671  0.7411 -0.0177  0.1937
 6448TIP3   OH240758   2.596   1.287   4.444  0.0894  0.6814  0.4959
 6448TIP3    H140759   2.529   1.337   4.398  0.4517 -0.1040 -0.8891
 6448TIP3    H240760   2.672   1.290   4.387 -0.0105 -1.8136  0.1671
 6449TIP3   OH240761   6.208   3.631   4.570  0.3347 -0.3073  0.0014
 6449TIP3    H140762   6.256   3.658   4.649 -1.9761  0.0056  1.3481
 6449TIP3    H240763   6.181   3.714   4.530  0.3302 -0.4999 -0.3942
 6450TIP3   OH240764   3.643   0.007   4.493  0.2328 -0.0147 -0.4795
 6450TIP3    H140765   3.611  -0.004   4.404  1.4573  1.3756 -1.1184
 6450TIP3    H240766   3.620   0.097   4.516  0.1836 -0.2722  0.5028
 6451TIP3   OH240767   0.055   5.652   2.341 -0.0643  0.0750 -0.2175
 6451TIP3    H140768   0.093   5.586   2.400  2.3049  3.1737  1.8580
 6451TIP3    H240769  -0.003   5.704   2.397 -1.1258  0.4215 -1.6094
 6452TIP3   OH240770   5.081   0.739  13.178  0.9841  0.1625 -0.6306
 6452TIP3    H140771   5.089   0.803  13.108 -0.0409 -1.9916 -2.7812
 6452TIP3    H240772   4.992   0.751  13.212  0.8749  0.0175 -0.8702
 6453TIP3   OH240773   1.638   0.359   1.006 -0.7325  0.6867  0.0990
 6453TIP3    H140774   1.571   0.375   1.073  0.6732  0.3830  1.6300
 6453TIP3    H240775   1.652   0.264   1.009 -0.3216  0.7379 -0.2784
 6454TIP3   OH240776   6.613   1.973  11.914  0.9070  0.5913  0.1144
 6454TIP3    H140777   6.536   1.921  11.939  0.8300  0.9261  0.5759
 6454TIP3    H240778   6.619   1.960  11.819  1.0849 -0.5150  0.2670
 6455TIP3   OH240779   5.252   0.087  13.156  0.5282  0.5440  0.0413
 6455TIP3    H140780   5.224   0.166  13.203 -1.8829 -0.5552  0.5053
 6455TIP3    H240781   5.273   0.119  13.068 -2.6445  1.3831 -0.4568
 6456TIP3   OH240782   3.909   1.646   5.595 -0.5508  0.2328  0.0595
 6456TIP3    H140783   3.949   1.567   5.630  0.1847  0.5191 -0.1375
 6456TIP3    H240784   3.827   1.655   5.644 -0.4527 -0.4363  0.3491
 6457TIP3   OH240785   0.080   2.558  15.746  0.4770 -0.3127  0.0026
 6457TIP3    H140786   0.073   2.621  15.675 -3.2901  0.1222  0.6396
 6457TIP3    H240787   0.017   2.489  15.724  2.3394 -2.3593  0.8246
 6458TIP3   OH240788   6.289   4.351   5.494 -0.2034  0.5682  0.2747
 6458TIP3    H140789   6.284   4.351   5.398 -0.4714 -0.7990  0.2745
 6458TIP3    H240790   6.338   4.272   5.515 -1.6177 -0.0414  1.3249
 6459TIP3   OH240791   6.183   0.682  11.710 -0.5864  0.2674 -0.1404
 6459TIP3    H140792   6.094   0.679  11.745 -0.4557  1.2286  0.2678
 6459TIP3    H240793   6.197   0.773  11.687  1.1900  0.5920  2.1181
 6460TIP3   OH240794   2.091   5.327  11.171  0.0363  0.3739 -0.2231
 6460TIP3    H140795   2.160   5.266  11.144  0.1093  0.0374  0.7324
 6460TIP3    H240796   2.133   5.413  11.167 -0.1739  0.4223 -1.9331
 6461TIP3   OH240797   2.416   4.109   1.708  0.1729  0.4461  0.0080
 6461TIP3    H140798   2.451   4.156   1.632  2.8849 -2.9784 -0.9475
 6461TIP3    H240799   2.429   4.169   1.781  1.6342  2.0335 -1.5100
 6462TIP3   OH240800   3.951   0.341   1.407 -0.0585 -0.0031 -0.2836
 6462TIP3    H140801   3.946   0.377   1.318  0.6109 -2.1833 -1.2372
 6462TIP3    H240802   4.024   0.279   1.404 -0.3223 -0.4463  1.6745
 6463TIP3   OH240803   0.571   2.100   3.256  0.5586  0.4432 -0.5983
 6463TIP3    H140804   0.602   2.010   3.267 -0.3072  0.1389 -0.5605
 6463TIP3    H240805   0.647   2.155   3.275  1.0000 -0.2749 -0.2826
 6464TIP3   OH240806   2.438   0.208   0.559 -0.0438 -0.4465  0.4178
 6464TIP3    H140807   2.481   0.138   0.609 -0.2931 -1.0580 -0.2200
 6464TIP3    H240808   2.370   0.164   0.509  0.7070  0.0221 -1.0738
 6465TIP3   OH240809   3.937   5.515   1.908 -0.0815  0.0242  0.6377
 6465TIP3    H140810   4.032   5.523   1.902 -0.0881 -1.3521 -1.7634
 6465TIP3    H240811   3.905   5.605   1.921  1.2709  1.0355 -2.6950
 6466TIP3   OH240812   0.012   1.037  14.490  0.2268  0.5085  0.7192
 6466TIP3    H140813  -0.009   1.130  14.499 -0.0864  0.2670  2.6705
 6466TIP3    H240814  -0.059   0.992  14.536 -0.4189 -0.7900 -1.4462
 6467TIP3   OH240815   4.635   0.785  12.925  0.2174 -0.7315 -0.0483
 6467TIP3    H140816   4.729   0.802  12.917  0.0336  0.2411 -0.2065
 6467TIP3    H240817   4.607   0.839  13.000 -0.9680  2.2087 -2.5022
 6468TIP3   OH240818   0.245   0.815   3.589  0.4855 -0.6502 -0.2477
 6468TIP3    H140819   0.169   0.789   3.537 -0.1573  0.6767 -0.0076
 6468TIP3    H240820   0.262   0.741   3.647  0.7766 -1.8555 -1.8567
 6469TIP3   OH240821   4.055   2.440   2.200  0.1985  0.5969  0.3717
 6469TIP3    H140822   4.118   2.368   2.207 -1.4435 -1.1385 -1.6768
 6469TIP3    H240823   4.027   2.456   2.290  1.6154 -0.3895  1.0082
 6470TIP3   OH240824   0.977   6.572  15.728 -0.5088  0.1923  0.3249
 6470TIP3    H140825   1.024   6.600  15.807 -0.6579 -0.7119  0.7441
 6470TIP3    H240826   0.885   6.592  15.747 -0.5695 -0.2155  0.4716
 6471TIP3   OH240827   3.229   3.027  16.622  0.1476 -0.1835  0.3551
 6471TIP3    H140828   3.168   2.965  16.661 -0.5149 -1.6405 -2.8861
 6471TIP3    H240829   3.305   2.974  16.599 -0.0316  0.3787 -1.5751
 6472TIP3   OH240830   4.370   4.231  11.874  0.0963 -0.6121  0.0719
 6472TIP3    H140831   4.341   4.141  11.886 -0.7121 -0.6936 -2.2490
 6472TIP3    H240832   4.390   4.262  11.962 -2.7914 -1.9937  1.2536
 6473TIP3   OH240833   3.028   0.471   5.181  0.0664  0.5312 -0.8189
 6473TIP3    H140834   3.106   0.524   5.167  0.2268  1.5439  3.2168
 6473TIP3    H240835   2.957   0.521   5.143  0.6722  2.1592  0.1633
 6474TIP3   OH240836   1.269   0.791  11.628 -0.4417  0.4601  0.3005
 6474TIP3    H140837   1.365   0.784  11.626 -0.2654  2.1117  1.7994
 6474TIP3    H240838   1.243   0.789  11.536  0.8863 -1.7032 -0.0521
 6475TIP3   OH240839   2.601   5.223  11.754 -0.1893  0.2384  0.2074
 6475TIP3    H140840   2.691   5.225  11.787 -0.0087 -2.2411 -0.0850
 6475TIP3    H240841   2.555   5.288  11.807  1.4021  0.4203  1.4045
 6476TIP3   OH240842   5.924   5.695  10.201  0.3422  0.5452  0.1065
 6476TIP3    H140843   5.950   5.687  10.293 -1.7709  0.6331  0.7390
 6476TIP3    H240844   5.929   5.606  10.167 -1.0340  0.1468  0.9233
 6477TIP3   OH240845   4.301   3.798  13.784 -0.3133  0.7422 -0.0920
 6477TIP3    H140846   4.320   3.784  13.877  2.1967  0.3989 -0.6381
 6477TIP3    H240847   4.378   3.844  13.750  0.2157 -1.9234 -2.6851
 6478TIP3   OH240848   6.045   5.041  16.219 -0.0358  0.2745 -0.4165
 6478TIP3    H140849   5.958   5.046  16.178 -0.6364 -0.7467  0.7000
 6478TIP3    H240850   6.059   4.947  16.233  0.2684  0.5906  1.4835
 6479TIP3   OH240851   4.920   6.377   2.099  0.1718 -0.8342  0.5014
 6479TIP3    H140852   4.862   6.453   2.104  0.8723 -0.2649  0.0664
 6479TIP3    H240853   4.893   6.321   2.172 -0.6465 -0.3790  0.5460
 6480TIP3   OH240854   6.192   5.076   3.937 -0.5992  0.7609  0.3479
 6480TIP3    H140855   6.130   5.004   3.950 -1.0930  1.3073  1.0338
 6480TIP3    H240856   6.243   5.050   3.861 -0.5942 -0.4475  0.7593
 6481TIP3   OH240857   0.136   1.631   6.432 -0.7431 -0.3460  0.4822
 6481TIP3    H140858   0.203   1.564   6.419 -1.8221 -1.5074  0.7984
 6481TIP3    H240859   0.056   1.582   6.451 -1.4434  1.0490  1.2339
 6482TIP3   OH240860   3.329   6.220   2.942  0.0800  0.0288 -0.4781
 6482TIP3    H140861   3.247   6.198   2.897  0.1177  0.1999 -0.6288
 6482TIP3    H240862   3.303   6.233   3.033 -0.1958  0.9109 -0.6809
 6483TIP3   OH240863   2.455   2.826   2.127  0.1050 -0.1292  0.1252
 6483TIP3    H140864   2.365   2.798   2.145 -0.2673  0.5998 -0.5451
 6483TIP3    H240865   2.472   2.893   2.193 -0.3450  0.7159 -0.6028
 6484TIP3   OH240866   2.134   5.334   5.755 -0.3913  0.0499 -0.0021
 6484TIP3    H140867   2.183   5.395   5.810  0.0307  0.9204 -1.2994
 6484TIP3    H240868   2.054   5.382   5.731 -1.7024 -1.1954  1.7380
 6485TIP3   OH240869   5.981   5.093  13.806 -0.3886  0.2087 -0.0619
 6485TIP3    H140870   6.045   5.070  13.738 -0.8415  0.5211 -0.5996
 6485TIP3    H240871   5.958   5.009  13.847 -0.7556 -0.0951 -0.8767
 6486TIP3   OH240872   4.382   4.135   1.942  0.1767 -0.2724 -0.0529
 6486TIP3    H140873   4.295   4.119   1.905 -1.0525  1.7384  1.8383
 6486TIP3    H240874   4.392   4.068   2.009  0.3111 -0.8360 -0.6340
 6487TIP3   OH240875   2.128   0.303  17.157  0.2832  0.1480  0.4085
 6487TIP3    H140876   2.106   0.367  17.225  1.1625  1.1958 -0.2812
 6487TIP3    H240877   2.043   0.273  17.125 -0.1332  0.8633  0.8290
 6488TIP3   OH240878   6.778   5.147   6.486  0.0640  0.0162  0.0308
 6488TIP3    H140879   6.700   5.095   6.505 -0.1886 -0.0947 -1.2123
 6488TIP3    H240880   6.748   5.238   6.496 -0.0603 -0.0376  0.1521
 6489TIP3   OH240881   0.384   2.439  12.688  0.1737  0.2444 -0.0408
 6489TIP3    H140882   0.348   2.502  12.750 -0.2932 -1.2248  1.2024
 6489TIP3    H240883   0.432   2.492  12.625 -2.4733  2.1096 -0.5900
 6490TIP3   OH240884   1.530   5.728   4.736  0.5175  0.3127 -0.6081
 6490TIP3    H140885   1.538   5.672   4.814 -2.6089  2.2226  1.2058
 6490TIP3    H240886   1.549   5.816   4.768 -3.6765  1.5441 -1.2401
 6491TIP3   OH240887   0.683   2.784  12.155 -0.2219 -0.2461 -0.1443
 6491TIP3    H140888   0.656   2.715  12.095  0.9467 -0.6294 -0.2268
 6491TIP3    H240889   0.723   2.850  12.099  0.7977 -0.5683  0.2026
 6492TIP3   OH240890   2.025   2.400  13.752  0.2858  0.4243 -0.0834
 6492TIP3    H140891   1.981   2.333  13.806 -0.1532  1.4018  0.7941
 6492TIP3    H240892   1.960   2.469  13.743  0.8184  0.8333 -0.7945
 6493TIP3   OH240893   3.961   4.230   0.755 -0.0297 -0.3149  0.1281
 6493TIP3    H140894   4.042   4.274   0.780 -0.6939 -0.9896  3.7622
 6493TIP3    H240895   3.895   4.300   0.755  0.2887  0.0259 -1.7384
 6494TIP3   OH240896   1.174   4.271   1.375  0.5635  0.3652 -0.0133
 6494TIP3    H140897   1.114   4.291   1.447 -0.8574 -1.6026 -0.6024
 6494TIP3    H240898   1.257   4.249   1.419 -0.3903 -1.1752  1.0678
 6495TIP3   OH240899   4.477   3.131  12.617 -0.1811  0.2591 -0.7263
 6495TIP3    H140900   4.550   3.165  12.670  0.4853  0.0760 -1.5246
 6495TIP3    H240901   4.477   3.185  12.538 -0.8300  0.1692 -0.7929
 6496TIP3   OH240902   4.120   4.833  14.642 -0.5931 -0.3516  0.0465
 6496TIP3    H140903   4.075   4.865  14.564  0.0675 -0.8889 -0.5583
 6496TIP3    H240904   4.146   4.744  14.620 -0.2193 -0.4350  0.8073
 6497TIP3   OH240905   2.264   6.243   3.926  0.0377  0.0534  0.0527
 6497TIP3    H140906   2.275   6.270   3.835 -0.7882 -0.6619 -0.2721
 6497TIP3    H240907   2.235   6.152   3.920 -1.9542  0.6043  0.9551
 6498TIP3   OH240908   3.989   0.253  11.661  0.4235 -0.4315  0.0335
 6498TIP3    H140909   3.918   0.279  11.602 -0.3374 -0.8156  0.7608
 6498TIP3    H240910   4.065   0.300  11.629  0.1034 -0.9063 -1.4745
 6499TIP3   OH240911   2.500   2.578  13.483 -0.1063  0.6922  0.1370
 6499TIP3    H140912   2.578   2.617  13.524  0.3651  0.0233 -0.1061
 6499TIP3    H240913   2.430   2.640  13.502  0.5475  1.4628  0.0983
 6500TIP3   OH240914   5.691   1.922   5.843 -0.5606 -0.0251  0.2436
 6500TIP3    H140915   5.648   2.001   5.876 -1.3774 -0.4571  0.2188
 6500TIP3    H240916   5.763   1.955   5.790  0.5730  0.6798  2.1816
 6501TIP3   OH240917   4.495   6.175  12.867 -0.3538  0.3323  0.1339
 6501TIP3    H140918   4.562   6.108  12.862 -1.4896 -1.0619  2.4604
 6501TIP3    H240919   4.440   6.161  12.790 -0.7678 -1.6712  0.7661
 6502TIP3   OH240920   6.261   5.410   2.637 -0.5389  0.1419  0.1276
 6502TIP3    H140921   6.276   5.442   2.548 -0.1218  0.2780  0.2463
 6502TIP3    H240922   6.275   5.316   2.631  0.3154  0.2603  0.2260
 6503TIP3   OH240923   5.662   2.062   4.031 -0.0074 -0.0799  0.3779
 6503TIP3    H140924   5.734   2.092   3.976 -0.9818  0.6506 -0.5134
 6503TIP3    H240925   5.628   1.984   3.986 -0.1341 -0.0997  0.5071
 6504TIP3   OH240926   5.931   4.117  16.907  0.3640  0.5928 -0.2390
 6504TIP3    H140927   5.943   4.055  16.835  0.4459  0.2885  0.0351
 6504TIP3    H240928   6.018   4.128  16.944  0.8070  2.7357 -1.8071
 6505TIP3   OH240929   6.182   5.339  11.176  0.8818  0.1543  0.1661
 6505TIP3    H140930   6.252   5.295  11.128  1.9086 -0.9681  2.5983
 6505TIP3    H240931   6.220   5.359  11.262 -1.7921 -0.5834  1.5818
 6506TIP3   OH240932   5.253   1.839  17.164  0.2004  0.3300 -0.2287
 6506TIP3    H140933   5.196   1.774  17.122 -0.3288  1.3834 -1.1975
 6506TIP3    H240934   5.341   1.809  17.144 -0.0462  0.5814 -1.7734
 6507TIP3   OH240935   3.405   2.354  11.840  0.1868  0.4997  0.0562
 6507TIP3    H140936   3.320   2.347  11.796 -0.6414 -1.1111  1.8200
 6507TIP3    H240937   3.427   2.265  11.865  1.3547  1.1710  1.5491
 6508TIP3   OH240938   3.762   4.477  16.137  0.2792  0.8690  0.1792
 6508TIP3    H140939   3.718   4.403  16.096 -1.4623  1.9313  0.0593
 6508TIP3    H240940   3.805   4.523  16.064 -0.5795  1.2630 -0.0813
 6509TIP3   OH240941   3.409   0.777   1.626 -0.0134  0.9599  0.4089
 6509TIP3    H140942   3.404   0.803   1.534 -3.0529 -2.7574 -0.6030
 6509TIP3    H240943   3.327   0.808   1.664 -0.5137 -0.8581  0.8605
 6510TIP3   OH240944   6.402   2.504   1.871 -0.9320  0.4239 -0.1318
 6510TIP3    H140945   6.393   2.600   1.875 -1.6408  0.3600 -0.1064
 6510TIP3    H240946   6.488   2.490   1.832  0.1166  1.0748  1.8645
 6511TIP3   OH240947   5.397   4.499  11.027 -0.3218 -0.5456 -0.5472
 6511TIP3    H140948   5.317   4.501  10.974  1.1187 -3.2003 -2.9599
 6511TIP3    H240949   5.401   4.409  11.060  0.9626 -0.0428  0.7133
 6512TIP3   OH240950   2.546   3.492  13.681 -0.1671  0.4270  0.3809
 6512TIP3    H140951   2.518   3.583  13.688 -0.3997  0.3106  0.9678
 6512TIP3    H240952   2.638   3.497  13.655  0.3600  0.8520  2.2298
 6513TIP3   OH240953   0.940   2.798  12.009  0.7131  0.0816 -0.1533
 6513TIP3    H140954   0.945   2.820  12.102 -0.6055  0.6485 -0.2088
 6513TIP3    H240955   0.987   2.715  12.001 -2.3978 -1.9600  1.6520
 6514TIP3   OH240956   4.035   0.612  14.218  0.4460  0.1497  0.3368
 6514TIP3    H140957   3.984   0.538  14.253  1.1120  0.0287  1.0482
 6514TIP3    H240958   3.993   0.689  14.256  0.1308  0.1102  0.0753
 6515TIP3   OH240959   2.205   2.722  11.671 -0.0847  0.2703  0.1294
 6515TIP3    H140960   2.207   2.697  11.579 -0.9389  0.9394 -0.0816
 6515TIP3    H240961   2.277   2.785  11.680  1.3988 -1.4010  0.4314
 6516TIP3   OH240962   4.452   5.305  14.360 -0.4621  0.0550 -0.1729
 6516TIP3    H140963   4.495   5.309  14.275 -2.6215 -0.4187 -1.3190
 6516TIP3    H240964   4.402   5.387  14.366 -2.1006 -0.9117 -0.3605
 6517TIP3   OH240965   5.432   0.997   1.131  0.2854 -0.0803 -0.3002
 6517TIP3    H140966   5.456   1.090   1.131  0.4869 -0.0096 -4.2628
 6517TIP3    H240967   5.342   0.995   1.100  0.2511 -1.1760 -0.1565
 6518TIP3   OH240968   3.655   0.105   2.962 -0.4357  0.3404 -0.3428
 6518TIP3    H140969   3.618   0.044   2.898  0.7112 -0.8043  0.0622
 6518TIP3    H240970   3.700   0.049   3.026  1.2388  1.6324 -0.3470
 6519TIP3   OH240971   2.146   2.564   0.951 -0.0150  0.2133 -0.0006
 6519TIP3    H140972   2.105   2.480   0.928  3.6573 -1.0834 -2.1122
 6519TIP3    H240973   2.097   2.629   0.900 -0.6250 -1.0501 -1.0641
 6520TIP3   OH240974   1.302   4.559  12.015 -0.1576  0.2870  0.4022
 6520TIP3    H140975   1.246   4.626  11.975  0.4086 -0.0903 -1.0617
 6520TIP3    H240976   1.386   4.569  11.971 -0.3322 -2.0155 -0.5164
 6521TIP3   OH240977   3.144   5.936   2.441 -0.4831 -0.0976 -0.2928
 6521TIP3    H140978   3.195   6.010   2.473 -0.8070 -0.1928  0.4626
 6521TIP3    H240979   3.065   5.937   2.495  0.6989 -2.5945  1.5502
 6522TIP3   OH240980   3.054   1.776  17.182  0.4159  0.1605  0.6508
 6522TIP3    H140981   3.005   1.708  17.228 -1.6060  1.1294  0.0128
 6522TIP3    H240982   3.022   1.858  17.219  2.2813  0.8045  0.8850
 6523TIP3   OH240983   0.570   4.534  16.948 -0.0893 -0.2375  0.4808
 6523TIP3    H140984   0.534   4.535  16.860  0.7446 -1.1264  0.1201
 6523TIP3    H240985   0.659   4.568  16.938  0.2888 -1.1043  0.8378
 6524TIP3   OH240986   1.820   0.665   2.165 -0.2654 -0.2570 -0.0004
 6524TIP3    H140987   1.781   0.589   2.123  0.2474 -0.3587 -0.2875
 6524TIP3    H240988   1.900   0.683   2.116  0.3176 -0.3579  0.8970
 6525TIP3   OH240989   0.235   1.491  10.615 -0.0562 -0.7127 -0.2693
 6525TIP3    H140990   0.260   1.504  10.523 -0.4424 -0.6110 -0.3579
 6525TIP3    H240991   0.180   1.566  10.636  0.4306 -0.4852  0.1896
 6526TIP3   OH240992   1.977   6.372   1.171 -0.0299  0.1244  0.4447
 6526TIP3    H140993   2.043   6.306   1.153 -0.3297 -0.1626  0.3783
 6526TIP3    H240994   2.023   6.456   1.165 -0.0219  0.0102 -1.1695
 6527TIP3   OH240995   0.864   2.420  11.194 -0.7896  0.0728 -0.1331
 6527TIP3    H140996   0.811   2.340  11.200 -0.2453 -0.4473 -1.8069
 6527TIP3    H240997   0.843   2.456  11.108  0.8933  0.3259 -0.4580
 6528TIP3   OH240998   5.085   4.143   4.909 -0.7115  0.3602 -0.4512
 6528TIP3    H140999   5.045   4.219   4.953 -2.1089 -0.2609 -0.6057
 6528TIP3    H241000   5.080   4.163   4.816 -1.3898 -0.0625 -0.5087
 6529TIP3   OH241001   0.205   6.784   3.806  0.1198  0.3500 -0.1692
 6529TIP3    H141002   0.189   6.690   3.802  0.3969  0.2890  0.0980
 6529TIP3    H241003   0.248   6.797   3.890  1.9461  0.4183 -1.0831
 6530TIP3   OH241004   1.800   3.191  13.505 -0.4417 -0.2752 -0.2885
 6530TIP3    H141005   1.830   3.102  13.486 -1.0208 -0.6726  0.6294
 6530TIP3    H241006   1.874   3.232  13.549 -0.1476 -0.2763 -0.7772
 6531TIP3   OH241007   1.927   4.970  14.681  0.5444 -0.1918 -0.6335
 6531TIP3    H141008   2.007   4.945  14.727 -0.4334 -0.0163  1.2274
 6531TIP3    H241009   1.875   4.890  14.678 -0.5916  0.4361  1.1420
 6532TIP3   OH241010   4.929   0.423  14.785 -0.2089 -0.7285 -0.4699
 6532TIP3    H141011   4.925   0.352  14.849  1.5812  0.4709  1.0099
 6532TIP3    H241012   4.977   0.386  14.711  2.5526 -0.4742  1.1375
 6533TIP3   OH241013   3.274   2.918  11.402  0.6695  0.9591  0.2220
 6533TIP3    H141014   3.203   2.912  11.339  1.5397 -0.4636 -0.6431
 6533TIP3    H241015   3.248   2.860  11.474  0.3336  1.4888  0.5306
 6534TIP3   OH241016   4.187   5.731   5.561  0.2790  0.6727  0.3255
 6534TIP3    H141017   4.137   5.666   5.511  0.7029  0.7544 -0.2038
 6534TIP3    H241018   4.248   5.679   5.614  1.0574  0.6632 -0.5720
 6535TIP3   OH241019   1.936   6.650   3.419  0.4533  1.0669 -0.0219
 6535TIP3    H141020   1.979   6.710   3.479 -0.0462  1.4613 -0.0581
 6535TIP3    H241021   2.004   6.625   3.356  0.8596  0.9909  0.4495
 6536TIP3   OH241022   0.253   6.452   5.925 -0.5380 -0.1048 -0.3789
 6536TIP3    H141023   0.266   6.523   5.862  0.3319  0.5886  0.5563
 6536TIP3    H241024   0.165   6.467   5.960 -0.4266  0.4143 -0.3134
 6537TIP3   OH241025   3.817   1.410  11.378  0.2018  0.3574  0.0626
 6537TIP3    H141026   3.871   1.361  11.316 -0.9940 -0.0240 -0.6998
 6537TIP3    H241027   3.833   1.502  11.356  1.0097  0.2728  0.2615
 6538TIP3   OH241028   0.186   3.277   4.082 -0.1383 -0.2064 -0.3457
 6538TIP3    H141029   0.188   3.372   4.072  0.5359 -0.0826  0.8734
 6538TIP3    H241030   0.239   3.259   4.160  1.2225 -1.7176 -1.5652
 6539TIP3   OH241031   2.623   6.208   4.428 -0.1134  0.4222  0.2223
 6539TIP3    H141032   2.703   6.156   4.436  0.6083  1.6288  0.9944
 6539TIP3    H241033   2.643   6.271   4.359  0.0215  1.4603  1.1972
 6540TIP3   OH241034   0.670   1.601   0.164 -0.6669 -0.0050 -0.1816
 6540TIP3    H141035   0.648   1.527   0.220 -0.9384 -0.0885 -0.3961
 6540TIP3    H241036   0.602   1.666   0.183  2.4679  2.3268  3.9315
 6541TIP3   OH241037   5.138   4.701  16.429 -0.2331 -0.0968 -0.5573
 6541TIP3    H141038   5.047   4.728  16.441  0.2477  1.0206  0.7493
 6541TIP3    H241039   5.152   4.633  16.496  0.0294  0.0992 -0.4108
 6542TIP3   OH241040   6.273   6.048  13.378 -0.2737  0.2895 -0.0368
 6542TIP3    H141041   6.260   6.035  13.284 -1.3304  0.8141  0.0295
 6542TIP3    H241042   6.366   6.027  13.392 -0.3370 -0.7269 -1.0247
 6543TIP3   OH241043   1.149   0.023  14.456  0.4023  0.0398  0.1527
 6543TIP3    H141044   1.082  -0.045  14.463  0.4700  0.1965  2.7599
 6543TIP3    H241045   1.230  -0.026  14.438 -0.0369 -0.2914 -1.0412
 6544TIP3   OH241046   3.510   2.798  12.579  0.4047 -0.1768 -0.2675
 6544TIP3    H141047   3.469   2.747  12.510  0.0243  0.0979 -0.2420
 6544TIP3    H241048   3.477   2.887  12.567  2.1663  0.3705 -1.1843
 6545TIP3   OH241049   4.617   3.945   4.893 -0.1123 -0.2241 -0.4117
 6545TIP3    H141050   4.698   3.939   4.841 -0.1001  0.2289 -0.4420
 6545TIP3    H241051   4.603   3.856   4.925 -1.4194 -1.0824 -3.1635
 6546TIP3   OH241052   3.318   0.050   5.214 -0.3520  0.4088  0.5145
 6546TIP3    H141053   3.311   0.045   5.309  1.8423 -0.4879  0.6587
 6546TIP3    H241054   3.361   0.133   5.197 -1.6552  1.0396  0.2296
 6547TIP3   OH241055   2.992   1.715  11.274 -0.3639  0.6068 -0.3399
 6547TIP3    H141056   2.924   1.687  11.213  0.3314 -1.5381 -0.1616
 6547TIP3    H241057   3.058   1.756  11.218 -1.0939  1.3325 -0.6827
 6548TIP3   OH241058   3.547   4.815  11.749  0.8238  0.0070 -0.2120
 6548TIP3    H141059   3.620   4.844  11.695  0.7720 -1.4812 -1.1197
 6548TIP3    H241060   3.474   4.803  11.687  0.9648 -2.4042  0.0141
 6549TIP3   OH241061   0.905   5.557   0.627 -0.0214  0.5328 -0.4215
 6549TIP3    H141062   0.967   5.507   0.574  1.8900  1.9001  0.4624
 6549TIP3    H241063   0.953   5.577   0.707 -1.8093  1.1502  0.5129
 6550TIP3   OH241064   2.794   2.971  11.209  0.1266  0.0796  0.0868
 6550TIP3    H141065   2.750   3.023  11.276 -0.6017 -0.6247  0.1678
 6550TIP3    H241066   2.813   3.033  11.139  0.2910  0.6852  0.6617
 6551TIP3   OH241067   4.372   4.352  12.436  0.0311  0.1624 -0.1023
 6551TIP3    H141068   4.466   4.355  12.424 -0.1939 -0.9216 -2.6137
 6551TIP3    H241069   4.350   4.433  12.481  2.1402  0.4395  0.4731
 6552TIP3   OH241070   1.690   4.914  13.905 -0.9492  0.0333 -0.0847
 6552TIP3    H141071   1.692   4.993  13.960 -1.2708 -0.2093  0.2749
 6552TIP3    H241072   1.700   4.842  13.967  1.8112 -0.1196 -0.6438
 6553TIP3   OH241073   6.207   4.765   4.111 -0.0778 -0.2860 -0.2262
 6553TIP3    H141074   6.158   4.796   4.035  0.3481 -0.4741 -0.5859
 6553TIP3    H241075   6.144   4.764   4.182 -0.0582  1.5328 -0.1697
 6554TIP3   OH241076   3.133   4.018  14.836 -0.5394  0.7561  0.3095
 6554TIP3    H141077   3.227   3.998  14.844 -0.5603  0.9312  1.0780
 6554TIP3    H241078   3.101   3.957  14.770 -0.2397 -0.5063  1.3144
 6555TIP3   OH241079   0.081   3.298  16.535 -0.2209 -0.7099 -0.5243
 6555TIP3    H141080   0.127   3.367  16.487 -0.8068  1.0210  1.3354
 6555TIP3    H241081   0.135   3.220  16.522  0.0969 -0.1061 -3.2179
 6556TIP3   OH241082   0.157   3.953  14.075 -0.1837  0.3294 -0.0335
 6556TIP3    H141083   0.232   3.956  14.134  0.1221 -2.7376 -0.1896
 6556TIP3    H241084   0.171   4.024  14.013  0.6878  2.1128  2.1345
 6557TIP3   OH241085   6.552   6.067  13.433 -0.1316 -0.4600  0.6608
 6557TIP3    H141086   6.547   6.102  13.523 -0.2945  0.2218  0.3900
 6557TIP3    H241087   6.646   6.061  13.416 -0.0991  1.1159  0.2289
 6558TIP3   OH241088   0.579   5.524  13.403  0.0604 -0.4263  0.1524
 6558TIP3    H141089   0.659   5.558  13.365 -0.2007  1.3309  1.1244
 6558TIP3    H241090   0.596   5.522  13.497 -1.5335  1.3417  0.4965
 6559TIP3   OH241091   4.465   1.542   4.823 -0.3389  0.6046  0.6559
 6559TIP3    H141092   4.546   1.592   4.815  0.1048 -0.0962  0.6681
 6559TIP3    H241093   4.427   1.569   4.906  0.0457  0.7047  0.7978
 6560TIP3   OH241094   4.862   3.587   4.964 -0.1393  0.6191 -0.0477
 6560TIP3    H141095   4.864   3.653   5.034  1.3794  0.4658  0.0700
 6560TIP3    H241096   4.788   3.613   4.909 -0.4723  1.5656  0.8221
 6561TIP3   OH241097   3.880   0.355  11.402  0.0313  0.1675  0.4840
 6561TIP3    H141098   3.875   0.301  11.324 -0.4207 -2.3280  2.1850
 6561TIP3    H241099   3.812   0.421  11.390  1.1089  0.8657 -1.9683
 6562TIP3   OH241100   0.408   3.399  16.503  0.9789  0.1749  0.0066
 6562TIP3    H141101   0.401   3.430  16.412  0.4758 -0.4649 -0.1747
 6562TIP3    H241102   0.379   3.474  16.556 -0.6418 -0.0995 -0.4481
 6563TIP3   OH241103   0.867   2.048   4.686 -0.6065 -0.0476 -0.2012
 6563TIP3    H141104   0.780   2.087   4.698 -1.2326 -1.3919 -0.1837
 6563TIP3    H241105   0.869   2.022   4.594 -0.6797 -1.0514  0.0723
 6564TIP3   OH241106   6.730   1.649   2.705 -0.4608 -0.5033  0.0986
 6564TIP3    H141107   6.645   1.691   2.691 -0.5957 -1.0515 -0.7826
 6564TIP3    H241108   6.709   1.557   2.717  0.0135 -0.6586 -0.2536
 6565TIP3   OH241109   3.518   1.317   1.278  0.6885 -0.4168 -0.6793
 6565TIP3    H141110   3.489   1.273   1.358  1.4280  0.6747  0.2092
 6565TIP3    H241111   3.441   1.315   1.221 -0.2915  0.0141  0.5934
 6566TIP3   OH241112   0.574   6.000   3.190  0.4510  0.1800  0.0794
 6566TIP3    H141113   0.502   6.044   3.145  1.0738  0.4066 -0.7029
 6566TIP3    H241114   0.642   6.067   3.197  1.6291 -0.8006 -1.6260
 6567TIP3   OH241115   3.297   5.814   2.703  0.0388 -0.2440 -0.5941
 6567TIP3    H141116   3.380   5.799   2.748  0.5206 -0.0112 -1.3840
 6567TIP3    H241117   3.230   5.797   2.769  0.7113 -0.6048  0.0022
 6568TIP3   OH241118   2.704   5.723  14.592 -0.0831 -0.3645  0.4554
 6568TIP3    H141119   2.787   5.698  14.551 -0.0728  0.7742 -0.2374
 6568TIP3    H241120   2.725   5.801  14.643 -0.6456 -0.2949  0.5849
 6569TIP3   OH241121   0.159   4.799   1.858  0.7324 -0.1254  0.5251
 6569TIP3    H141122   0.251   4.798   1.833  0.4414  0.5304 -0.6120
 6569TIP3    H241123   0.113   4.827   1.779 -0.5743 -1.8670  0.6310
 6570TIP3   OH241124   1.167   3.516  15.871  0.1852 -0.4600 -0.1346
 6570TIP3    H141125   1.137   3.532  15.782 -2.1701 -1.1479  0.5229
 6570TIP3    H241126   1.255   3.480  15.860  0.1375 -0.0118 -2.1469
 6571TIP3   OH241127   1.735   2.784   4.040  0.2855  0.5162 -0.1472
 6571TIP3    H141128   1.685   2.768   3.961 -0.0861  1.9453 -0.2156
 6571TIP3    H241129   1.801   2.848   4.015  1.9596 -1.0822  0.0273
 6572TIP3   OH241130   4.683   1.645   3.941 -0.2239 -0.7415  0.0904
 6572TIP3    H141131   4.709   1.597   4.020  0.1823  0.1403  0.4988
 6572TIP3    H241132   4.639   1.579   3.887  1.7705 -2.0041 -0.0892
 6573TIP3   OH241133   6.759   6.076   2.165  0.3945  0.4597 -0.3688
 6573TIP3    H141134   6.852   6.054   2.171  1.1135  2.8355 -2.3255
 6573TIP3    H241135   6.719   5.998   2.127  1.2122 -1.3745  2.3569
 6574TIP3   OH241136   5.197   3.676  12.480  0.0249 -0.6681 -0.1087
 6574TIP3    H141137   5.212   3.589  12.515  1.6422 -0.3342  0.0656
 6574TIP3    H241138   5.275   3.726  12.504  0.4105  0.0585 -2.6688
 6575TIP3   OH241139   3.210   5.200   0.157  0.1219  0.1025  0.0029
 6575TIP3    H141140   3.279   5.256   0.121 -0.1196  0.7425  0.5277
 6575TIP3    H241141   3.164   5.166   0.080  0.3343  0.5527 -0.3247
 6576TIP3   OH241142   1.302   4.896   0.139 -0.8913 -0.0653  0.1019
 6576TIP3    H141143   1.243   4.971   0.131 -1.4957 -0.5421  0.0263
 6576TIP3    H241144   1.245   4.820   0.127 -0.0226 -0.5036 -1.3426
 6577TIP3   OH241145   6.182   4.459   2.878 -0.4760 -0.3818 -0.3501
 6577TIP3    H141146   6.200   4.540   2.925 -1.7186  0.4999 -1.3427
 6577TIP3    H241147   6.250   4.455   2.810  0.2979 -0.7886  0.4420
 6578TIP3   OH241148   5.809   5.100  13.061 -0.0408  0.5788  0.3600
 6578TIP3    H141149   5.843   5.188  13.076  0.7816  0.1163  1.3186
 6578TIP3    H241150   5.782   5.070  13.148 -1.5963  0.4008 -0.1740
 6579TIP3   OH241151   3.197   1.549  11.696 -0.0046  0.0409 -0.1641
 6579TIP3    H141152   3.133   1.564  11.627  0.6577  2.1227 -0.3710
 6579TIP3    H241153   3.281   1.570  11.656  0.3801  1.3902  1.2745
 6580TIP3   OH241154   0.056   3.667  16.139 -0.3033  0.0701  0.0446
 6580TIP3    H141155   0.125   3.726  16.108 -0.8944  0.2449 -0.9619
 6580TIP3    H241156  -0.022   3.722  16.144 -0.8093 -0.5731 -0.6996
 6581TIP3   OH241157   3.113   6.255   0.902 -0.0005 -0.0951  0.0162
 6581TIP3    H141158   3.204   6.242   0.874 -0.6583 -1.7333 -1.5300
 6581TIP3    H241159   3.111   6.225   0.993  0.9465 -0.3255 -0.0338
 6582TIP3   OH241160   0.498   4.094   2.382  0.6497 -0.5038 -0.4839
 6582TIP3    H141161   0.505   4.172   2.327  1.0119  0.8683  1.4593
 6582TIP3    H241162   0.553   4.029   2.339  2.5277  1.1711 -0.7124
 6583TIP3   OH241163   0.095   5.284   0.771 -0.1444  0.2344  0.1662
 6583TIP3    H141164   0.028   5.234   0.816 -0.7279  0.7119 -0.1645
 6583TIP3    H241165   0.178   5.248   0.803 -0.5312 -1.8181 -1.0104
 6584TIP3   OH241166   1.694   2.393  11.083  0.0756  0.0858  0.0150
 6584TIP3    H141167   1.786   2.404  11.106 -0.3383  1.7701  0.9387
 6584TIP3    H241168   1.653   2.355  11.160 -0.5736  2.1875  0.7416
 6585TIP3   OH241169   5.159   2.439   0.527 -0.3511 -0.2911  0.6856
 6585TIP3    H141170   5.101   2.440   0.604 -0.6941  0.6641  0.4255
 6585TIP3    H241171   5.194   2.528   0.524  0.7549 -0.7285  0.5502
 6586TIP3   OH241172   2.496   6.412   3.424 -0.0429  0.2728 -0.8593
 6586TIP3    H141173   2.566   6.347   3.432  0.7391  1.0281 -1.4057
 6586TIP3    H241174   2.511   6.453   3.338 -0.0957  1.6712 -0.2145
 6587TIP3   OH241175   3.566   6.209  16.787  0.6758 -0.0533 -0.2889
 6587TIP3    H141176   3.496   6.208  16.852 -0.6585 -2.6283 -1.6737
 6587TIP3    H241177   3.621   6.283  16.812 -0.9114  0.2442  2.5580
 6588TIP3   OH241178   5.953   4.731  17.004  0.1643  0.2138 -0.3597
 6588TIP3    H141179   5.873   4.777  17.031 -1.8415 -3.2438 -0.1502
 6588TIP3    H241180   5.955   4.742  16.909  0.2430  1.4980 -0.2243
 6589TIP3   OH241181   1.016   2.700   1.413 -0.1755  0.0132 -0.1732
 6589TIP3    H141182   1.062   2.745   1.484 -0.0190 -1.1306  0.4567
 6589TIP3    H241183   0.923   2.721   1.428 -0.0297  0.8274 -0.3853
 6590TIP3   OH241184   1.010   4.528  11.767 -0.1403 -0.0494  0.7786
 6590TIP3    H141185   0.962   4.536  11.685 -0.6952 -2.0325  0.8702
 6590TIP3    H241186   0.975   4.598  11.822 -0.6105  0.5498 -0.2668
 6591TIP3   OH241187   4.229   2.657   3.365 -0.5089  0.0564  0.3447
 6591TIP3    H141188   4.263   2.615   3.444  0.0803  0.5860  0.3744
 6591TIP3    H241189   4.139   2.626   3.358 -0.4163 -0.3514  0.9726
 6592TIP3   OH241190   6.734   6.108  16.888 -0.3763  0.1523  0.0409
 6592TIP3    H141191   6.754   6.026  16.934 -0.4369  0.3840  0.4842
 6592TIP3    H241192   6.639   6.113  16.889 -0.3734  0.2167 -0.0088
 6593TIP3   OH241193   0.039   4.139  12.332 -0.3776 -0.9727  0.9616
 6593TIP3    H141194   0.106   4.072  12.348  0.5207  0.2542  2.4053
 6593TIP3    H241195   0.045   4.157  12.238  1.1152 -1.0844  1.0282
 6594TIP3   OH241196   4.251   4.354   5.969 -0.0080 -0.3453 -0.2374
 6594TIP3    H141197   4.246   4.412   6.045 -1.9870 -2.6950  1.4979
 6594TIP3    H241198   4.314   4.397   5.911  3.3574  0.3545  3.7041
 6595TIP3   OH241199   5.427   0.902  14.547  0.1056  0.4668 -0.2730
 6595TIP3    H141200   5.491   0.906  14.618 -1.7513 -3.6747  1.7717
 6595TIP3    H241201   5.479   0.875  14.471  1.3287  0.3698  0.5754
 6596TIP3   OH241202   0.926   4.398   2.145  0.9698  0.1182 -0.1051
 6596TIP3    H141203   0.989   4.347   2.195  2.8701  3.6656  1.2462
 6596TIP3    H241204   0.969   4.414   2.061  1.0036  0.7410  0.0275
 6597TIP3   OH241205   0.293   5.498   4.876  0.3764  0.0228 -0.0189
 6597TIP3    H141206   0.389   5.501   4.875  0.3530  2.1168  0.6504
 6597TIP3    H241207   0.269   5.495   4.784  1.0654  3.1777 -0.3662
 6598TIP3   OH241208   6.075   0.806   4.888  0.8410  0.0046  0.1634
 6598TIP3    H141209   6.027   0.736   4.932  0.0534  0.7014  0.4353
 6598TIP3    H241210   6.073   0.782   4.795  0.8001 -0.4703  0.2882
 6599TIP3   OH241211   3.604   1.535   5.365  0.1215 -0.6369  0.0666
 6599TIP3    H141212   3.630   1.491   5.446  5.0493  1.7779 -0.0515
 6599TIP3    H241213   3.521   1.578   5.386  0.8642 -0.8234  3.5425
 6600TIP3   OH241214   1.280   5.059   1.724 -0.0259 -0.2641  0.2034
 6600TIP3    H141215   1.333   5.009   1.662 -0.7238 -0.4525 -0.2464
 6600TIP3    H241216   1.194   5.066   1.683 -0.1272  0.7403  0.5611
 6601TIP3   OH241217   4.165   1.122   5.162  0.2216 -0.2357 -0.1867
 6601TIP3    H141218   4.141   1.039   5.202  0.1072  0.3636  1.0119
 6601TIP3    H241219   4.083   1.169   5.152  0.4304  0.2521  0.3461
 6602TIP3   OH241220   1.698   4.099  11.855  0.0874  0.1701  0.3728
 6602TIP3    H141221   1.770   4.061  11.804  1.6258  2.0270  1.0891
 6602TIP3    H241222   1.621   4.089  11.799  1.4228  0.6273 -1.6051
 6603TIP3   OH241223   1.371   5.703  16.260  0.1796  0.2140  0.2307
 6603TIP3    H141224   1.332   5.623  16.295 -0.4920  0.2281 -0.4794
 6603TIP3    H241225   1.405   5.748  16.337  2.9944 -2.0202  0.3600
 6604TIP3   OH241226   0.280   4.714  11.707 -0.0226  0.3079  0.8636
 6604TIP3    H141227   0.342   4.711  11.779  0.9709  0.6780  0.0379
 6604TIP3    H241228   0.264   4.622  11.686  2.0445  0.2168 -0.4201
 6605TIP3   OH241229   2.899   0.655  15.962  0.0567 -0.5838  0.6462
 6605TIP3    H141230   2.896   0.741  16.003 -0.6092  0.2525 -1.1143
 6605TIP3    H241231   2.810   0.620  15.972 -0.0767 -0.4271  0.0645
 6606TIP3   OH241232   6.329   0.875   6.191  0.7884  0.0705 -0.2128
 6606TIP3    H141233   6.237   0.893   6.172  0.9316 -0.8895 -1.8698
 6606TIP3    H241234   6.366   0.961   6.214 -0.3825  0.5479 -0.0929
 6607TIP3   OH241235   5.571   2.012  13.615 -0.4436 -0.7600 -0.0380
 6607TIP3    H141236   5.556   2.052  13.530 -0.5762 -1.4774 -0.3569
 6607TIP3    H241237   5.622   1.933  13.596  1.6973  0.3845  0.7980
 6608TIP3   OH241238   2.093   6.414  13.030  0.5108  0.5054  0.0104
 6608TIP3    H141239   2.160   6.434  13.096 -0.3355  1.6888  0.5031
 6608TIP3    H241240   2.071   6.498  12.991 -0.4101  0.0588 -0.4386
 6609TIP3   OH241241   2.902   1.371  11.165 -0.1061  0.1063  0.0078
 6609TIP3    H141242   2.972   1.404  11.108  1.4142 -2.0612  0.5515
 6609TIP3    H241243   2.834   1.439  11.162  1.4981  1.6909 -1.4976
 6610TIP3   OH241244   5.519   6.623   5.849  0.5595  0.1415 -0.3502
 6610TIP3    H141245   5.459   6.556   5.881 -1.7973  1.9850 -0.8400
 6610TIP3    H241246   5.583   6.634   5.919 -1.5463  0.4762  1.5385
 6611TIP3   OH241247   3.449   2.419   1.105  0.3512  0.9085 -0.4181
 6611TIP3    H141248   3.513   2.444   1.171  2.3562  0.6399 -2.2179
 6611TIP3    H241249   3.498   2.366   1.043 -1.8743 -0.2096 -1.2662
 6612TIP3   OH241250   0.501   4.182  14.642 -0.1737 -0.1984  0.2988
 6612TIP3    H141251   0.442   4.257  14.653  1.4327  1.0341  0.6452
 6612TIP3    H241252   0.506   4.142  14.729 -2.6457 -1.9765 -0.3194
 6613TIP3   OH241253   4.021   6.279   0.363 -0.3767  0.2259  0.2001
 6613TIP3    H141254   3.935   6.281   0.321 -0.0759  0.2578 -0.4095
 6613TIP3    H241255   4.081   6.250   0.295  0.1339  0.4143  0.5645
 6614TIP3   OH241256   6.166   6.713   6.397 -0.1359  0.4357 -0.6509
 6614TIP3    H141257   6.227   6.654   6.353 -0.5806  0.3496 -1.1494
 6614TIP3    H241258   6.081   6.695   6.357 -0.2708  1.4363 -0.8177
 6615TIP3   OH241259   1.574   1.982  15.526  1.2044  0.2426 -0.1186
 6615TIP3    H141260   1.569   2.076  15.543  0.2309  0.1395  0.2077
 6615TIP3    H241261   1.648   1.952  15.578  1.4373  0.8057 -0.1177
 6616TIP3   OH241262   1.018   4.286   3.421  0.2224  0.1504 -0.2571
 6616TIP3    H141263   1.009   4.195   3.390  0.5657 -0.3879  1.2117
 6616TIP3    H241264   1.076   4.327   3.356 -0.5591 -0.4555 -1.3684
 6617TIP3   OH241265   2.401   3.555  11.792  0.2568 -0.0664  0.1545
 6617TIP3    H141266   2.355   3.491  11.738  0.3351  1.0813 -1.2871
 6617TIP3    H241267   2.416   3.509  11.875 -0.9944 -1.4041 -0.3345
 6618TIP3   OH241268   0.805   0.975  14.245  0.0798 -0.7738  0.0388
 6618TIP3    H141269   0.827   1.012  14.330 -0.9854 -1.9000  0.8238
 6618TIP3    H241270   0.852   0.891  14.242  1.1592 -0.1591 -1.0428
 6619TIP3   OH241271   6.413   3.712   1.586 -0.2189  0.1707  0.3636
 6619TIP3    H141272   6.421   3.777   1.515 -0.7833  0.3977  0.5053
 6619TIP3    H241273   6.327   3.729   1.624  0.3889  0.5675  1.6125
 6620TIP3   OH241274   3.741   0.543  16.386 -0.2635 -0.0481  0.0837
 6620TIP3    H141275   3.768   0.513  16.473  0.1884 -1.3984 -0.5040
 6620TIP3    H241276   3.654   0.579  16.400  0.8361  2.1491  1.5672
 6621TIP3   OH241277   4.793   2.488   4.551 -0.4943 -0.1593  0.1866
 6621TIP3    H141278   4.775   2.582   4.545 -0.3483 -0.0565  1.3223
 6621TIP3    H241279   4.818   2.463   4.462 -1.7545  0.6244 -0.4143
 6622TIP3   OH241280   1.762   6.476  15.726  0.0219 -0.1709  0.3471
 6622TIP3    H141281   1.795   6.506  15.641  2.5083  0.0761  1.3602
 6622TIP3    H241282   1.711   6.398  15.705  0.4194  0.0056 -1.3996
 6623TIP3   OH241283   0.407   4.157   6.194  0.5544  0.1750 -0.2405
 6623TIP3    H141284   0.433   4.067   6.173 -2.0557 -0.4274 -1.1237
 6623TIP3    H241285   0.327   4.147   6.246  0.8132  1.9585  0.5158
 6624TIP3   OH241286   3.887   0.497  11.879 -0.4545 -0.2887 -0.2365
 6624TIP3    H141287   3.846   0.468  11.960  1.0057 -0.4612  0.4581
 6624TIP3    H241288   3.973   0.455  11.879  0.6569  1.8983 -0.5125
 6625TIP3   OH241289   3.465   0.987  11.917  0.6651 -0.0741 -0.4612
 6625TIP3    H141290   3.536   1.049  11.902 -0.7062  1.6505 -0.1307
 6625TIP3    H241291   3.421   0.981  11.832 -0.0790  0.5740 -0.1319
 6626TIP3   OH241292   4.123   5.546  13.582 -0.0112  0.6104  0.2285
 6626TIP3    H141293   4.117   5.640  13.603 -1.4362  0.5529  0.1268
 6626TIP3    H241294   4.055   5.505  13.635  0.8392 -0.4211  0.5317
 6627TIP3   OH241295   0.777   2.557   4.916 -0.3095  0.0650 -0.4353
 6627TIP3    H141296   0.749   2.634   4.966 -3.8856 -2.2332  1.2706
 6627TIP3    H241297   0.723   2.558   4.837 -0.1734 -0.5549 -0.5370
 6628TIP3   OH241298   3.039   5.958   0.637 -0.0191 -0.2111 -0.0794
 6628TIP3    H141299   2.950   5.971   0.668 -0.3197 -2.0064 -0.1005
 6628TIP3    H241300   3.029   5.933   0.545  0.3902 -1.6718  0.2503
 6629TIP3   OH241301   3.081   2.742  16.207  0.3667  0.2185  0.1244
 6629TIP3    H141302   3.101   2.653  16.177  2.1898  1.4330 -2.4084
 6629TIP3    H241303   3.165   2.776  16.238 -0.2526  1.2139  0.7144
 6630TIP3   OH241304   3.153   5.117   1.240  0.2624  0.9779 -0.2533
 6630TIP3    H141305   3.095   5.054   1.283  0.2345  1.2049  0.0403
 6630TIP3    H241306   3.129   5.201   1.278  0.6885  1.0911 -0.2382
 6631TIP3   OH241307   2.176   6.351  11.804  0.0429 -0.6732 -0.6599
 6631TIP3    H141308   2.241   6.332  11.736  0.8808 -0.2432  0.0109
 6631TIP3    H241309   2.165   6.269  11.851  0.9625 -0.4607 -0.0554
 6632TIP3   OH241310   4.099   6.240  10.590  0.8312 -0.4389 -0.0120
 6632TIP3    H141311   4.031   6.226  10.525  0.2046  1.7634  0.1435
 6632TIP3    H241312   4.054   6.230  10.674  0.2525  2.7822  0.1123
 6633TIP3   OH241313   6.268   4.221  11.998  0.3737 -0.0575 -0.3661
 6633TIP3    H141314   6.226   4.135  12.006 -1.6975  0.6511 -2.7867
 6633TIP3    H241315   6.196   4.282  11.990  1.7261  1.1635 -5.1871
 6634TIP3   OH241316   2.387   1.012   3.627 -0.2247 -0.1470  0.4953
 6634TIP3    H141317   2.399   0.973   3.540  0.4019 -1.9806  1.3678
 6634TIP3    H241318   2.341   0.945   3.677 -1.4067  1.2611  1.3265
 6635TIP3   OH241319   2.302   6.027  13.461  0.3007  0.0758 -0.1738
 6635TIP3    H141320   2.272   5.938  13.446  2.0352 -0.2580 -1.9928
 6635TIP3    H241321   2.224   6.076  13.485 -0.7937 -1.7595  0.0820
 6636TIP3   OH241322   2.307   5.420  13.528  0.0376 -0.2376 -0.7728
 6636TIP3    H141323   2.278   5.335  13.561  0.2938 -0.3953 -0.9550
 6636TIP3    H241324   2.382   5.400  13.472 -0.9280 -0.0672 -2.1637
 6637TIP3   OH241325   3.469   3.685   1.458 -0.6575  1.0629  0.4080
 6637TIP3    H141326   3.565   3.691   1.463 -0.6434  0.7570  0.5542
 6637TIP3    H241327   3.445   3.632   1.533 -0.8533  0.3099 -0.1734
 6638TIP3   OH241328   0.873   4.044   0.455 -0.5194  0.4086 -1.0465
 6638TIP3    H141329   0.958   4.061   0.494 -2.0209  1.6198  1.8501
 6638TIP3    H241330   0.855   4.121   0.401  0.0823  0.2694 -1.4523
 6639TIP3   OH241331   6.048   2.453   5.075  0.6937 -0.3425  0.4412
 6639TIP3    H141332   6.040   2.480   5.166 -2.0753 -0.8124  0.3798
 6639TIP3    H241333   5.958   2.445   5.044  1.5556 -1.9179 -1.8375
 6640TIP3   OH241334   5.641   0.191   2.745  0.8168  0.2165  0.0921
 6640TIP3    H141335   5.551   0.196   2.713  0.3153 -0.9153  1.3195
 6640TIP3    H241336   5.673   0.106   2.716  2.3906  1.6147 -2.5695
 6641TIP3   OH241337   2.193   1.956   2.067 -0.0331  0.0418  0.4665
 6641TIP3    H141338   2.112   1.929   2.023  0.8779 -1.8599 -0.0704
 6641TIP3    H241339   2.245   1.996   1.997 -0.4694  1.2130  0.8004
 6642TIP3   OH241340   0.986   3.663   4.272  0.2943 -0.5679 -0.0820
 6642TIP3    H141341   1.073   3.623   4.274  1.7431  2.3956  0.0168
 6642TIP3    H241342   0.943   3.625   4.195  0.4320 -4.4365  1.6598
 6643TIP3   OH241343   0.963   1.542  16.903  0.1055  0.0530  0.8074
 6643TIP3    H141344   0.991   1.629  16.931  0.6890  0.2187 -0.2268
 6643TIP3    H241345   0.948   1.551  16.809 -1.6069 -0.5244  1.0093
 6644TIP3   OH241346   2.280   2.277   0.556 -0.0836  0.1364  0.1782
 6644TIP3    H141347   2.214   2.346   0.557 -0.2815 -0.0227 -1.0527
 6644TIP3    H241348   2.250   2.216   0.489 -0.5906 -1.8445  2.1544
 6645TIP3   OH241349   3.379   5.238  14.185  0.0409  0.2591 -0.2850
 6645TIP3    H141350   3.319   5.180  14.232  0.2670  0.3926  0.1695
 6645TIP3    H241351   3.443   5.179  14.144 -0.1117  0.1473 -0.3601
 6646TIP3   OH241352   1.554   0.852   1.634 -0.1458  0.2914  0.6635
 6646TIP3    H141353   1.643   0.881   1.613  0.0603 -0.0866  1.0103
 6646TIP3    H241354   1.502   0.932   1.634 -0.0796  0.3375 -0.9424
 6647TIP3   OH241355   1.355   2.774  11.840 -0.1069 -0.3274  0.1281
 6647TIP3    H141356   1.398   2.690  11.856  1.4794  0.3609 -0.3443
 6647TIP3    H241357   1.317   2.798  11.925  1.0760 -0.6190  0.7532
 6648TIP3   OH241358   1.855   5.863   1.669 -0.1976  0.3276  0.1404
 6648TIP3    H141359   1.826   5.923   1.737  0.9375  0.7764  0.2423
 6648TIP3    H241360   1.805   5.782   1.684 -1.0657  0.9375  0.5511
 6649TIP3   OH241361   4.141   1.091   5.970 -0.2781  0.1507  0.3580
 6649TIP3    H141362   4.235   1.085   5.959 -0.3911 -0.8931 -0.0140
 6649TIP3    H241363   4.130   1.146   6.048  0.5905  2.0687 -0.8191
 6650TIP3   OH241364   3.499   2.203   2.028  0.6113  0.2661 -0.7430
 6650TIP3    H141365   3.503   2.163   2.115  0.0192  0.3542 -0.6747
 6650TIP3    H241366   3.491   2.128   1.968 -1.0152  0.2901 -0.5805
 6651TIP3   OH241367   3.687   1.205   4.105 -0.0423 -0.1832 -0.4677
 6651TIP3    H141368   3.722   1.154   4.032  0.9780 -0.6168  0.3103
 6651TIP3    H241369   3.697   1.147   4.181 -0.7969  0.3862  0.0626
 6652TIP3   OH241370   2.384   0.399  12.773 -0.0025  0.2628 -0.4848
 6652TIP3    H141371   2.452   0.345  12.815 -1.4535 -1.7983 -0.6850
 6652TIP3    H241372   2.328   0.427  12.845  0.5345  1.1947 -0.4275
 6653TIP3   OH241373   6.504   6.539  16.732  0.1626  0.6602 -0.7190
 6653TIP3    H141374   6.432   6.525  16.794 -1.1716 -0.7692 -2.5083
 6653TIP3    H241375   6.493   6.630  16.703  0.9616  1.4218  1.2974
 6654TIP3   OH241376   3.432   2.659   4.405  0.6285  0.1586 -0.1226
 6654TIP3    H141377   3.455   2.598   4.335  1.8993 -0.0780  0.4923
 6654TIP3    H241378   3.494   2.640   4.475 -0.0161  1.0519  0.7077
 6655TIP3   OH241379   1.383   1.046   0.560  0.3237  0.2980 -0.6666
 6655TIP3    H141380   1.318   0.997   0.611  1.5897 -0.4821  0.2474
 6655TIP3    H241381   1.431   1.098   0.625 -0.2963  1.9402 -1.5029
 6656TIP3   OH241382   2.368   1.931   5.069 -0.0565 -0.4097 -0.3436
 6656TIP3    H141383   2.312   2.009   5.069 -1.2082 -1.2220  0.7652
 6656TIP3    H241384   2.403   1.927   4.980 -1.3881  0.3740 -0.9189
 6657TIP3   OH241385   3.823   2.120   4.585  0.1736 -0.3404  0.1418
 6657TIP3    H141386   3.887   2.127   4.513  2.0377 -2.4940  1.5021
 6657TIP3    H241387   3.868   2.160   4.659 -0.7956 -0.2443  0.6697
 6658TIP3   OH241388   0.805   6.745  15.351  0.4697 -0.0126 -0.2109
 6658TIP3    H141389   0.873   6.689  15.389  0.4000 -1.4675 -2.1648
 6658TIP3    H241390   0.825   6.746  15.257 -0.5596  1.8528 -0.4323
 6659TIP3   OH241391   1.486   5.897   5.426 -0.7004 -0.2897  0.0662
 6659TIP3    H141392   1.520   5.976   5.385  1.4597  0.5868  3.4188
 6659TIP3    H241393   1.396   5.890   5.393 -0.4403  2.7116 -1.4325
 6660TIP3   OH241394   3.596   2.184  16.897  0.8287  0.1520  0.1271
 6660TIP3    H141395   3.606   2.279  16.892  0.4110  0.1289 -1.5612
 6660TIP3    H241396   3.683   2.149  16.881  0.2630  0.1943 -3.6011
 6661TIP3   OH241397   5.660   2.371   2.395  0.1628 -0.0837  0.0947
 6661TIP3    H141398   5.732   2.381   2.332 -0.0007  2.3198  0.2362
 6661TIP3    H241399   5.583   2.354   2.340  0.2379  0.7775 -0.2890
 6662TIP3   OH241400   6.600   5.780  11.291  0.2379  0.0199  0.4507
 6662TIP3    H141401   6.662   5.851  11.303 -0.0621  0.4272 -0.3927
 6662TIP3    H241402   6.632   5.732  11.214  0.3746 -0.6956  0.9405
 6663TIP3   OH241403   1.362   0.930  13.682  0.7319  0.6276  0.1775
 6663TIP3    H141404   1.342   0.956  13.592 -0.9693 -0.4345  0.2372
 6663TIP3    H241405   1.384   1.012  13.726  0.4046  1.3026 -0.8986
 6664TIP3   OH241406   5.441   5.924   2.040  0.1364 -0.3169 -0.0316
 6664TIP3    H141407   5.380   5.868   2.089  2.0059 -0.1185  2.6371
 6664TIP3    H241408   5.398   6.010   2.038  0.2998 -0.1712  1.8441
 6665TIP3   OH241409   1.898   1.131   3.013 -0.1202 -0.2885 -0.5558
 6665TIP3    H141410   1.836   1.060   3.001 -3.9120  2.6531  0.4630
 6665TIP3    H241411   1.903   1.174   2.928 -2.5755  1.7735  0.2870
 6666TIP3   OH241412   2.921   3.229  13.809  0.4213  0.0208  1.0871
 6666TIP3    H141413   2.917   3.144  13.852  1.0564  0.3644  1.8462
 6666TIP3    H241414   3.006   3.229  13.764 -0.9835 -1.0369 -1.6943
 6667TIP3   OH241415   5.939   6.375  17.174  0.5099 -0.2105 -0.1148
 6667TIP3    H141416   5.863   6.431  17.186 -2.8508 -4.3204 -1.0174
 6667TIP3    H241417   5.989   6.385  17.255 -0.5752  3.0855  0.2157
 6668TIP3   OH241418   5.061   4.318  17.191 -0.1725 -0.4959 -0.2812
 6668TIP3    H141419   5.052   4.313  17.286 -0.7359 -0.5960 -0.3343
 6668TIP3    H241420   5.100   4.234  17.166  0.7014 -0.1569 -0.0606
 6669TIP3   OH241421   2.975   1.252   3.812  0.3533 -0.0219  0.4509
 6669TIP3    H141422   2.988   1.328   3.868  0.9290  0.3427 -0.1723
 6669TIP3    H241423   2.941   1.288   3.730 -1.1574 -0.6188  0.8085
 6670TIP3   OH241424   6.517   6.597   0.003 -0.2114  0.3952 -0.0253
 6670TIP3    H141425   6.488   6.678  -0.039 -1.1824  0.3784  0.5989
 6670TIP3    H241426   6.555   6.546  -0.068  0.0975  1.2553 -0.4882
 6671TIP3   OH241427   1.555   0.727  13.617  0.0894 -0.6648 -0.1049
 6671TIP3    H141428   1.601   0.737  13.700  1.6893  1.0860 -1.1710
 6671TIP3    H241429   1.486   0.793  13.619 -0.8111 -1.6136  0.4418
 6672TIP3   OH241430   1.106   3.105   4.006 -0.3153  0.5009 -0.4098
 6672TIP3    H141431   1.059   3.182   4.038 -1.1522  0.0872 -0.6161
 6672TIP3    H241432   1.124   3.053   4.085 -1.1870  0.1288 -0.4513
 6673TIP3   OH241433   2.553   0.015   6.436  0.1191 -0.0493 -0.3685
 6673TIP3    H141434   2.536  -0.063   6.383 -1.3251 -0.4055  0.5949
 6673TIP3    H241435   2.567  -0.019   6.525 -1.0537  0.8083  0.1670
 6674TIP3   OH241436   2.362   0.639  15.822  0.6799 -0.1283  0.3211
 6674TIP3    H141437   2.353   0.646  15.917 -1.1939  3.0217 -0.0189
 6674TIP3    H241438   2.272   0.639  15.790  1.3342  0.6519 -1.5431
 6675TIP3   OH241439   1.015   0.942  13.135 -0.3027  0.7953 -0.0045
 6675TIP3    H141440   1.032   0.988  13.053 -0.9467 -0.6549 -0.9575
 6675TIP3    H241441   1.100   0.908  13.162  0.2447  2.7826  0.8779
 6676TIP3   OH241442   5.728   3.104   4.293 -0.4556  0.1361 -0.2908
 6676TIP3    H141443   5.653   3.072   4.243  1.1178 -2.0545 -1.3676
 6676TIP3    H241444   5.788   3.137   4.226 -0.4737  1.9034  0.5564
 6677TIP3   OH241445   5.387   2.307  12.169 -0.1120  0.2738 -0.3489
 6677TIP3    H141446   5.469   2.305  12.120 -1.0695  0.7966 -2.0280
 6677TIP3    H241447   5.412   2.290  12.260  1.7804 -0.0621 -0.9218
 6678TIP3   OH241448   2.595   1.510  16.085 -0.0311  0.0827 -0.5516
 6678TIP3    H141449   2.626   1.550  16.004 -0.8139 -0.1182 -0.9502
 6678TIP3    H241450   2.655   1.436  16.100  0.7104  0.7066 -0.4169
 6679TIP3   OH241451   3.572   3.362  14.392  0.2016  0.1602 -0.6381
 6679TIP3    H141452   3.499   3.316  14.351  0.6498 -0.2218 -1.0116
 6679TIP3    H241453   3.623   3.398  14.319  0.5894  0.1186 -0.3932
 6680TIP3   OH241454   3.058   3.952   3.680  0.2378  0.2484 -0.6250
 6680TIP3    H141455   3.008   3.986   3.755  2.0650  0.3280  0.5970
 6680TIP3    H241456   3.042   3.858   3.682 -0.7236  0.3952 -0.9159
 6681TIP3   OH241457   1.536   1.339  16.510  0.4708  0.2404 -0.2162
 6681TIP3    H141458   1.459   1.322  16.456  0.3532  0.4590 -0.1203
 6681TIP3    H241459   1.523   1.285  16.588 -0.1435  1.1388  0.3091
 6682TIP3   OH241460   1.220   5.365   0.824  0.5750 -0.0404  0.1108
 6682TIP3    H141461   1.308   5.334   0.845  0.7088 -0.3798 -0.9118
 6682TIP3    H241462   1.212   5.352   0.730 -0.7822 -0.5647  0.2861
 6683TIP3   OH241463   4.478   3.544  13.941  0.3410  0.2261  0.5890
 6683TIP3    H141464   4.472   3.452  13.914  1.5863  0.4352 -0.4389
 6683TIP3    H241465   4.557   3.577  13.898 -0.3740  1.9253  0.5330
 6684TIP3   OH241466   5.019   0.668   6.642  0.0023  0.4326 -1.0520
 6684TIP3    H141467   5.072   0.728   6.695 -1.5130 -1.2502  2.5055
 6684TIP3    H241468   5.083   0.614   6.596  1.3691  0.1912  1.0974
 6685TIP3   OH241469   4.020   6.244   5.000 -0.2041 -0.4316 -0.3082
 6685TIP3    H141470   4.026   6.186   5.076  1.7237 -1.4637 -1.2373
 6685TIP3    H241471   4.109   6.250   4.966 -1.3232 -1.4567 -3.6082
 6686TIP3   OH241472   6.157   2.409   2.352 -0.0134  0.4340 -0.3382
 6686TIP3    H141473   6.155   2.500   2.381  1.3636  0.0067  1.1617
 6686TIP3    H241474   6.163   2.358   2.432  1.2085 -0.8990 -1.2438
 6687TIP3   OH241475   1.186   6.220   2.352 -0.0144  0.1221 -0.1359
 6687TIP3    H141476   1.198   6.259   2.439  0.9090  1.0287 -0.6690
 6687TIP3    H241477   1.104   6.171   2.360  0.1052  0.1153  1.2782
 6688TIP3   OH241478   6.165   5.620   5.163  0.4989  0.3351 -0.4798
 6688TIP3    H141479   6.220   5.667   5.225  0.1288  0.7153 -0.4426
 6688TIP3    H241480   6.153   5.534   5.203  0.7429  0.3793 -0.3050
 6689TIP3   OH241481   1.496   4.583  14.152 -0.0920 -0.2341 -0.3743
 6689TIP3    H141482   1.489   4.544  14.065 -1.6699 -1.2909  0.2085
 6689TIP3    H241483   1.585   4.561  14.182  0.2181 -0.4315 -1.4382
 6690TIP3   OH241484   5.433   3.017  14.676  0.6371 -0.3665  0.0506
 6690TIP3    H141485   5.501   3.017  14.744  0.2585  0.2265  0.4308
 6690TIP3    H241486   5.357   2.978  14.718  0.1334  0.7994  0.2497
 6691TIP3   OH241487   1.302   0.507  13.872 -0.4739 -0.7121  0.0903
 6691TIP3    H141488   1.377   0.470  13.826 -0.8952 -0.4954 -0.7704
 6691TIP3    H241489   1.226   0.481  13.820 -1.0102 -0.9738  0.9793
 6692TIP3   OH241490   2.802   2.431   5.618 -0.4265 -0.4840 -0.1237
 6692TIP3    H141491   2.833   2.432   5.527 -0.1498 -0.0532 -0.0250
 6692TIP3    H241492   2.865   2.486   5.665 -1.9710  1.2984 -0.1168
 6693TIP3   OH241493   1.250   3.344  12.019 -0.0236 -0.3614 -0.5183
 6693TIP3    H141494   1.330   3.384  12.054 -2.2836  1.6482  2.5456
 6693TIP3    H241495   1.216   3.408  11.957 -0.0761 -0.5457 -0.6823
 6694TIP3   OH241496   0.291   2.806   3.077  0.3179 -0.1892 -0.1199
 6694TIP3    H141497   0.292   2.765   3.163  1.7757  2.1972  1.0640
 6694TIP3    H241498   0.323   2.739   3.017  0.6851 -1.4170  1.4319
 6695TIP3   OH241499   6.049   3.602   3.266  0.2470 -0.0081 -0.4309
 6695TIP3    H141500   6.125   3.614   3.209  0.5916 -0.2608 -0.0242
 6695TIP3    H241501   5.997   3.535   3.223  0.2789  0.1318 -0.6877
 6696TIP3   OH241502   0.727   3.147   0.868  0.2970  0.7027  0.1157
 6696TIP3    H141503   0.699   3.073   0.814  2.3549  0.6829 -0.9481
 6696TIP3    H241504   0.750   3.215   0.805  0.2533  1.5843  1.0436
 6697TIP3   OH241505   0.522   6.184   4.722 -0.1802  0.6433  0.0670
 6697TIP3    H141506   0.589   6.162   4.787 -0.3587  0.4615  0.1898
 6697TIP3    H241507   0.448   6.217   4.774 -0.6753 -0.3929  0.0188
 6698TIP3   OH241508   5.431   0.719   0.145 -0.5956 -0.5552 -0.0347
 6698TIP3    H141509   5.360   0.740   0.085  0.5247  3.1054 -0.1635
 6698TIP3    H241510   5.406   0.761   0.227  0.0226 -1.7835  0.8020
 6699TIP3   OH241511   0.019   6.045   0.143 -0.2922  0.0659  0.3986
 6699TIP3    H141512  -0.006   6.120   0.089  1.9260  0.5034 -0.0619
 6699TIP3    H241513   0.018   6.078   0.232 -1.2337  0.0961  0.3847
 6700TIP3   OH241514   5.774   6.748  10.990 -0.4293  0.1156  0.3511
 6700TIP3    H141515   5.799   6.814  10.924 -1.9668 -1.8122 -2.2222
 6700TIP3    H241516   5.689   6.778  11.023 -0.1066  0.5676  0.7861
 6701TIP3   OH241517   2.498   4.522   3.199  0.5314  0.1814 -0.5073
 6701TIP3    H141518   2.593   4.513   3.192  0.4209 -1.7945  0.1646
 6701TIP3    H241519   2.483   4.555   3.288  0.5179 -1.1379 -0.0080
 6702TIP3   OH241520   1.579   6.719  15.078 -0.1881  0.2446 -0.1392
 6702TIP3    H141521   1.549   6.777  15.009 -0.9697 -0.7157 -0.6155
 6702TIP3    H241522   1.597   6.777  15.152  0.2073  1.2217 -0.9834
 6703TIP3   OH241523   0.163   3.502  15.824 -0.0056  0.6025  0.2560
 6703TIP3    H141524   0.240   3.510  15.880  0.2786  0.9340 -0.1870
 6703TIP3    H241525   0.195   3.467  15.741 -0.8763 -2.9966  1.3279
 6704TIP3   OH241526   6.199   6.350  16.046 -0.2414  0.0156 -0.1115
 6704TIP3    H141527   6.220   6.270  15.997 -0.0781 -0.8624  1.3721
 6704TIP3    H241528   6.262   6.415  16.014  1.4286 -1.2047  0.6391
 6705TIP3   OH241529   1.887   3.682   2.422 -0.6850  0.1637  0.0042
 6705TIP3    H141530   1.876   3.741   2.347 -1.4506  1.6491  1.2278
 6705TIP3    H241531   1.797   3.666   2.452 -0.5794 -2.8060 -1.1541
 6706TIP3   OH241532   1.143   2.954  10.227  0.2705 -0.2594 -0.0094
 6706TIP3    H141533   1.161   2.864  10.253 -0.4943 -0.9408 -1.7848
 6706TIP3    H241534   1.075   2.983  10.288 -0.8446 -1.5187 -0.6374
 6707TIP3   OH241535   4.802   3.220  11.381  0.2199 -0.2199  0.6008
 6707TIP3    H141536   4.766   3.309  11.377  1.3786  0.2991  1.6717
 6707TIP3    H241537   4.776   3.181  11.297  0.4835  1.4248 -0.2752
 6708TIP3   OH241538   1.994   6.610   0.229 -0.1075  0.1019 -0.3875
 6708TIP3    H141539   2.006   6.548   0.302 -0.8477  0.9149  0.4365
 6708TIP3    H241540   1.959   6.556   0.158 -3.0051 -0.0494  1.0581
 6709TIP3   OH241541   0.139   2.307  16.384 -0.2374  0.8150 -0.8968
 6709TIP3    H141542   0.086   2.387  16.395 -1.4560  0.0083 -0.8167
 6709TIP3    H241543   0.187   2.300  16.466 -1.2534  0.6615 -0.3032
 6710TIP3   OH241544   1.043   0.341  13.414  0.3331 -0.1536 -0.2477
 6710TIP3    H141545   0.973   0.403  13.392 -0.2237 -0.3505  0.9342
 6710TIP3    H241546   1.077   0.373  13.498  1.3844 -0.3026 -0.6113
 6711TIP3   OH241547   2.535   3.963  12.045 -0.3655  0.9452  0.2135
 6711TIP3    H141548   2.482   4.007  12.113 -0.2252 -0.0361  0.9692
 6711TIP3    H241549   2.476   3.956  11.970 -1.1970  0.2124  0.9195
 6712TIP3   OH241550   6.591   2.462  16.497  0.0901 -0.6644  0.2613
 6712TIP3    H141551   6.562   2.510  16.420  0.2122  2.6658  2.2040
 6712TIP3    H241552   6.535   2.384  16.499 -0.9402 -0.0393 -2.2912
 6713TIP3   OH241553   3.284   3.059  13.195  0.0016 -0.0310  0.0056
 6713TIP3    H141554   3.270   3.034  13.286  0.3794  0.0247  0.0792
 6713TIP3    H241555   3.227   3.001  13.145  1.4989 -1.6246  0.1111
 6714TIP3   OH241556   3.228   6.630   3.435  0.2480 -0.0438 -0.3067
 6714TIP3    H141557   3.261   6.555   3.485  0.0455  0.1047  0.0461
 6714TIP3    H241558   3.202   6.694   3.501  1.0068  0.5926 -0.6117
 6715TIP3   OH241559   0.208   6.049  12.677  0.0493  0.0393 -0.2665
 6715TIP3    H141560   0.144   6.071  12.745  0.7656 -0.7169  0.6750
 6715TIP3    H241561   0.177   5.966  12.641 -0.1052  0.2316 -0.5756
 6716TIP3   OH241562   4.023   2.977  12.116 -0.1562  0.0006 -0.7241
 6716TIP3    H141563   4.078   2.962  12.193 -0.9944  2.9670  0.5146
 6716TIP3    H241564   4.078   3.027  12.056 -0.4408  0.1725 -0.8409
 6717TIP3   OH241565   3.234   5.604  14.535 -0.1636 -0.8403 -0.1829
 6717TIP3    H141566   3.149   5.568  14.513 -0.0874 -0.0249 -1.8332
 6717TIP3    H241567   3.270   5.635  14.452  0.9791  0.4444  0.7611
 6718TIP3   OH241568   4.185   6.381  11.760 -0.0510 -0.7737  0.2133
 6718TIP3    H141569   4.222   6.462  11.796  0.8976 -1.5298  0.9485
 6718TIP3    H241570   4.196   6.390  11.665 -1.3250  0.6188  0.1754
 6719TIP3   OH241571   3.750   2.170   0.772 -0.1596 -0.0474  0.1286
 6719TIP3    H141572   3.745   2.089   0.723 -1.1340 -0.3685  0.7478
 6719TIP3    H241573   3.780   2.143   0.859 -1.7366  0.0974  0.7185
 6720TIP3   OH241574   4.631   5.063   1.794  0.7599  0.2327  0.1462
 6720TIP3    H141575   4.565   5.132   1.799  0.5822  0.0632  0.1147
 6720TIP3    H241576   4.697   5.089   1.859  0.3937  0.1099  0.5688
 6721TIP3   OH241577   2.210   4.696  11.945  0.1805 -0.4170 -0.1368
 6721TIP3    H141578   2.117   4.713  11.959  0.7170  2.2264  0.5578
 6721TIP3    H241579   2.213   4.633  11.873 -2.1122  0.0014 -0.6131
 6722TIP3   OH241580   5.846   5.855  11.581 -0.5103  0.2910  0.2890
 6722TIP3    H141581   5.928   5.856  11.531  0.3990  0.4404  1.7483
 6722TIP3    H241582   5.828   5.762  11.596 -0.1555  0.2759  0.6562
 6723TIP3   OH241583   5.388   5.976  14.250  0.3148 -0.2882  0.0862
 6723TIP3    H141584   5.295   5.961  14.234  0.3590  1.0544 -1.6298
 6723TIP3    H241585   5.433   5.937  14.175  0.8988  1.6825 -0.6372
 6724TIP3   OH241586   0.320   5.147   0.918  0.4173  0.1003 -0.4356
 6724TIP3    H141587   0.256   5.075   0.919  0.3199  0.1795  2.6001
 6724TIP3    H241588   0.391   5.114   0.863 -0.6110 -1.4432 -0.8886
 6725TIP3   OH241589   4.038   0.999   1.984 -0.3448  0.2774 -0.1755
 6725TIP3    H141590   4.041   0.999   2.079  0.3743  2.0747 -0.1714
 6725TIP3    H241591   3.960   0.949   1.961 -0.3285 -0.4507  1.3442
 6726TIP3   OH241592   0.343   0.881   6.301  0.4365  0.0409  0.6842
 6726TIP3    H141593   0.258   0.922   6.287  0.6899  0.9227  1.7089
 6726TIP3    H241594   0.335   0.795   6.258 -1.1977 -0.1652  1.3671
 6727TIP3   OH241595   0.420   6.196   6.285 -0.3032 -0.1385  0.2258
 6727TIP3    H141596   0.331   6.210   6.253 -0.4609 -0.8258  0.3485
 6727TIP3    H241597   0.435   6.267   6.348 -0.9344 -0.2923  0.5542
 6728TIP3   OH241598   5.580   4.678  13.174  0.1960  0.3216 -0.1703
 6728TIP3    H141599   5.661   4.628  13.164 -0.3702 -1.4030  3.0425
 6728TIP3    H241600   5.595   4.758  13.124  2.9252 -1.0489 -1.6531
 6729TIP3   OH241601   2.014   1.336   0.390 -0.2172  0.0411 -0.0128
 6729TIP3    H141602   1.962   1.392   0.332 -2.1536 -1.2618  0.4215
 6729TIP3    H241603   2.105   1.352   0.364 -0.8963  1.5059 -1.5547
 6730TIP3   OH241604   0.364   2.698  13.759  0.5831  0.0727 -0.0790
 6730TIP3    H141605   0.412   2.695  13.677  0.4768  1.1686 -0.1777
 6730TIP3    H241606   0.402   2.626  13.811  2.4613  1.0094 -0.0875
 6731TIP3   OH241607   5.196   1.425   5.156 -0.2290 -0.9418 -0.0685
 6731TIP3    H141608   5.178   1.367   5.230  0.3211  0.4975  1.2022
 6731TIP3    H241609   5.178   1.513   5.189  0.2138 -0.2662 -1.5827
 6732TIP3   OH241610   5.372   0.514  13.645  0.2828 -0.4350 -0.4822
 6732TIP3    H141611   5.319   0.435  13.641 -3.2863  1.8703 -1.5367
 6732TIP3    H241612   5.371   0.540  13.737  0.1287 -0.7571 -0.3938
 6733TIP3   OH241613   5.752   5.666   5.444  0.0491  0.2946  0.1262
 6733TIP3    H141614   5.682   5.672   5.510 -2.0419 -2.0129 -1.7942
 6733TIP3    H241615   5.709   5.689   5.362  1.3573 -1.8567 -1.2064
 6734TIP3   OH241616   0.795   3.311  11.649  0.2973  0.0722  0.1939
 6734TIP3    H141617   0.708   3.328  11.614 -0.2637 -0.0559  1.4876
 6734TIP3    H241618   0.836   3.398  11.654 -0.2272  0.2885  0.7839
 6735TIP3   OH241619   1.223   0.050   2.607  0.0483  0.2904 -0.2984
 6735TIP3    H141620   1.261   0.120   2.554 -2.2923  1.2482 -0.7865
 6735TIP3    H241621   1.165   0.003   2.547 -1.0272  0.0938  0.8705
 6736TIP3   OH241622   0.113   3.908  11.563 -0.2895  0.1050 -0.2966
 6736TIP3    H141623   0.114   3.998  11.595 -0.8423  0.0891 -0.2367
 6736TIP3    H241624   0.090   3.917  11.470 -0.8222 -0.0134 -0.1728
 6737TIP3   OH241625   5.315   6.258  15.208  0.0799 -0.0948  0.0860
 6737TIP3    H141626   5.303   6.340  15.256  1.8297 -0.8727  1.9220
 6737TIP3    H241627   5.335   6.286  15.118 -0.6596  1.4448  0.3869
 6738TIP3   OH241628   6.098   2.912  11.011  0.1726 -0.2127 -0.2564
 6738TIP3    H141629   6.160   2.848  10.976  0.1501  0.5089 -1.6767
 6738TIP3    H241630   6.043   2.935  10.936  0.6676  2.0439  0.0464
 6739TIP3   OH241631   2.013   0.692  16.825 -0.0556 -0.1938 -0.0128
 6739TIP3    H141632   2.044   0.777  16.793  0.0363 -0.0115  0.5502
 6739TIP3    H241633   2.091   0.652  16.864 -0.0597 -0.6093 -0.4182
 6740TIP3   OH241634   5.778   0.451  11.472 -0.4629 -0.5270  0.3990
 6740TIP3    H141635   5.697   0.488  11.507  0.4216  3.1084 -1.1571
 6740TIP3    H241636   5.749   0.392  11.403 -1.8438  3.2061 -2.4060
 6741TIP3   OH241637   2.751   2.494   3.376  0.4383  0.0356 -0.0692
 6741TIP3    H141638   2.777   2.503   3.467  0.5341  1.7071 -0.2394
 6741TIP3    H241639   2.763   2.582   3.339 -1.0290 -0.2681 -1.3076
 6742TIP3   OH241640   5.898   0.986   3.207  0.0338  0.6252  0.1125
 6742TIP3    H141641   5.892   0.972   3.113  0.7519 -2.1092  0.4503
 6742TIP3    H241642   5.808   0.975   3.239 -0.2875  1.9907 -0.2813
 6743TIP3   OH241643   2.613   3.899   2.293  0.1824 -0.0282  0.4248
 6743TIP3    H141644   2.632   3.963   2.224 -0.4439 -1.2876 -0.9573
 6743TIP3    H241645   2.528   3.926   2.328 -0.7112 -0.7981 -1.0491
 6744TIP3   OH241646   5.522   1.385  12.634 -0.0456 -0.0328  0.1352
 6744TIP3    H141647   5.587   1.447  12.599  0.1728  0.0083  0.6052
 6744TIP3    H241648   5.450   1.389  12.571  1.0766 -1.2947 -1.2654
 6745TIP3   OH241649   4.848   1.456  17.192  0.4672 -0.2566 -0.6992
 6745TIP3    H141650   4.877   1.488  17.107 -0.4151  0.3214 -0.7991
 6745TIP3    H241651   4.786   1.523  17.222 -0.4652 -1.2676 -0.3466
 6746TIP3   OH241652   3.139   4.360  16.456 -0.2848  0.9148  0.1394
 6746TIP3    H141653   3.164   4.431  16.516  0.2103  1.4247 -0.6557
 6746TIP3    H241654   3.045   4.374  16.441 -0.7484 -0.1720  2.0380
 6747TIP3   OH241655   5.562   3.362   2.527  0.3633 -0.5496  0.3387
 6747TIP3    H141656   5.560   3.297   2.597  0.9606 -0.9884 -0.0545
 6747TIP3    H241657   5.627   3.330   2.465 -1.0021 -0.7811 -1.0257
 6748TIP3   OH241658   4.856   2.754   0.062 -0.3778  0.1324 -0.4172
 6748TIP3    H141659   4.933   2.696   0.063 -0.2798  0.2731  0.2267
 6748TIP3    H241660   4.783   2.695   0.042 -0.1313 -0.0326 -0.8516
 6749TIP3   OH241661   0.722   3.129   4.653  0.1515  0.3784 -0.1747
 6749TIP3    H141662   0.683   3.099   4.570 -0.3107 -0.2492  0.2684
 6749TIP3    H241663   0.648   3.160   4.704  0.2964 -0.3416  0.4729
 6750TIP3   OH241664   2.958   5.573  14.744  0.4293  0.0965 -0.9557
 6750TIP3    H141665   2.914   5.536  14.667  1.0306 -0.8110 -0.8625
 6750TIP3    H241666   2.886   5.599  14.802 -0.0753  2.1366 -2.4306
 6751TIP3   OH241667   5.180   3.138   4.653 -0.2461 -0.0671  0.8331
 6751TIP3    H141668   5.276   3.139   4.653 -0.0315 -4.5295 -2.0247
 6751TIP3    H241669   5.156   3.127   4.745  2.0143  0.2427  1.4946
 6752TIP3   OH241670   2.703   3.968   5.680 -0.7226  0.2104  0.2024
 6752TIP3    H141671   2.660   3.965   5.766 -0.7873 -0.0286  0.1609
 6752TIP3    H241672   2.630   3.966   5.618 -0.7073  1.1101  0.1549
 6753TIP3   OH241673   4.621   4.508   0.417  0.1686  0.3305 -0.4127
 6753TIP3    H141674   4.571   4.541   0.342  0.2599 -1.6853 -1.3941
 6753TIP3    H241675   4.692   4.572   0.428 -2.1175  2.7850  0.5068
 6754TIP3   OH241676   0.800   6.494   0.799  0.1535  0.1025  0.1240
 6754TIP3    H141677   0.735   6.424   0.810  1.4311 -1.4841 -2.0271
 6754TIP3    H241678   0.752   6.564   0.755 -0.4531 -0.5394 -0.2555
 6755TIP3   OH241679   2.974   5.633  12.428 -0.0678 -0.1061 -0.6025
 6755TIP3    H141680   3.065   5.614  12.403  0.5452 -1.0164  2.2154
 6755TIP3    H241681   2.928   5.551  12.414 -0.2451  0.0486 -0.9541
 6756TIP3   OH241682   4.090   0.392  16.986 -0.0420  0.3490 -0.3952
 6756TIP3    H141683   4.030   0.324  17.015  1.8141 -0.1215  2.5803
 6756TIP3    H241684   4.129   0.358  16.905 -0.9302 -1.0375 -0.2501
 6757TIP3   OH241685   5.534   2.986   1.221  0.5993 -0.2159  0.7339
 6757TIP3    H141686   5.572   2.960   1.305  2.2415 -0.4107 -0.0491
 6757TIP3    H241687   5.608   3.021   1.171 -0.0456 -1.4746 -1.1813
 6758TIP3   OH241688   0.251   4.852  16.420 -0.0037 -0.6681 -0.5040
 6758TIP3    H141689   0.338   4.888  16.403 -1.2926  2.3653 -1.0292
 6758TIP3    H241690   0.208   4.917  16.475 -2.1159 -1.8713 -0.6619
 6759TIP3   OH241691   2.530   0.075   2.648 -0.1349  0.4463  0.0432
 6759TIP3    H141692   2.593   0.003   2.645  0.1514  0.7307 -0.7864
 6759TIP3    H241693   2.483   0.062   2.730  0.2866 -0.3749  0.1585
 6760TIP3   OH241694   4.013   1.076  14.173 -0.2592 -0.1165 -0.0439
 6760TIP3    H141695   3.925   1.107  14.198 -0.0615  0.4976 -0.0937
 6760TIP3    H241696   4.032   1.123  14.091 -0.4409 -1.2647 -0.7569
 6761TIP3   OH241697   4.031   5.778  11.108  0.3102  0.3572 -0.1603
 6761TIP3    H141698   4.082   5.771  11.027 -0.9116 -1.1376 -0.8225
 6761TIP3    H241699   4.085   5.735  11.174  1.6578  2.2543  0.0188
 6762TIP3   OH241700   5.936   2.629   4.753  0.0811 -0.6186 -0.4820
 6762TIP3    H141701   6.026   2.644   4.779 -0.3261  0.0999  0.5689
 6762TIP3    H241702   5.888   2.620   4.836 -0.6687 -1.8511 -1.0263
 6763TIP3   OH241703   0.603   1.499   5.206  0.4487 -0.0748 -0.0265
 6763TIP3    H141704   0.547   1.456   5.141 -2.0444  0.2169  1.8341
 6763TIP3    H241705   0.658   1.558   5.155 -0.5071 -0.8403 -1.9925
 6764TIP3   OH241706   2.844   1.567   0.944 -0.0469  0.1136 -0.1716
 6764TIP3    H141707   2.820   1.524   1.027  0.6095 -0.5991 -0.3500
 6764TIP3    H241708   2.845   1.660   0.966  1.3277 -0.1404  0.9430
 6765TIP3   OH241709   3.893   1.133  14.540 -0.5089  0.3371 -0.3560
 6765TIP3    H141710   3.854   1.153  14.454 -0.6426  1.0034 -0.1432
 6765TIP3    H241711   3.987   1.148  14.527 -0.3440 -1.0107 -0.7945
 6766TIP3   OH241712   2.694   0.006   1.738 -0.1999  0.0604  0.4170
 6766TIP3    H141713   2.678   0.099   1.720 -1.4252 -0.4366 -1.1470
 6766TIP3    H241714   2.788  -0.005   1.726 -0.2473  0.8283 -0.7660
 6767TIP3   OH241715   4.663   4.178  14.676 -0.3420 -0.0244 -0.0705
 6767TIP3    H141716   4.579   4.218  14.658  0.1211  0.4998 -1.1056
 6767TIP3    H241717   4.643   4.086  14.693 -1.0463 -0.0453 -1.0098
 6768TIP3   OH241718   1.686   3.372   2.331  0.3229  0.0723 -0.1778
 6768TIP3    H141719   1.681   3.426   2.410 -0.3273  0.7251 -0.6557
 6768TIP3    H241720   1.616   3.405   2.275  0.8352 -0.3214 -1.0698
 6769TIP3   OH241721   3.341   4.943   4.318 -0.3104  0.0515 -0.2510
 6769TIP3    H141722   3.277   4.960   4.249  0.3084 -0.0303 -0.8558
 6769TIP3    H241723   3.411   4.894   4.274 -1.0120 -2.0590  0.9892
 6770TIP3   OH241724   2.696   1.580  15.080 -0.3248  0.1552  0.4035
 6770TIP3    H141725   2.702   1.674  15.099 -1.7440  0.1663  0.8681
 6770TIP3    H241726   2.785   1.548  15.088 -0.2200  0.9586  2.9033
 6771TIP3   OH241727   0.750   1.644   4.351  0.4831 -0.4063 -0.5783
 6771TIP3    H141728   0.836   1.684   4.369 -0.2500  0.8158  0.3036
 6771TIP3    H241729   0.687   1.713   4.372 -0.7510 -1.4834 -0.6929
 6772TIP3   OH241730   5.112   4.920   3.471 -0.2165 -0.1124  0.1450
 6772TIP3    H141731   5.071   4.970   3.543 -0.6228  0.5969 -0.5678
 6772TIP3    H241732   5.201   4.904   3.501 -0.6077 -0.4835  1.1404
 6773TIP3   OH241733   0.324   5.768  16.057 -0.6512  0.5185  0.1304
 6773TIP3    H141734   0.368   5.707  16.116  0.7882  2.5218  1.1803
 6773TIP3    H241735   0.379   5.769  15.978 -0.5283  0.6530  0.2163
 6774TIP3   OH241736   0.891   2.753   4.675  0.2086  0.1011  0.2450
 6774TIP3    H141737   0.927   2.796   4.752 -1.6049  2.1487 -0.0070
 6774TIP3    H241738   0.802   2.728   4.700  0.3810 -1.2834 -0.4555
 6775TIP3   OH241739   6.523   2.873  13.435 -0.4981 -0.0021 -0.0087
 6775TIP3    H141740   6.429   2.876  13.450 -0.2517  0.1941  1.5642
 6775TIP3    H241741   6.561   2.869  13.522  0.9534 -0.0775 -0.6343
 6776TIP3   OH241742   5.924   4.045  15.519 -0.1423  0.6917 -0.2362
 6776TIP3    H141743   5.885   3.984  15.581  1.0006 -0.1835 -0.3596
 6776TIP3    H241744   6.010   4.008  15.499  0.4667  2.2064 -0.5209
 6777TIP3   OH241745   4.197   2.838   0.335  0.2189 -0.0829  0.1626
 6777TIP3    H141746   4.125   2.852   0.274  1.3367  0.8141 -0.9649
 6777TIP3    H241747   4.196   2.744   0.353 -1.5172 -0.0179  0.5314
 6778TIP3   OH241748   3.348   3.554  15.086  0.1509  0.4311 -0.0131
 6778TIP3    H141749   3.381   3.486  15.143 -1.6933 -0.1177  0.4476
 6778TIP3    H241750   3.421   3.615  15.075  1.1208 -0.4814  1.3375
 6779TIP3   OH241751   5.685   0.340   0.970 -0.1371 -0.7690 -0.0248
 6779TIP3    H141752   5.750   0.296   1.025 -0.4027  0.6010  1.4623
 6779TIP3    H241753   5.737   0.388   0.905  0.3397 -0.1136  0.8222
 6780TIP3   OH241754   3.813   1.027   0.120 -0.1875  0.0645 -0.0241
 6780TIP3    H141755   3.821   1.121   0.102  0.0414  0.3835  1.6627
 6780TIP3    H241756   3.720   1.015   0.140  0.2529  0.4163  2.3145
 6781TIP3   OH241757   1.479   3.460  16.050 -0.0146  0.1666  0.0592
 6781TIP3    H141758   1.394   3.484  16.087  0.9763  2.0943  1.2054
 6781TIP3    H241759   1.478   3.497  15.962  0.1006  1.3394  0.5341
 6782TIP3   OH241760   4.984   5.084  15.146 -0.5104 -0.1899 -0.3170
 6782TIP3    H141761   4.919   5.037  15.197 -0.2350  1.2725  1.4420
 6782TIP3    H241762   4.935   5.154  15.103 -0.3539  0.0503 -0.1111
 6783TIP3   OH241763   2.315   0.187  16.960  0.1253 -0.2597  0.1290
 6783TIP3    H141764   2.298   0.258  16.899 -0.4542 -0.1386  0.4260
 6783TIP3    H241765   2.293   0.223  17.046  4.3808  0.7625  0.8872
 6784TIP3   OH241766   4.349   3.836  12.993 -0.1561 -0.1450 -0.0865
 6784TIP3    H141767   4.423   3.883  12.955 -0.3113  0.7032  0.6482
 6784TIP3    H241768   4.341   3.756  12.940 -1.8429  2.1124 -3.4323
 6785TIP3   OH241769   1.563   0.572  15.497 -0.1146  0.4387  0.3456
 6785TIP3    H141770   1.593   0.583  15.587  0.0707  1.7426  0.1383
 6785TIP3    H241771   1.613   0.498  15.463  0.3500  0.4166  1.0837
 6786TIP3   OH241772   0.442   0.430   5.934 -0.8452  0.1205 -0.1782
 6786TIP3    H141773   0.526   0.453   5.895 -1.1665 -0.0053 -0.9439
 6786TIP3    H241774   0.425   0.341   5.905 -1.0706  0.0091  0.2839
 6787TIP3   OH241775   1.215   2.263   4.671  0.3880  0.1988  0.1629
 6787TIP3    H141776   1.132   2.311   4.667 -0.6780 -1.3891  2.1459
 6787TIP3    H241777   1.280   2.325   4.639 -0.9762  2.9347  2.5140
 6788TIP3   OH241778   3.978   4.891  16.035  0.3778 -0.2539  0.2467
 6788TIP3    H141779   3.936   4.869  16.118 -0.6728  0.4308 -0.0932
 6788TIP3    H241780   3.950   4.981  16.018  1.0392 -0.2040 -0.5759
 6789TIP3   OH241781   3.249   0.337   4.839  0.0518  0.5711 -0.1414
 6789TIP3    H141782   3.291   0.415   4.803  0.8913  0.9451  1.5794
 6789TIP3    H241783   3.314   0.268   4.828  0.2554  0.6560  0.5073
 6790TIP3   OH241784   4.414   5.069  14.084 -0.4307  0.3543  0.5271
 6790TIP3    H141785   4.450   4.997  14.032 -0.2922  0.3409  0.6401
 6790TIP3    H241786   4.491   5.113  14.121 -0.5304  0.3479  0.7409
 6791TIP3   OH241787   3.492   0.521  13.503  0.0924  0.0844 -0.3592
 6791TIP3    H141788   3.437   0.577  13.447 -2.0277 -1.0859  0.4607
 6791TIP3    H241789   3.437   0.444  13.520  1.0540 -0.0085  2.5613
 6792TIP3   OH241790   1.764   3.482  11.399  0.2399 -0.0844  0.3727
 6792TIP3    H141791   1.694   3.531  11.355  1.4423  0.9443 -0.4220
 6792TIP3    H241792   1.720   3.436  11.470 -1.5662 -0.8826 -1.2218
 6793TIP3   OH241793   4.692   5.966  12.866  0.2280  0.3386 -0.5635
 6793TIP3    H141794   4.672   5.878  12.899  1.2680  0.7420  1.2139
 6793TIP3    H241795   4.704   5.954  12.772  1.8230 -1.6928 -0.1264
 6794TIP3   OH241796   4.816   0.578   3.130 -0.0562 -0.1464  0.1599
 6794TIP3    H141797   4.729   0.616   3.122  0.5589  1.5111  1.3043
 6794TIP3    H241798   4.860   0.601   3.048 -0.4373 -0.3897 -0.1180
 6795TIP3   OH241799   5.661   1.546  15.130 -0.2543  0.1444 -0.1268
 6795TIP3    H141800   5.680   1.511  15.217  3.3962 -0.0025 -0.9300
 6795TIP3    H241801   5.681   1.639  15.136  1.5704 -0.1555 -1.2090
 6796TIP3   OH241802   5.764   6.608   5.689 -0.2249  0.4640  0.1226
 6796TIP3    H141803   5.852   6.644   5.688 -0.3943  0.9660  1.7831
 6796TIP3    H241804   5.708   6.681   5.716 -1.2905  0.4249 -1.8607
 6797TIP3   OH241805   2.765   3.955  14.762  0.2825  0.4723  0.3502
 6797TIP3    H141806   2.794   3.951  14.853 -0.8225 -0.3548  0.6766
 6797TIP3    H241807   2.678   3.917  14.763  0.1304  0.7583 -1.0106
 6798TIP3   OH241808   5.512   2.690  17.188  0.3483  0.1934  0.0562
 6798TIP3    H141809   5.449   2.689  17.260 -0.9717  1.2594 -1.0511
 6798TIP3    H241810   5.466   2.646  17.116  1.8892 -1.4614  0.0267
 6799TIP3   OH241811   0.780   4.035  16.922 -0.4679  0.2795 -0.5773
 6799TIP3    H141812   0.772   4.103  16.855  0.8318 -1.6859 -2.8201
 6799TIP3    H241813   0.844   4.070  16.984 -2.0707  2.3490 -0.0408
 6800TIP3   OH241814   5.054   0.469  12.908  0.1835 -0.1442 -0.7682
 6800TIP3    H141815   5.133   0.520  12.892 -0.5186  1.1240 -0.2281
 6800TIP3    H241816   5.043   0.472  13.003  0.6506 -2.0892 -0.6264
 6801TIP3   OH241817   3.461   2.283  14.934  0.3807  0.0073  0.1255
 6801TIP3    H141818   3.466   2.238  14.850  0.3813 -1.5058  0.9095
 6801TIP3    H241819   3.426   2.370  14.913  0.7066 -0.2336 -1.4650
 6802TIP3   OH241820   5.339   2.445  13.600  0.9393  0.1074  0.0537
 6802TIP3    H141821   5.403   2.505  13.560  0.8745  0.7814  0.9216
 6802TIP3    H241822   5.278   2.503  13.645  0.3983 -0.5899  0.2203
 6803TIP3   OH241823   3.381   5.206  12.624 -0.3957 -0.0588  0.0113
 6803TIP3    H141824   3.442   5.280  12.617 -0.4396 -0.2191 -2.6182
 6803TIP3    H241825   3.420   5.148  12.688  0.6289  1.3392  0.6747
 6804TIP3   OH241826   6.135   0.396  16.747  0.4989 -0.6877  0.0790
 6804TIP3    H141827   6.153   0.391  16.840 -1.1966 -0.0168  0.4646
 6804TIP3    H241828   6.066   0.331  16.733 -0.4416  0.3982 -0.3944
 6805TIP3   OH241829   1.973   0.935   3.675  0.0178 -0.3213 -0.1019
 6805TIP3    H141830   1.988   1.029   3.683 -1.3622 -0.1931  1.0880
 6805TIP3    H241831   2.061   0.897   3.670  0.5972  0.9424  0.3942
 6806TIP3   OH241832   2.789   5.196  12.149 -0.2747 -0.6220  0.1340
 6806TIP3    H141833   2.714   5.250  12.123  0.1133  0.0789  0.4601
 6806TIP3    H241834   2.756   5.142  12.220 -0.3876 -0.0783  0.4994
 6807TIP3   OH241835   4.647   0.036   4.252 -1.1223 -0.2664  0.1473
 6807TIP3    H141836   4.688   0.093   4.187 -0.9519  0.2397  0.6947
 6807TIP3    H241837   4.597  -0.027   4.200 -0.4969 -0.2408 -0.4890
 6808TIP3   OH241838   3.792   2.888  14.020 -0.3856  0.0145  1.0178
 6808TIP3    H141839   3.843   2.958  13.978  1.8932 -0.8771  2.1891
 6808TIP3    H241840   3.704   2.898  13.986  0.9212  0.6232 -2.3865
 6809TIP3   OH241841   3.981   4.200   3.245 -0.0285 -0.5160 -0.1175
 6809TIP3    H141842   4.068   4.163   3.229  0.4898  0.6158  0.0321
 6809TIP3    H241843   3.964   4.257   3.170 -1.0856 -1.5048 -0.6513
 6810TIP3   OH241844   1.588   3.864  15.154  0.0057  0.0902  0.0129
 6810TIP3    H141845   1.512   3.884  15.209 -0.4705  1.1442 -1.0278
 6810TIP3    H241846   1.626   3.787  15.196 -2.4325 -1.3260 -0.2417
 6811TIP3   OH241847   6.117   0.538   1.394  0.3036  0.0892  0.1474
 6811TIP3    H141848   6.199   0.497   1.364  0.5559  0.9582 -0.3684
 6811TIP3    H241849   6.049   0.477   1.368  0.7822 -0.6381  0.5673
 6812TIP3   OH241850   5.547   5.841   1.375  0.3193 -0.0141  0.7265
 6812TIP3    H141851   5.462   5.827   1.335  0.9423 -0.1895 -0.5416
 6812TIP3    H241852   5.542   5.794   1.459 -0.6322 -0.4712  0.4167
 6813TIP3   OH241853   5.114   4.851   0.985 -0.1004 -0.2748 -0.2878
 6813TIP3    H141854   5.110   4.782   0.918 -1.6497 -0.6116  0.1329
 6813TIP3    H241855   5.076   4.928   0.942 -0.1834 -0.2207 -0.1173
 6814TIP3   OH241856   4.112   4.818  15.014  0.0991  0.0148  0.1846
 6814TIP3    H141857   4.153   4.743  15.058  0.1278  0.1948  0.4677
 6814TIP3    H241858   4.046   4.779  14.956  1.4578 -0.3447 -1.1300
 6815TIP3   OH241859   6.061   0.076  16.745 -0.0340  0.4017 -0.1218
 6815TIP3    H141860   6.085   0.125  16.823  0.5398 -0.1827  0.0725
 6815TIP3    H241861   6.033  -0.010  16.778  1.2452 -0.2262 -0.6267
 6816TIP3   OH241862   3.594   1.383   5.590  0.1070 -0.3395  0.4206
 6816TIP3    H141863   3.629   1.368   5.677  0.4839 -1.4350  0.0869
 6816TIP3    H241864   3.596   1.297   5.548 -1.1203 -0.0415 -0.2834
 6817TIP3   OH241865   2.151   4.692   1.773  0.1382  0.4660 -0.4667
 6817TIP3    H141866   2.190   4.774   1.742 -2.2310  1.6766 -0.4153
 6817TIP3    H241867   2.114   4.652   1.695 -0.0077  0.1880 -0.2552
 6818TIP3   OH241868   1.866   5.897   2.709  0.3131 -0.4483  0.1817
 6818TIP3    H141869   1.907   5.970   2.663 -0.5927 -0.8262 -1.2587
 6818TIP3    H241870   1.938   5.854   2.755  1.3877 -0.5212 -1.5114
 6819TIP3   OH241871   1.268   1.174   2.596 -0.3664 -0.5008 -0.5999
 6819TIP3    H141872   1.309   1.242   2.649  1.3759 -1.6530 -0.4135
 6819TIP3    H241873   1.217   1.123   2.659 -0.7420 -0.0623 -0.5466
 6820TIP3   OH241874   3.121   5.697   1.678 -0.7220  0.2749  0.4065
 6820TIP3    H141875   3.144   5.758   1.748 -0.3322  0.6029 -0.0034
 6820TIP3    H241876   3.136   5.746   1.597 -1.0836 -0.1308  0.0885
 6821TIP3   OH241877   1.259   2.766  14.980 -0.2796  0.0903  0.2813
 6821TIP3    H141878   1.339   2.795  14.937 -0.5292  1.1377  0.5245
 6821TIP3    H241879   1.268   2.798  15.070 -1.5415  1.2730 -0.0139
 6822TIP3   OH241880   6.104   0.424  15.343  0.1687  0.0979 -0.3888
 6822TIP3    H141881   6.025   0.447  15.392  0.3085 -1.4620  0.6055
 6822TIP3    H241882   6.077   0.429  15.251 -1.0636 -0.3097 -0.0619
 6823TIP3   OH241883   1.603   0.378  16.318  0.6682  0.4020 -0.2394
 6823TIP3    H141884   1.550   0.312  16.273  2.0328 -0.7261 -0.2456
 6823TIP3    H241885   1.628   0.440  16.250  0.3264  0.2903 -0.4656
 6824TIP3   OH241886   0.041   2.479   2.509  0.3588  0.2165  0.6566
 6824TIP3    H141887  -0.027   2.506   2.571  0.2050  0.0616  0.5561
 6824TIP3    H241888   0.070   2.561   2.468 -0.4630  0.1796 -0.0165
 6825TIP3   OH241889   4.907   0.961  14.691 -0.5073  0.6884 -0.1904
 6825TIP3    H141890   4.979   1.023  14.679  0.3175  0.1572  1.8239
 6825TIP3    H241891   4.924   0.921  14.776 -2.9214  0.1704  0.0621
 6826TIP3   OH241892   5.001   5.656  15.266  0.3065  0.4782 -0.1120
 6826TIP3    H141893   5.025   5.591  15.200  0.8522 -1.6444  2.1107
 6826TIP3    H241894   5.063   5.641  15.338 -2.2141  0.6026  2.1766
 6827TIP3   OH241895   4.400   5.045  16.968 -0.2475  0.0031  0.0769
 6827TIP3    H141896   4.358   4.991  17.035 -1.2906 -1.6127 -1.8228
 6827TIP3    H241897   4.348   5.125  16.965  0.3585  0.4864  1.8073
 6828TIP3   OH241898   1.651   6.681  12.164 -0.4407  0.1544  0.3974
 6828TIP3    H141899   1.606   6.764  12.175 -1.6007 -0.4867  0.5391
 6828TIP3    H241900   1.708   6.694  12.088 -1.1790  0.8313 -0.0387
 6829TIP3   OH241901   4.917   0.938  17.194  0.2599  0.0579  0.0663
 6829TIP3    H141902   5.002   0.934  17.239  0.1699 -0.5502  0.1785
 6829TIP3    H241903   4.938   0.917  17.103  0.2713  0.1841  0.0377
 6830TIP3   OH241904   6.000   4.468   3.980  0.0737 -0.1348 -0.6104
 6830TIP3    H141905   5.966   4.450   3.892 -0.1390  0.1684 -0.5901
 6830TIP3    H241906   5.960   4.551   4.005 -0.5389 -0.6394  0.1159
 6831TIP3   OH241907   3.708   0.901  12.268 -0.0027  0.1567 -0.1421
 6831TIP3    H141908   3.697   0.828  12.329  0.0342  0.1535 -0.1404
 6831TIP3    H241909   3.640   0.963  12.293 -0.0281  0.1274 -0.1387
 6832TIP3   OH241910   5.103   4.310   0.795 -0.3158  0.4080 -0.1846
 6832TIP3    H141911   5.153   4.262   0.861  0.5353  2.4026  0.6688
 6832TIP3    H241912   5.014   4.277   0.802 -0.5022  1.3729  2.7788
 6833TIP3   OH241913   3.263   5.588   5.073 -0.3036  0.1762  0.0622
 6833TIP3    H141914   3.302   5.504   5.101  0.1122  0.8423  1.5387
 6833TIP3    H241915   3.305   5.607   4.990  1.1500 -0.0535  0.7323
 6834TIP3   OH241916   2.143   2.329  16.473 -0.4582 -0.5887 -0.1293
 6834TIP3    H141917   2.230   2.354  16.506 -1.2258 -0.0135  1.5492
 6834TIP3    H241918   2.114   2.261  16.534 -1.2615 -0.6392 -0.5715
 6835TIP3   OH241919   4.172   0.076  14.397  0.2275  0.0975 -0.6686
 6835TIP3    H141920   4.261   0.112  14.396 -0.2601  1.3037 -0.5796
 6835TIP3    H241921   4.139   0.096  14.484  0.3934 -1.6802 -0.1748
 6836TIP3   OH241922   0.490   3.254   3.125  0.2550 -0.0518  0.2964
 6836TIP3    H141923   0.552   3.235   3.195 -1.3168 -1.0092  1.4456
 6836TIP3    H241924   0.476   3.170   3.081 -1.2524 -0.1333  0.9053
 6837TIP3   OH241925   2.234   4.946  13.372 -0.1441 -0.0575 -0.8217
 6837TIP3    H141926   2.285   4.927  13.450 -0.0639  0.0712 -0.8439
 6837TIP3    H241927   2.196   5.032  13.388 -0.0403  0.0149 -0.9720
 6838TIP3   OH241928   1.076   4.020  16.820 -0.5206  0.0355 -0.3788
 6838TIP3    H141929   1.116   4.101  16.852 -1.9458  1.0438 -1.0970
 6838TIP3    H241930   1.126   4.000  16.741  0.1212 -0.0396  0.0350
 6839TIP3   OH241931   4.791   6.131   0.640 -0.4958  0.0244  0.6091
 6839TIP3    H141932   4.862   6.078   0.676 -0.2267 -0.5203 -0.7034
 6839TIP3    H241933   4.752   6.174   0.716  2.0776  1.3577  1.2148
 6840TIP3   OH241934   5.209   4.992  13.343 -0.7797 -0.8127  0.5445
 6840TIP3    H141935   5.133   4.938  13.322 -0.4958 -1.6595  1.6409
 6840TIP3    H241936   5.276   4.965  13.279 -0.2974 -2.5274  1.7386
 6841TIP3   OH241937   0.739   1.534  13.726 -0.4992 -0.2332  0.0644
 6841TIP3    H141938   0.776   1.525  13.814 -1.6799 -0.1690  0.5763
 6841TIP3    H241939   0.746   1.627  13.706 -0.2344 -0.2478  0.0870
 6842TIP3   OH241940   4.241   5.255  12.623  0.1153 -0.0635 -0.8079
 6842TIP3    H141941   4.217   5.293  12.538 -0.5887 -0.6527 -0.8822
 6842TIP3    H241942   4.177   5.291  12.684  0.4205  0.1016 -0.5832
 6843TIP3   OH241943   3.312   5.829   3.124  0.0841  0.1424 -0.2494
 6843TIP3    H141944   3.269   5.829   3.209  1.1612 -1.1487  0.3221
 6843TIP3    H241945   3.249   5.871   3.065 -0.7015  0.9841  1.1553
 6844TIP3   OH241946   2.860   1.517   0.045  0.0586  0.4422  0.3370
 6844TIP3    H141947   2.909   1.548   0.122  0.4276 -0.5685  0.5173
 6844TIP3    H241948   2.769   1.537   0.066  0.0520 -0.6445  1.4597
 6845TIP3   OH241949   2.358   0.501  13.891  0.3363  0.4409  0.7116
 6845TIP3    H141950   2.323   0.453  13.966 -1.2369  1.6790  0.7897
 6845TIP3    H241951   2.445   0.529  13.919  1.5443 -2.8441  0.4455
 6846TIP3   OH241952   4.184   4.337   2.630  0.5078  0.1231 -0.1549
 6846TIP3    H141953   4.180   4.420   2.582  0.6340  0.9339  1.1963
 6846TIP3    H241954   4.121   4.348   2.702 -1.4398 -1.9633 -1.4776
 6847TIP3   OH241955   0.593   4.820   1.379  0.1988  0.0986 -0.5772
 6847TIP3    H141956   0.601   4.833   1.284  2.0382 -0.6507 -0.5468
 6847TIP3    H241957   0.554   4.733   1.388 -2.0049  1.0451 -0.6469
 6848TIP3   OH241958   5.702   2.375   5.803  0.1647 -0.5866 -0.3311
 6848TIP3    H141959   5.719   2.333   5.887  0.6909 -1.0233 -0.6592
 6848TIP3    H241960   5.637   2.319   5.760  0.5012 -0.7978 -0.5619
 6849TIP3   OH241961   3.220   0.489   0.208  0.3568  0.3688 -0.0852
 6849TIP3    H141962   3.161   0.564   0.208  0.1775  0.2430 -1.2599
 6849TIP3    H241963   3.195   0.439   0.285  0.3480  1.4099  0.6028
 6850TIP3   OH241964   4.150   3.164   3.147 -0.2375  0.0318 -0.1663
 6850TIP3    H141965   4.086   3.131   3.084 -0.9924  1.1593 -0.0108
 6850TIP3    H241966   4.229   3.182   3.095  0.2542 -2.1548 -0.2202
 6851TIP3   OH241967   1.993   0.249   4.556  0.1653 -0.1921 -0.2729
 6851TIP3    H141968   1.930   0.310   4.593  0.8139  1.1984 -1.4252
 6851TIP3    H241969   1.940   0.188   4.504 -0.4837 -0.6765  0.9434
 6852TIP3   OH241970   4.196   6.386  12.438 -0.0031  0.3059  0.4717
 6852TIP3    H141971   4.111   6.350  12.463 -0.1773  1.0151  0.9039
 6852TIP3    H241972   4.238   6.410  12.521  0.3834  0.4912  0.2267
 6853TIP3   OH241973   4.240   5.403  14.529  0.2186  0.2281  0.4335
 6853TIP3    H141974   4.153   5.370  14.552  0.3092  1.1817  2.2145
 6853TIP3    H241975   4.298   5.364  14.595  0.9582  0.5841 -0.0056
 6854TIP3   OH241976   6.256   2.638  16.115 -0.6217 -0.3808 -0.4125
 6854TIP3    H141977   6.198   2.715  16.110 -1.7429 -1.2413 -0.9853
 6854TIP3    H241978   6.223   2.580  16.047  1.3871 -0.5963 -1.2215
 6855TIP3   OH241979   4.772   5.719  15.719 -0.0699 -0.3785 -0.0429
 6855TIP3    H141980   4.737   5.804  15.692 -0.1882 -0.1101  0.9116
 6855TIP3    H241981   4.699   5.659  15.710  0.4490 -0.7170 -2.2448
 6856TIP3   OH241982   6.358   6.516  12.018 -0.2709  0.8314 -0.3126
 6856TIP3    H141983   6.446   6.514  12.056 -0.3414 -1.2405 -0.2489
 6856TIP3    H241984   6.372   6.506  11.924 -0.4874 -0.1331 -0.2386
 6857TIP3   OH241985   6.391   5.666   1.529 -0.1732 -0.6377  0.3847
 6857TIP3    H141986   6.359   5.746   1.571  1.0092  0.6535 -1.1098
 6857TIP3    H241987   6.351   5.667   1.442  0.6633 -1.1379 -0.0089
 6858TIP3   OH241988   2.304   6.361  16.664  0.1432  0.6673  0.2501
 6858TIP3    H141989   2.243   6.326  16.598 -0.0099 -2.0388  1.7412
 6858TIP3    H241990   2.379   6.391  16.613 -1.0978  1.1476 -1.3621
 6859TIP3   OH241991   3.415   2.560   5.569  0.4687 -0.0713 -0.0579
 6859TIP3    H141992   3.384   2.607   5.646  0.7345 -0.0600  0.0447
 6859TIP3    H241993   3.492   2.512   5.600 -1.2348 -2.5647  0.4662
 6860TIP3   OH241994   3.432   6.364   6.102 -0.6527 -0.6290 -0.4006
 6860TIP3    H141995   3.385   6.325   6.176 -1.8931 -0.7368 -1.2194
 6860TIP3    H241996   3.488   6.430   6.142 -1.4693 -0.5330  0.6325
 6861TIP3   OH241997   5.512   4.569   2.160  0.0623 -0.6063 -0.3927
 6861TIP3    H141998   5.424   4.587   2.126  0.1149  0.9851  0.2708
 6861TIP3    H241999   5.498   4.556   2.254  0.2907 -2.2406 -0.5692
 6862TIP3   OH242000   4.426   2.733  14.366 -0.4295  0.0518 -0.4106
 6862TIP3    H142001   4.489   2.758  14.298  0.7323 -0.4359  0.4753
 6862TIP3    H242002   4.342   2.731  14.321  0.7132 -3.1885 -2.5589
 6863TIP3   OH242003   4.042   3.924  14.307 -0.3894  0.1176 -0.5868
 6863TIP3    H142004   4.097   3.999  14.328 -0.1142 -0.1149 -0.4667
 6863TIP3    H242005   4.089   3.849  14.344 -1.1025 -0.0025  0.0737
 6864TIP3   OH242006   5.175   3.888   0.827  0.0486  0.2151 -0.0250
 6864TIP3    H142007   5.133   3.828   0.766  2.2422  0.8487 -2.2489
 6864TIP3    H242008   5.106   3.949   0.852 -1.1588 -0.7148 -1.0427
 6865TIP3   OH242009   3.007   1.315   2.235 -0.3091 -0.1495  0.1425
 6865TIP3    H142010   3.042   1.403   2.250 -0.2441 -0.4172  1.7101
 6865TIP3    H242011   2.950   1.324   2.159 -0.8147  1.3944  0.6844
 6866TIP3   OH242012   1.840   4.880  11.438 -0.0757 -0.2768  0.0378
 6866TIP3    H142013   1.931   4.864  11.466  0.2246  1.0007 -0.1850
 6866TIP3    H242014   1.794   4.799  11.460  1.5469 -1.7303 -1.7061
 6867TIP3   OH242015   0.683   2.060  14.927  0.6352 -0.1816 -1.1905
 6867TIP3    H142016   0.612   2.016  14.880  0.2971 -0.6894 -0.1964
 6867TIP3    H242017   0.762   2.014  14.900  0.1564 -2.2953  0.8615
 6868TIP3   OH242018   4.427   4.536   3.023  1.0073  0.0653  0.0909
 6868TIP3    H142019   4.398   4.606   2.964  2.0423 -0.0070 -0.5204
 6868TIP3    H242020   4.390   4.560   3.108 -2.0509 -0.7672 -0.9051
 6869TIP3   OH242021   0.680   1.537  14.414  0.2287 -0.4230  0.3911
 6869TIP3    H142022   0.664   1.498  14.500 -0.2398  0.1496  0.5650
 6869TIP3    H242023   0.600   1.521  14.365 -0.4475  1.4106  0.8760
 6870TIP3   OH242024   4.432   2.991   1.859 -0.2209 -0.6319  0.0663
 6870TIP3    H142025   4.428   3.051   1.785  0.4583 -0.5286  0.1053
 6870TIP3    H242026   4.427   3.047   1.937  0.6461 -0.5967  0.1043
 6871TIP3   OH242027   1.741   3.529  16.761  0.5390  0.2973 -0.2395
 6871TIP3    H142028   1.773   3.599  16.818 -0.0489  0.0851  0.3455
 6871TIP3    H242029   1.726   3.455  16.819  1.1308 -0.3115 -0.8543
 6872TIP3   OH242030   3.222   2.859   1.070 -0.1427  0.0352  0.2182
 6872TIP3    H142031   3.199   2.947   1.099  1.6099  1.0604 -1.3520
 6872TIP3    H242032   3.312   2.846   1.100 -0.7631 -1.6621  1.3909
 6873TIP3   OH242033   2.274   0.927   0.111 -0.2545 -0.3806  0.2834
 6873TIP3    H142034   2.262   0.953   0.203 -0.8652 -0.1429  0.1414
 6873TIP3    H242035   2.368   0.923   0.099 -0.1461  1.2429  0.4654
 6874TIP3   OH242036   3.134   3.634  11.771  0.1180  0.4925  0.1011
 6874TIP3    H142037   3.041   3.654  11.768 -0.1267 -0.5702  0.2619
 6874TIP3    H242038   3.139   3.550  11.817  1.1393  0.4744 -0.0221
 6875TIP3   OH242039   1.334   5.114   4.066 -0.0627 -0.0063 -0.2908
 6875TIP3    H142040   1.413   5.094   4.015  0.5330 -0.1693  0.6936
 6875TIP3    H242041   1.349   5.074   4.151 -1.6963 -0.9983 -0.4408
 6876TIP3   OH242042   5.968   2.962  11.718  0.0219  0.6362 -0.0369
 6876TIP3    H142043   5.955   2.874  11.752  1.0510  0.3161 -0.4500
 6876TIP3    H242044   6.059   2.984  11.740  0.6687  0.4675 -2.4106
 6877TIP3   OH242045   3.305   6.004  16.336 -0.2774  0.3685  0.9147
 6877TIP3    H142046   3.280   6.077  16.280 -0.4748  0.5316  1.2106
 6877TIP3    H242047   3.302   6.040  16.425  0.8932  0.3592  0.9604
 6878TIP3   OH242048   6.564   0.927  15.990  0.1033 -0.4392  0.7356
 6878TIP3    H142049   6.641   0.942  15.935 -0.1498 -0.7546  0.2924
 6878TIP3    H242050   6.596   0.870  16.060  0.5262  0.3101  1.1618
 6879TIP3   OH242051   2.568   2.629  15.410  0.4727  0.3336  0.0300
 6879TIP3    H142052   2.641   2.678  15.448  1.2989 -1.4313  0.8118
 6879TIP3    H242053   2.497   2.638  15.473  0.8032  0.0659  0.4409
 6880TIP3   OH242054   5.972   1.782   2.388 -0.1322 -0.5070 -0.2820
 6880TIP3    H142055   5.900   1.727   2.360 -1.6303  1.4211 -0.2939
 6880TIP3    H242056   5.932   1.867   2.407  2.1253  0.6063 -0.3198
 6881TIP3   OH242057   6.073   5.623   3.287 -0.3442 -0.3349 -0.5787
 6881TIP3    H142058   6.117   5.546   3.252  0.8614  0.4003 -0.7059
 6881TIP3    H242059   5.981   5.597   3.295  0.2479 -2.1737  0.5044
 6882TIP3   OH242060   3.040   6.563   2.283 -0.2790  0.0097  0.3362
 6882TIP3    H142061   3.076   6.651   2.285 -0.6514  0.1840 -0.2803
 6882TIP3    H242062   3.107   6.511   2.238  0.7201 -0.4032  2.2667
 6883TIP3   OH242063   6.489   1.796   3.170  0.0868 -0.0425 -0.1857
 6883TIP3    H142064   6.512   1.797   3.263  0.2285  2.6375 -0.1942
 6883TIP3    H242065   6.480   1.703   3.148  2.3034 -0.8146  1.9414
 6884TIP3   OH242066   5.362   4.574  11.971  0.1077 -1.1373 -0.2575
 6884TIP3    H142067   5.275   4.606  11.995  0.1352 -0.9496 -0.4022
 6884TIP3    H242068   5.420   4.650  11.985  0.0193 -0.8126 -1.5604
 6885TIP3   OH242069   4.718   4.938   0.175 -0.2964  0.2849  0.0388
 6885TIP3    H142070   4.646   4.927   0.113 -1.6628  1.1345  1.4338
 6885TIP3    H242071   4.733   5.032   0.178 -0.9065  0.3460  1.7153
 6886TIP3   OH242072   0.482   6.038   2.685  0.0030 -0.4761  0.4927
 6886TIP3    H142073   0.525   6.123   2.691  0.9275 -0.9199  0.2260
 6886TIP3    H242074   0.418   6.038   2.756  1.3431 -0.3256  1.7180
 6887TIP3   OH242075   1.534   3.908   1.892 -0.0960 -0.5261 -0.1770
 6887TIP3    H142076   1.442   3.925   1.873  0.0340 -1.4061 -1.6349
 6887TIP3    H242077   1.577   3.992   1.876 -0.9462  0.5271  2.7528
 6888TIP3   OH242078   1.189   4.160   5.773 -0.2052  0.0647 -0.0702
 6888TIP3    H142079   1.215   4.176   5.864 -0.7047 -2.5364  0.5778
 6888TIP3    H242080   1.097   4.185   5.769 -0.1283  0.3699  0.0882
 6889TIP3   OH242081   2.088   4.527   4.962  0.5383  0.3006  0.2966
 6889TIP3    H142082   2.045   4.605   4.996 -1.4604  0.0597 -1.6263
 6889TIP3    H242083   2.178   4.556   4.943 -0.2633  2.2055 -0.6741
 6890TIP3   OH242084   2.470   4.638  12.683  0.0066  0.2197 -0.0373
 6890TIP3    H142085   2.447   4.634  12.590  2.0099  0.8519 -0.5801
 6890TIP3    H242086   2.387   4.622  12.729 -0.7505 -1.4546 -1.9229
 6891TIP3   OH242087   1.773   0.270  14.194 -0.7728 -0.4774 -0.2892
 6891TIP3    H142088   1.855   0.222  14.195 -1.3829 -1.5151  0.3799
 6891TIP3    H242089   1.739   0.263  14.283 -0.8543  1.2337 -0.1587
 6892TIP3   OH242090   2.208   0.445   0.270 -0.4665  0.2900  0.2498
 6892TIP3    H142091   2.248   0.456   0.184  0.1076  1.3227  0.6431
 6892TIP3    H242092   2.259   0.501   0.328  1.2564 -2.8683  1.9458
 6893TIP3   OH242093   5.501   5.353  14.780 -0.0382 -0.2856  0.1332
 6893TIP3    H142094   5.519   5.428  14.725 -0.0302 -0.2207  0.2249
 6893TIP3    H242095   5.405   5.351  14.787  0.0502  1.2517  2.2454
 6894TIP3   OH242096   0.001   4.450  12.143  0.4092 -0.3412  0.1645
 6894TIP3    H142097   0.003   4.502  12.063  1.3765 -1.5415 -0.6079
 6894TIP3    H242098   0.027   4.362  12.115 -0.3250 -1.0273  1.6072
 6895TIP3   OH242099   1.007   6.584   0.587 -0.6896 -0.0553 -0.4281
 6895TIP3    H142100   0.988   6.669   0.546 -2.8662 -0.2214  0.1574
 6895TIP3    H242101   0.956   6.585   0.668 -0.3832 -1.7636 -0.2087
 6896TIP3   OH242102   0.746   4.803   2.471  0.0039 -0.2712 -0.1775
 6896TIP3    H142103   0.745   4.740   2.543 -0.6799  0.4826  0.4873
 6896TIP3    H242104   0.831   4.791   2.429  0.0592 -1.3091  0.2331
 6897TIP3   OH242105   1.989   4.120  13.702 -0.0053 -0.4272 -0.1035
 6897TIP3    H142106   2.068   4.173  13.706 -1.4732  1.7331  1.1607
 6897TIP3    H242107   1.969   4.099  13.793  0.8542 -3.7092 -0.5956
 6898TIP3   OH242108   6.097   1.457   1.164 -0.2144  0.2970 -0.2134
 6898TIP3    H142109   6.010   1.440   1.129 -0.1897  1.2865 -0.7732
 6898TIP3    H242110   6.150   1.383   1.135 -0.6242  0.2023 -0.7226
 6899TIP3   OH242111   3.999   4.129   0.369  0.3494  0.3036  0.3413
 6899TIP3    H142112   3.966   4.219   0.371  0.7259  0.4550 -0.2377
 6899TIP3    H242113   3.935   4.081   0.317  0.5779  0.4108 -0.0399
 6900TIP3   OH242114   5.968   1.467   0.744 -0.3060 -0.0012  0.4008
 6900TIP3    H142115   5.995   1.524   0.816 -0.5705  0.5857  0.0397
 6900TIP3    H242116   5.885   1.504   0.715  0.3476  0.4371 -0.9392
 6901TIP3   OH242117   0.614   2.248   2.400  0.0405 -0.0747 -0.3822
 6901TIP3    H142118   0.666   2.327   2.388  0.4452  0.1178  2.3805
 6901TIP3    H242119   0.535   2.278   2.445  0.1024 -1.1859  0.4841
 6902TIP3   OH242120   4.537   5.568  15.491 -0.2575 -0.2376 -0.0734
 6902TIP3    H142121   4.606   5.632  15.473 -0.5984 -0.5312 -2.6603
 6902TIP3    H242122   4.581   5.498  15.538  1.5701 -1.0463 -2.8471
 6903TIP3   OH242123   6.303   6.461  16.907 -0.3824  0.5622  0.3192
 6903TIP3    H142124   6.266   6.393  16.849  0.0590  0.0795  0.6078
 6903TIP3    H242125   6.287   6.429  16.995  0.1476  0.6607  0.4533
 6904TIP3   OH242126   4.470   6.658  15.514  0.0956 -0.4183 -0.3832
 6904TIP3    H142127   4.528   6.657  15.590 -0.4791 -1.6495  0.0448
 6904TIP3    H242128   4.469   6.749  15.486 -0.3418  0.2018  1.5882
 6905TIP3   OH242129   0.301   0.603   6.375  0.3909 -0.6720 -0.2258
 6905TIP3    H142130   0.210   0.611   6.405  0.1708  1.2072 -1.2991
 6905TIP3    H242131   0.353   0.614   6.455 -0.2688  1.3428 -0.0351
 6906TIP3   OH242132   1.876   4.187   1.795 -0.0428  0.4199 -0.2540
 6906TIP3    H142133   1.934   4.180   1.871  2.7857  2.6217 -2.1088
 6906TIP3    H242134   1.864   4.096   1.766  1.4730 -0.1855  0.9479
 6907TIP3   OH242135   4.807   4.799  13.930 -0.2879  0.0504 -0.0862
 6907TIP3    H142136   4.728   4.744  13.933 -1.8033  2.1808  0.0032
 6907TIP3    H242137   4.863   4.764  13.999 -1.0814 -1.5945 -0.2492
 6908TIP3   OH242138   4.375   1.686   3.383  0.2821  0.7784  0.5227
 6908TIP3    H142139   4.350   1.713   3.295  0.7917  1.2656  0.5225
 6908TIP3    H242140   4.470   1.701   3.386  0.4662 -0.3951  0.7422
 6909TIP3   OH242141   5.747   2.647  14.450 -0.7531 -0.2129  0.3513
 6909TIP3    H142142   5.806   2.715  14.484  0.2825 -0.3852 -1.0450
 6909TIP3    H242143   5.747   2.661  14.356 -2.3811 -0.7040  0.2608
 6910TIP3   OH242144   3.410   6.742   2.022  0.1095  0.0666 -0.0491
 6910TIP3    H142145   3.465   6.809   2.062 -1.7110  0.8061  1.2778
 6910TIP3    H242146   3.322   6.759   2.057 -0.7180 -1.8870 -1.1133
 6911TIP3   OH242147   0.175   0.653  15.401 -0.4356 -0.9440 -0.6502
 6911TIP3    H142148   0.192   0.730  15.346  0.8656 -0.7694 -0.0363
 6911TIP3    H242149   0.262   0.620  15.422 -0.9225 -1.2231  0.9982
 6912TIP3   OH242150   1.848   4.227   6.374 -0.0969 -0.2174  0.0524
 6912TIP3    H142151   1.787   4.238   6.301  1.8568 -0.4432 -1.6702
 6912TIP3    H242152   1.809   4.159   6.428 -0.8448 -1.1606 -1.6269
 6913TIP3   OH242153   1.280   5.158  14.978 -0.0243 -0.1376  0.2584
 6913TIP3    H142154   1.356   5.163  15.036  1.0520 -1.0333 -1.0485
 6913TIP3    H242155   1.258   5.065  14.974 -0.7860  0.0490  0.1393
 6914TIP3   OH242156   4.032   5.919  13.256 -0.2917  0.9160 -0.0358
 6914TIP3    H142157   4.057   5.977  13.184  0.8789 -0.4484 -0.7635
 6914TIP3    H242158   4.075   5.835  13.235 -2.5200 -0.4354  0.6128
 6915TIP3   OH242159   4.612   6.752  13.470 -0.2329 -0.2472  0.7048
 6915TIP3    H142160   4.621   6.668  13.514 -0.7832 -2.2845 -2.8594
 6915TIP3    H242161   4.523   6.751  13.434  0.5332  0.7943 -1.3494
 6916TIP3   OH242162   0.662   0.273  11.392 -0.0011  0.1103 -0.0410
 6916TIP3    H142163   0.706   0.196  11.427 -1.9741 -0.7449  0.6730
 6916TIP3    H242164   0.682   0.273  11.299  0.4996 -0.9411  0.0626
 6917TIP3   OH242165   1.859   0.357  12.727 -0.6914  0.5031  0.1723
 6917TIP3    H142166   1.849   0.268  12.693 -0.5305  0.3590  0.5025
 6917TIP3    H242167   1.808   0.358  12.808  0.7327  0.1919  1.1024
 6918TIP3   OH242168   5.042   2.852  13.191 -0.1639  0.6070  0.5906
 6918TIP3    H142169   4.949   2.863  13.210 -0.8182 -1.1993 -1.3261
 6918TIP3    H242170   5.061   2.762  13.218  0.8327  0.6946  0.1972
 6919TIP3   OH242171   5.080   5.307  16.490 -0.3632 -0.3685 -0.2653
 6919TIP3    H142172   5.057   5.371  16.422  0.7223  1.1602  0.7702
 6919TIP3    H242173   5.029   5.333  16.566  0.6632 -0.2655  0.3989
 6920TIP3   OH242174   2.634   0.043  13.843 -0.5324  0.1442 -0.1820
 6920TIP3    H142175   2.636  -0.010  13.922  2.2703  0.8555  0.2797
 6920TIP3    H242176   2.609  -0.018  13.773 -1.1555 -0.8885  0.9380
 6921TIP3   OH242177   6.229   4.578  13.515  0.1522 -0.3774 -0.5244
 6921TIP3    H142178   6.279   4.545  13.441  0.6425 -2.9166  0.9065
 6921TIP3    H242179   6.143   4.536  13.507  0.2466 -0.7535  0.3992
 6922TIP3   OH242180   5.930   2.925  15.530 -0.3688 -0.4923  0.5697
 6922TIP3    H142181   5.990   2.856  15.557  0.5804 -0.0008 -0.2360
 6922TIP3    H242182   5.971   3.006  15.562 -1.2646 -0.2610  1.1540
 6923TIP3   OH242183   4.189   5.931  16.743  0.3167  0.5989 -0.5226
 6923TIP3    H142184   4.229   5.943  16.829  0.5350 -1.1916 -0.3561
 6923TIP3    H242185   4.213   6.010  16.694  1.3687  0.9984  0.6093
 6924TIP3   OH242186   1.473   3.293   1.971  0.5953  0.9067 -0.0533
 6924TIP3    H142187   1.515   3.379   1.973  0.2948  1.0288  1.3099
 6924TIP3    H242188   1.501   3.250   2.052 -1.7271  0.9273  0.7931
 6925TIP3   OH242189   6.605   4.631  12.369  0.2417 -0.1037 -0.6692
 6925TIP3    H142190   6.667   4.558  12.378  0.5240  0.0373 -1.4235
 6925TIP3    H242191   6.523   4.596  12.403  0.3354 -0.8433 -1.1780
 6926TIP3   OH242192   1.068   3.049  16.259 -0.5731  0.4547 -0.1055
 6926TIP3    H142193   1.123   3.071  16.334 -2.3548 -0.6121  1.5804
 6926TIP3    H242194   1.043   3.134  16.222  0.7739  0.9825  0.1782
 6927TIP3   OH242195   1.188   1.233  11.354  0.2531  0.3808 -0.3523
 6927TIP3    H142196   1.194   1.162  11.418 -0.9209  0.0098 -0.6338
 6927TIP3    H242197   1.094   1.238  11.333  0.2245  2.3974  0.1016
 6928TIP3   OH242198   0.317   5.845  15.121  0.0586 -0.0465 -0.6667
 6928TIP3    H142199   0.396   5.793  15.108  0.7791  0.8837 -0.1050
 6928TIP3    H242200   0.320   5.870  15.213 -0.2744  0.9694 -0.9180
 6929TIP3   OH242201   0.041   3.617   0.062  0.1234  0.1677  0.0002
 6929TIP3    H142202   0.122   3.585   0.101  1.1180  2.5170 -0.0202
 6929TIP3    H242203   0.028   3.563  -0.017  1.8341 -0.0250 -0.1540
 6930TIP3   OH242204   5.272   4.501  15.581 -0.0422  0.0692 -0.4703
 6930TIP3    H142205   5.236   4.544  15.503  1.2429  0.6759 -0.7324
 6930TIP3    H242206   5.217   4.532  15.653  1.4912  2.9947 -0.4854
 6931TIP3   OH242207   5.056   0.665   5.125 -0.3261 -0.2367 -0.2436
 6931TIP3    H142208   5.097   0.649   5.210  0.8821 -0.9088 -0.9416
 6931TIP3    H242209   4.963   0.654   5.141  0.0727 -2.8546  0.4329
 6932TIP3   OH242210   0.228   5.853  12.295 -0.4008  0.0648  0.7314
 6932TIP3    H142211   0.310   5.854  12.343 -0.3688 -1.6058  0.7641
 6932TIP3    H242212   0.184   5.773  12.325 -1.5702  0.4056 -0.0389
 6933TIP3   OH242213   0.803   1.808  15.268  0.0515  0.3930 -0.1731
 6933TIP3    H142214   0.860   1.769  15.202 -1.8077 -1.5191 -0.6998
 6933TIP3    H242215   0.856   1.811  15.348  0.6730 -1.9914 -0.4772
 6934TIP3   OH242216   0.761   4.390  13.184  0.1802 -0.1661 -0.7325
 6934TIP3    H142217   0.746   4.485  13.192 -0.9562 -0.2859 -1.3082
 6934TIP3    H242218   0.819   4.381  13.109 -1.7711 -0.0650 -2.3194
 6935TIP3   OH242219   3.773   6.177   0.702 -0.3862  0.2638 -0.2533
 6935TIP3    H142220   3.820   6.135   0.630 -0.0262 -0.2904  0.3097
 6935TIP3    H242221   3.818   6.149   0.781  1.2763  3.4585  0.0515
 6936TIP3   OH242222   3.416   1.006   5.293 -0.4659  0.1141 -0.0390
 6936TIP3    H142223   3.329   1.025   5.259  0.1797  0.0327 -1.7651
 6936TIP3    H242224   3.424   0.911   5.287 -1.3902 -0.2140  2.9709
 6937TIP3   OH242225   3.240   2.485   4.490  0.0066  0.3361 -0.5981
 6937TIP3    H142226   3.304   2.433   4.442  1.0245  1.4715 -0.5014
 6937TIP3    H242227   3.251   2.574   4.457 -0.6349  0.7797  0.3429
 6938TIP3   OH242228   4.322   6.507  11.038  0.2096  0.3288 -0.2457
 6938TIP3    H142229   4.267   6.585  11.026 -0.8371 -0.2567  0.7392
 6938TIP3    H242230   4.403   6.541  11.077 -0.5852  0.8117  0.9954
 6939TIP3   OH242231   2.619   0.080  14.220  0.2634  0.6383  0.5605
 6939TIP3    H142232   2.664   0.003  14.185 -2.0713 -0.5883  0.1583
 6939TIP3    H242233   2.673   0.107  14.294  1.7903 -0.6416 -0.0463
 6940TIP3   OH242234   2.453   4.305  11.846 -0.1011 -0.2212  0.1561
 6940TIP3    H142235   2.463   4.345  11.759  0.1271  1.9218  1.1269
 6940TIP3    H242236   2.359   4.312  11.864 -0.0735 -0.2068  0.2908
 6941TIP3   OH242237   0.080   2.525  13.950  0.1907 -0.4893  0.7154
 6941TIP3    H142238   0.153   2.490  14.001 -1.0238 -1.8925  1.5070
 6941TIP3    H242239   0.054   2.454  13.892 -0.0955  0.2551 -0.0934
 6942TIP3   OH242240   0.464   4.196  13.660 -0.4427  0.5617  0.3197
 6942TIP3    H142241   0.543   4.187  13.714 -0.3243  0.5007  0.1338
 6942TIP3    H242242   0.429   4.282  13.683 -0.0688  0.7835  0.0596
 6943TIP3   OH242243   6.724   3.053   5.015 -0.0407 -0.3685 -0.2107
 6943TIP3    H142244   6.803   3.034   5.065 -0.3444 -1.8355 -0.2547
 6943TIP3    H242245   6.675   3.116   5.068  1.5320  1.1757 -0.5710
 6944TIP3   OH242246   6.636   6.336  13.251 -0.5394 -0.1024  0.0370
 6944TIP3    H142247   6.606   6.390  13.178 -0.2514 -0.5226 -0.3903
 6944TIP3    H242248   6.556   6.305  13.292 -0.7324  1.6282  1.0188
 6945TIP3   OH242249   0.730   5.028   0.075  0.1706 -0.1630  0.0961
 6945TIP3    H142250   0.732   5.123   0.067 -1.9594 -0.0445  0.6952
 6945TIP3    H242251   0.757   4.996  -0.011 -1.5128  1.0158 -0.9051
 6946TIP3   OH242252   3.603   5.077  12.382  0.3130 -0.2808 -0.0142
 6946TIP3    H142253   3.637   5.153  12.430 -0.2350  1.2778 -1.9985
 6946TIP3    H242254   3.588   5.110  12.294 -1.9349 -2.1542 -0.3833
 6947TIP3   OH242255   1.736   6.218   1.552  0.7988 -0.3424 -0.7740
 6947TIP3    H142256   1.771   6.153   1.614  0.1618  0.4327  0.4145
 6947TIP3    H242257   1.806   6.230   1.488  1.2964 -1.4881 -0.4634
 6948TIP3   OH242258   2.944   0.208  14.390 -0.8259 -0.5795  0.1782
 6948TIP3    H142259   2.875   0.274  14.395 -2.3603 -2.0972 -0.1857
 6948TIP3    H242260   2.982   0.206  14.478 -1.7524 -0.2249  0.6016
 6949TIP3   OH242261   1.395   6.692   1.303  0.6922  0.3540 -0.0774
 6949TIP3    H142262   1.300   6.681   1.295  0.9303 -1.6416 -0.4030
 6949TIP3    H242263   1.406   6.756   1.374 -0.9050  1.2842 -0.6487
 6950TIP3   OH242264   2.443   1.470   2.658  0.6823  0.3816  0.4170
 6950TIP3    H142265   2.472   1.460   2.567  1.8265 -0.5236  0.8647
 6950TIP3    H242266   2.366   1.526   2.653 -0.6891 -1.5918 -1.3307
 6951TIP3   OH242267   0.437   2.641  16.928  0.2877 -0.6084  0.1079
 6951TIP3    H142268   0.509   2.605  16.876  0.6806  2.7104 -1.7879
 6951TIP3    H242269   0.363   2.584  16.908  1.3752 -1.6415 -1.1288
 6952TIP3   OH242270   5.370   6.444   3.819 -0.2387  0.1775  0.2328
 6952TIP3    H142271   5.465   6.450   3.807 -0.5131  0.6952 -1.8887
 6952TIP3    H242272   5.345   6.362   3.776 -0.8595  0.5145 -0.0553
 6953TIP3   OH242273   3.596   5.374   3.245 -0.1131 -0.6848 -0.3666
 6953TIP3    H142274   3.661   5.408   3.306 -2.2043  0.8977  1.0468
 6953TIP3    H242275   3.554   5.452   3.209 -0.2211 -1.6597 -2.3723
 6954TIP3   OH242276   5.506   2.346   0.238  0.2987 -0.2333 -0.2925
 6954TIP3    H142277   5.419   2.368   0.272 -0.1335 -0.9106 -0.9535
 6954TIP3    H242278   5.497   2.256   0.205  1.5981 -0.8098  0.8456
 6955TIP3   OH242279   0.952   6.638   1.496 -0.7302 -0.1922 -0.7379
 6955TIP3    H142280   0.895   6.570   1.460 -1.4067  0.2605 -0.5188
 6955TIP3    H242281   0.908   6.720   1.476  0.4649  0.2270 -1.6563
 6956TIP3   OH242282   2.085   5.168  14.198 -0.0568  0.2146  0.1551
 6956TIP3    H142283   2.070   5.075  14.181 -0.1511  0.2515  0.0234
 6956TIP3    H242284   2.109   5.173  14.290 -1.3436  0.1960  0.5017
 6957TIP3   OH242285   3.043   1.134   4.348 -0.1623 -0.2973  0.0921
 6957TIP3    H142286   2.983   1.207   4.335 -1.7693 -1.6540 -0.2404
 6957TIP3    H242287   2.989   1.056   4.337  1.8283 -1.5597 -1.0768
 6958TIP3   OH242288   2.914   6.142   3.321  0.1615  0.5514  0.4788
 6958TIP3    H142289   2.950   6.063   3.361  1.4210 -0.8012 -3.1577
 6958TIP3    H242290   2.987   6.204   3.319  0.5575  0.0499 -1.1207
 6959TIP3   OH242291   4.900   2.123  17.209  0.2944  0.0397 -0.3566
 6959TIP3    H142292   4.897   2.198  17.151 -0.9734 -0.3166 -0.7590
 6959TIP3    H242293   4.981   2.078  17.185 -0.7051 -0.6456 -2.5516
 6960TIP3   OH242294   6.236   3.437   1.679 -0.3170  0.0433  0.5759
 6960TIP3    H142295   6.259   3.351   1.644 -0.8876 -0.1120  0.5857
 6960TIP3    H242296   6.257   3.431   1.773  1.3180  0.4961  0.2649
 6961TIP3   OH242297   6.051   3.499   0.226 -0.1087 -0.0575  0.4645
 6961TIP3    H142298   6.116   3.481   0.293  0.3903  1.0576  0.2829
 6961TIP3    H242299   5.995   3.421   0.225  0.3510 -0.4030  1.6200
 6962TIP3   OH242300   1.522   6.296  13.005 -0.0217 -0.0877  0.3500
 6962TIP3    H142301   1.462   6.361  13.041  0.3986  0.7452 -0.4592
 6962TIP3    H242302   1.589   6.285  13.072 -1.0328 -0.9945  1.2472
 6963TIP3   OH242303   6.265   5.267   2.188 -0.6828  0.8228  0.5081
 6963TIP3    H142304   6.251   5.208   2.114  1.3217  1.7241 -0.6177
 6963TIP3    H242305   6.312   5.214   2.252  1.1992  1.1734 -0.5390
 6964TIP3   OH242306   2.131   4.322  15.045  0.0456 -0.5925 -0.3045
 6964TIP3    H142307   2.091   4.274  14.973 -1.7491  3.9143 -2.5269
 6964TIP3    H242308   2.217   4.348  15.011  0.6200 -1.3621  0.5272
 6965TIP3   OH242309   4.066   3.917   5.687  0.4272 -0.0290 -0.0316
 6965TIP3    H142310   4.055   3.990   5.627  1.1117  1.2182  1.3222
 6965TIP3    H242311   3.981   3.908   5.730 -0.0880 -0.9782 -1.2260
 6966TIP3   OH242312   2.924   4.495  15.443 -0.1535 -0.3993  0.3560
 6966TIP3    H142313   2.969   4.550  15.507 -0.0452 -0.5431  0.4043
 6966TIP3    H242314   2.881   4.557  15.384 -1.7355 -0.2674  1.6076
 6967TIP3   OH242315   4.571   2.920   5.251 -0.4533 -0.0741  0.0639
 6967TIP3    H142316   4.647   2.973   5.275 -0.2631 -0.5771  0.5855
 6967TIP3    H242317   4.589   2.834   5.289 -1.0216 -0.3528 -0.2951
 6968TIP3   OH242318   0.450   5.107   2.932  0.0909 -0.0154 -0.6687
 6968TIP3    H142319   0.535   5.147   2.947  1.6506 -2.9199 -1.5353
 6968TIP3    H242320   0.403   5.119   3.014  1.0024  2.3551 -0.4697
 6969TIP3   OH242321   6.322   3.733   0.200 -0.4056  0.2088  0.0453
 6969TIP3    H142322   6.403   3.697   0.164 -0.6677 -0.1515 -0.1920
 6969TIP3    H242323   6.281   3.779   0.126 -2.3021 -2.8527 -0.9403
 6970TIP3   OH242324   1.513   4.686  16.392  0.3530 -0.8211  0.0537
 6970TIP3    H142325   1.517   4.651  16.303 -0.3238  0.8052 -0.6464
 6970TIP3    H242326   1.597   4.664  16.431  0.8543 -1.0979 -1.1663
 6971TIP3   OH242327   0.819   6.063  14.944 -0.3482  0.6097 -0.3516
 6971TIP3    H142328   0.792   6.150  14.916 -4.2888 -0.1247  0.7766
 6971TIP3    H242329   0.784   6.004  14.877 -2.0319 -0.4167  1.3393
 6972TIP3   OH242330   2.551   5.041   3.899  0.1032  0.7839  0.7832
 6972TIP3    H142331   2.572   5.086   3.817 -0.0545  0.0291  0.3199
 6972TIP3    H242332   2.627   5.055   3.955  0.3785  0.9678  0.3624
 6973TIP3   OH242333   0.985   0.461   6.588 -0.1769  0.0580  0.0468
 6973TIP3    H142334   0.925   0.517   6.637 -0.4392 -0.5546  0.4369
 6973TIP3    H242335   0.982   0.495   6.498  0.7168  1.5281  0.5552
 6974TIP3   OH242336   4.921   1.663   5.375 -0.2611 -0.1395 -0.7720
 6974TIP3    H142337   4.928   1.744   5.426  0.6306 -1.3562  1.0606
 6974TIP3    H242338   4.831   1.634   5.388 -0.4914  0.3906 -1.1805
 6975TIP3   OH242339   5.348   2.213   3.464 -0.2005  0.0563 -1.0647
 6975TIP3    H142340   5.388   2.197   3.379  0.9084  0.3132 -0.5906
 6975TIP3    H242341   5.385   2.296   3.493  0.0864 -0.4666  0.0723
 6976TIP3   OH242342   4.021   6.252  10.864  0.0803 -0.1275 -0.5262
 6976TIP3    H142343   3.999   6.169  10.908 -0.2867  0.8344  1.1492
 6976TIP3    H242344   4.115   6.262  10.877  0.1014 -0.2067 -0.6156
 6977TIP3   OH242345   5.411   5.211  12.623 -0.1017 -0.1957 -0.1094
 6977TIP3    H142346   5.500   5.212  12.588  0.0966 -0.0344  0.4093
 6977TIP3    H242347   5.371   5.291  12.589  0.2957  0.2933  0.5653
 6978TIP3   OH242348   3.929   0.873  16.159 -0.1660 -0.0922  0.2305
 6978TIP3    H142349   3.860   0.817  16.124  0.9006 -0.7557 -0.8443
 6978TIP3    H242350   3.962   0.826  16.235 -0.8915  0.2349  0.7567
 6979TIP3   OH242351   0.851   5.930  13.306 -0.0597 -0.7927  0.2917
 6979TIP3    H142352   0.867   5.919  13.213 -0.2636  0.9474  0.0265
 6979TIP3    H242353   0.925   5.984  13.337  0.0475 -1.4182  1.1400
 6980TIP3   OH242354   3.743   1.143   3.000 -0.2399  0.2035 -0.2671
 6980TIP3    H142355   3.821   1.128   3.053 -0.2999 -0.7422 -0.4341
 6980TIP3    H242356   3.677   1.084   3.036 -0.6670  0.4841 -0.5763
 6981TIP3   OH242357   4.477   3.028   3.057 -0.1257  0.1027 -0.0013
 6981TIP3    H142358   4.402   2.995   3.008 -1.4431  0.4952  1.7048
 6981TIP3    H242359   4.450   3.115   3.087  1.0538  0.3086  0.5081
 6982TIP3   OH242360   3.899   0.036   4.839  0.2234  0.1187 -0.7317
 6982TIP3    H142361   3.853  -0.011   4.769 -1.7087  0.4335  0.2953
 6982TIP3    H242362   3.838   0.036   4.912  0.9449  2.6062 -0.0797
 6983TIP3   OH242363   2.508   0.308  16.644  0.1073 -0.0499 -0.2783
 6983TIP3    H142364   2.430   0.322  16.698 -1.2011 -1.5738 -1.7009
 6983TIP3    H242365   2.483   0.237  16.584  1.9661  0.7114 -2.0004
 6984TIP3   OH242366   5.263   1.711  11.131 -0.6579  0.0319  0.1070
 6984TIP3    H142367   5.294   1.744  11.046 -0.9511  0.1081  0.0304
 6984TIP3    H242368   5.199   1.776  11.160 -0.0312  0.3766  0.7264
 6985TIP3   OH242369   3.064   0.310  11.914 -0.0446 -0.3064  0.2446
 6985TIP3    H142370   3.054   0.405  11.923 -0.5825 -0.3540  0.1817
 6985TIP3    H242371   3.076   0.278  12.003  3.2660  0.1551  0.0132
 6986TIP3   OH242372   5.673   0.848   0.974 -0.1889 -0.5316 -0.0478
 6986TIP3    H142373   5.603   0.909   0.993 -0.9433 -0.7857 -1.9034
 6986TIP3    H242374   5.629   0.764   0.959  0.4416 -0.5831 -1.7281
 6987TIP3   OH242375   1.979   0.368  16.149 -0.4465  0.3394 -0.2678
 6987TIP3    H142376   2.075   0.357  16.151 -0.4956  0.0040  0.4051
 6987TIP3    H242377   1.961   0.399  16.061  0.4041  1.5173 -0.0478
 6988TIP3   OH242378   6.021   6.181   3.033 -1.0872  0.2060 -0.0852
 6988TIP3    H142379   6.056   6.110   2.979 -2.9961 -1.2306  0.4941
 6988TIP3    H242380   5.944   6.143   3.075 -0.9356  1.9897  1.8932
 6989TIP3   OH242381   5.018   0.892  12.878  0.6491 -0.3974 -0.0884
 6989TIP3    H142382   4.991   0.826  12.815 -2.0091 -0.1469  0.7298
 6989TIP3    H242383   4.986   0.975  12.842  3.4124  0.4201 -0.8035
 6990TIP3   OH242384   3.313   1.212   2.393  0.2354  0.0921 -0.1632
 6990TIP3    H142385   3.336   1.250   2.309  1.2170  0.2840  0.1914
 6990TIP3    H242386   3.343   1.121   2.387  0.2490  0.0889 -0.0356
 6991TIP3   OH242387   3.252   6.260   3.494 -0.3512 -0.1162 -0.6490
 6991TIP3    H142388   3.195   6.305   3.556  3.2342  1.4254  1.6703
 6991TIP3    H242389   3.264   6.172   3.531 -0.8000 -0.2769 -0.8803
 6992TIP3   OH242390   2.582   6.483  13.721 -0.2045  0.4246  0.5030
 6992TIP3    H142391   2.534   6.552  13.674 -3.6537 -1.8211  0.5458
 6992TIP3    H242392   2.582   6.408  13.661 -0.5457 -0.9992  2.2357
 6993TIP3   OH242393   6.678   2.491   1.352  0.0350 -0.4404  0.0855
 6993TIP3    H142394   6.730   2.571   1.348 -0.8914  0.1272 -0.9257
 6993TIP3    H242395   6.741   2.420   1.340  0.9347  0.1006  1.4873
 6994TIP3   OH242396   3.163   1.645   2.584 -0.7666 -0.0830 -0.3212
 6994TIP3    H142397   3.246   1.597   2.579  0.0807  1.3399 -0.2215
 6994TIP3    H242398   3.104   1.585   2.630  0.2814 -1.0039 -0.1396
 6995TIP3   OH242399   5.730   1.456   3.105  0.3257  0.0759 -0.8670
 6995TIP3    H142400   5.800   1.391   3.108 -1.3913 -1.9852 -3.3102
 6995TIP3    H242401   5.650   1.405   3.113 -0.9850  2.1662 -0.3781
 6996TIP3   OH242402   2.786   3.140  17.051  0.3671  0.2365 -0.0878
 6996TIP3    H142403   2.830   3.183  16.978 -1.2203  0.4196 -0.9608
 6996TIP3    H242404   2.793   3.047  17.032 -0.6928  0.3042 -0.8919
 6997TIP3   OH242405   1.385   3.483  16.468  0.0744 -0.5328 -0.1361
 6997TIP3    H142406   1.431   3.532  16.537 -1.3009 -0.3827  0.6910
 6997TIP3    H242407   1.348   3.551  16.411 -0.0979 -0.6319 -0.1434
 6998TIP3   OH242408   0.275   1.674  11.994  0.0082 -0.3852 -1.1248
 6998TIP3    H142409   0.365   1.704  11.982 -0.2597  0.5055 -0.9239
 6998TIP3    H242410   0.257   1.689  12.087 -0.4948 -0.1580 -1.2607
 6999TIP3   OH242411   3.827   3.197  12.504  0.0404 -0.1720 -0.1949
 6999TIP3    H142412   3.852   3.247  12.581 -1.1463  1.3789 -0.7881
 6999TIP3    H242413   3.859   3.250  12.430 -1.6426 -0.0388 -0.8406
 7000TIP3   OH242414   5.164   3.950  13.306  0.3656 -0.5053 -0.4122
 7000TIP3    H142415   5.148   3.893  13.231 -0.9921 -0.9594  0.2068
 7000TIP3    H242416   5.079   3.991  13.323  0.2965 -1.5046  1.7677
 7001TIP3   OH242417   5.652   5.223   2.405  0.2253 -0.1010  0.1864
 7001TIP3    H142418   5.691   5.136   2.411 -1.5923 -0.8256  2.1678
 7001TIP3    H242419   5.565   5.208   2.369  0.4312  1.1008 -0.8769
 7002TIP3   OH242420   0.878   1.173   0.040 -0.6161 -0.3472 -0.0592
 7002TIP3    H142421   0.914   1.108  -0.020  1.4571 -0.1499  0.9109
 7002TIP3    H242422   0.865   1.252  -0.013 -1.5367 -1.0393 -0.8633
 7003TIP3   OH242423   2.849   5.220  10.493  0.4618 -0.0055  0.0725
 7003TIP3    H142424   2.915   5.162  10.454  0.9303 -1.2572  2.6104
 7003TIP3    H242425   2.899   5.276  10.552 -0.6216 -0.4718  1.4748
 7004TIP3   OH242426   0.261   4.133  13.891 -0.1209  0.2680  0.5710
 7004TIP3    H142427   0.242   4.124  13.797 -2.1004 -0.1098  0.9833
 7004TIP3    H242428   0.255   4.227  13.908  1.1019  0.4321  0.1641
 7005TIP3   OH242429   3.409   6.223   0.842 -0.2022  0.1012 -0.3524
 7005TIP3    H142430   3.472   6.263   0.783  1.9100  0.1575  1.8808
 7005TIP3    H242431   3.428   6.129   0.838  1.5403  0.3127  1.9613
 7006TIP3   OH242432   5.902   6.188   0.632  0.2828  0.5875  0.5929
 7006TIP3    H142433   5.883   6.167   0.723 -0.2427  0.5003  0.4659
 7006TIP3    H242434   5.945   6.274   0.635 -1.6477  1.5665  0.7655
 7007TIP3   OH242435   5.239   3.172   2.693 -0.0310  0.5255 -0.0057
 7007TIP3    H142436   5.221   3.244   2.632 -1.6971 -0.0465 -0.2192
 7007TIP3    H242437   5.248   3.095   2.637  0.7639  0.4007  0.2961
 7008TIP3   OH242438   6.491   1.743   2.587 -0.0476  0.0756  0.2679
 7008TIP3    H142439   6.435   1.704   2.654  0.9000 -1.4339  0.1952
 7008TIP3    H242440   6.433   1.758   2.512 -0.4352 -1.1233  0.3276
 7009TIP3   OH242441   4.065   1.915   4.882 -0.0715  0.0668  0.5581
 7009TIP3    H142442   4.070   1.991   4.940 -2.0893  1.6500 -1.2737
 7009TIP3    H242443   4.129   1.932   4.814  1.8706 -1.5137  1.9221
 7010TIP3   OH242444   2.019   5.114   2.768 -0.2696 -0.3295  0.0444
 7010TIP3    H142445   1.980   5.199   2.752  0.4738  0.0822  0.4040
 7010TIP3    H242446   2.017   5.104   2.863  0.2708 -0.4105  0.0502
 7011TIP3   OH242447   3.216   2.060  16.602 -0.5948  0.0927 -0.0569
 7011TIP3    H142448   3.311   2.061  16.616  0.0116 -0.5449 -3.5322
 7011TIP3    H242449   3.191   2.153  16.605  0.1479  0.2632  0.9148
 7012TIP3   OH242450   6.693   3.300   3.625 -0.0406  0.3142 -0.0809
 7012TIP3    H142451   6.608   3.300   3.669  0.4907  1.2576  0.9607
 7012TIP3    H242452   6.750   3.248   3.681 -0.0385 -0.7159 -1.0202
 7013TIP3   OH242453   0.047   4.056   2.713  0.3928  0.4210  0.7940
 7013TIP3    H142454  -0.043   4.085   2.703  0.5486  0.8787  0.6759
 7013TIP3    H242455   0.054   3.977   2.659  0.3774  1.0501 -0.1401
 7014TIP3   OH242456   3.896   4.312   1.959 -0.2448  0.2815  0.0044
 7014TIP3    H142457   3.980   4.280   1.994  0.5721  0.3909 -1.8307
 7014TIP3    H242458   3.831   4.255   2.000  0.7682 -0.2233  0.9594
 7015TIP3   OH242459   5.722   6.082  12.165  0.7051  0.5850 -0.1384
 7015TIP3    H142460   5.762   6.051  12.083  0.1470 -0.8748  0.1327
 7015TIP3    H242461   5.655   6.017  12.185  0.5581  1.1646  1.2678
 7016TIP3   OH242462   6.403   4.118   5.408  0.2201 -0.6492 -0.3038
 7016TIP3    H142463   6.442   4.034   5.433 -0.7049 -1.2553 -0.8301
 7016TIP3    H242464   6.400   4.115   5.312 -0.1455 -0.1719 -0.3109
 7017TIP3   OH242465   1.070   4.091  12.328  1.1237 -0.5635 -0.0193
 7017TIP3    H142466   0.997   4.126  12.379  0.6705 -0.0091 -1.0301
 7017TIP3    H242467   1.148   4.132  12.366  0.8242 -0.4446  0.4656
 7018TIP3   OH242468   4.867   1.770  11.871  0.4077 -0.0596 -0.1053
 7018TIP3    H142469   4.914   1.837  11.821 -2.0915  0.5276 -1.7807
 7018TIP3    H242470   4.844   1.813  11.953  0.2662  0.5951 -0.4864
 7019TIP3   OH242471   3.602   3.521  13.205  0.0412  0.0486 -0.2503
 7019TIP3    H142472   3.527   3.473  13.170  0.8985 -2.1368  0.7710
 7019TIP3    H242473   3.588   3.611  13.177 -2.9353 -0.3050 -0.0931
 7020TIP3   OH242474   5.710   5.961   1.699  0.7887 -0.6489 -0.4746
 7020TIP3    H142475   5.737   5.992   1.786 -0.5146 -2.3910  0.5828
 7020TIP3    H242476   5.692   6.041   1.650  0.8362  0.3448  1.0875
 7021TIP3   OH242477   0.180   3.149  12.185  0.4140  0.1692 -0.7857
 7021TIP3    H142478   0.105   3.094  12.209  1.6205 -1.6078 -0.9609
 7021TIP3    H242479   0.145   3.238  12.182 -2.1737 -0.8379 -2.8979
 7022TIP3   OH242480   4.456   5.032   5.305 -0.2145 -0.1465  0.1507
 7022TIP3    H142481   4.456   5.124   5.333 -1.5501  0.2066 -0.9936
 7022TIP3    H242482   4.497   4.985   5.378  0.1208  1.3010  0.9091
 7023TIP3   OH242483   6.537   2.257  17.055  0.1566 -0.0692  0.1944
 7023TIP3    H142484   6.631   2.244  17.065  0.0907 -0.4286  0.3134
 7023TIP3    H242485   6.530   2.323  16.985  0.4279 -1.6194 -1.3284
 7024TIP3   OH242486   6.783   6.116  11.549  0.4788  0.1213  0.0205
 7024TIP3    H142487   6.743   6.042  11.595  0.5312 -0.1491 -0.3581
 7024TIP3    H242488   6.752   6.107  11.459  1.1364  0.0872 -0.2076
 7025TIP3   OH242489   5.293   4.863  15.236 -0.0491  0.3609 -0.5905
 7025TIP3    H142490   5.220   4.803  15.252  0.2925 -0.5276 -2.3023
 7025TIP3    H242491   5.370   4.815  15.264  0.2169  0.0235 -1.8775
 7026TIP3   OH242492   3.255   5.451   3.346  0.0074  0.4169 -0.7644
 7026TIP3    H142493   3.176   5.499   3.319  0.8060  3.2066  1.6188
 7026TIP3    H242494   3.290   5.415   3.265 -2.5566  0.9374 -2.1509
 7027TIP3   OH242495   4.463   3.830  16.117 -0.9354  0.2445 -0.5792
 7027TIP3    H142496   4.520   3.906  16.113 -2.7772  1.6429 -0.9023
 7027TIP3    H242497   4.464   3.803  16.209  1.3620 -0.6490 -0.8475
 7028TIP3   OH242498   4.105   6.153  15.349 -0.1123 -0.5731 -0.2537
 7028TIP3    H142499   4.042   6.223  15.359  0.5222 -0.4745  3.6919
 7028TIP3    H242500   4.183   6.196  15.314 -0.2334  0.4101  0.6664
 7029TIP3   OH242501   5.695   3.711  15.884  0.0981  0.5491 -0.4477
 7029TIP3    H142502   5.651   3.704  15.969  0.0784  1.2979 -0.3882
 7029TIP3    H242503   5.654   3.644  15.830  0.3709 -0.1825  0.2450
 7030TIP3   OH242504   3.782   0.705  15.801 -0.9586 -0.2088 -0.4949
 7030TIP3    H142505   3.765   0.637  15.866 -1.0763 -0.8691 -1.2080
 7030TIP3    H242506   3.714   0.692  15.734  0.0555 -0.4862 -1.4933
 7031TIP3   OH242507   6.059   3.460  15.841 -0.8609 -0.1213 -0.8147
 7031TIP3    H142508   6.121   3.471  15.769 -0.2915 -0.3134 -0.3652
 7031TIP3    H242509   6.114   3.464  15.920 -1.4278 -0.2530 -0.4117
 7032TIP3   OH242510   4.334   0.071  13.820 -0.3182 -0.4350 -0.9801
 7032TIP3    H142511   4.418   0.116  13.816 -0.1096 -0.0638  4.5073
 7032TIP3    H242512   4.353  -0.011  13.864 -2.8376 -0.2940  0.4342
 7033TIP3   OH242513   2.834   2.796   2.091  0.0298  0.0069 -0.0521
 7033TIP3    H142514   2.780   2.789   2.169 -1.3275 -0.6280 -1.0297
 7033TIP3    H242515   2.787   2.856   2.034  1.4735  1.1868 -0.0231
 7034TIP3   OH242516   4.528   0.200  17.040 -0.4080  0.1009 -0.0375
 7034TIP3    H142517   4.607   0.230  17.085 -0.0200  0.1130 -0.7219
 7034TIP3    H242518   4.462   0.268  17.058  0.2308  0.9610 -0.9042
 7035TIP3   OH242519   6.062   3.131   6.358 -0.1266  0.1896 -0.3274
 7035TIP3    H142520   6.120   3.063   6.391  0.6882  0.3203 -1.4695
 7035TIP3    H242521   6.008   3.156   6.433 -0.3572 -1.6347  0.1205
 7036TIP3   OH242522   2.463   5.926   3.459 -0.2777  0.0728 -0.6148
 7036TIP3    H142523   2.539   5.911   3.403 -1.0593 -0.6381 -1.4745
 7036TIP3    H242524   2.500   5.931   3.548  0.6484 -1.2225 -0.9247
 7037TIP3   OH242525   3.506   4.393  15.804 -0.0621  0.1039 -0.7423
 7037TIP3    H142526   3.588   4.392  15.755  1.1665  0.4667  1.2221
 7037TIP3    H242527   3.523   4.336  15.879 -2.0345 -0.8031 -0.9717
 7038TIP3   OH242528   3.693   5.972   1.510 -0.1799  0.0336 -0.4325
 7038TIP3    H142529   3.652   6.054   1.482 -0.2438  0.7124  1.6009
 7038TIP3    H242530   3.787   5.986   1.499 -0.1827  0.4339  0.0622
 7039TIP3   OH242531   6.201   3.434   1.208 -0.1586  0.5107  0.0694
 7039TIP3    H142532   6.214   3.355   1.259  0.6855 -0.7044 -1.9404
 7039TIP3    H242533   6.253   3.501   1.253 -1.2626  0.0588  2.0436
 7040TIP3   OH242534   2.208   2.972   1.809  0.4244 -0.9421  0.7244
 7040TIP3    H142535   2.209   3.039   1.877  0.5033 -1.3655  1.1426
 7040TIP3    H242536   2.201   2.890   1.857  2.5774 -1.3823  0.3350
 7041TIP3   OH242537   0.649   0.380   2.209 -0.4835 -0.2352 -0.0997
 7041TIP3    H142538   0.557   0.363   2.230 -0.7255  0.0924 -0.8918
 7041TIP3    H242539   0.648   0.457   2.153  0.3046 -0.0246  0.1557
 7042TIP3   OH242540   1.911   5.230  14.979  0.0425  0.5402 -0.1688
 7042TIP3    H142541   2.001   5.230  14.948  0.8537  2.0029  2.0032
 7042TIP3    H242542   1.904   5.150  15.032 -0.3228 -0.1955 -1.3055
 7043TIP3   OH242543   6.518   5.774   2.367  0.6915 -0.1344  0.3058
 7043TIP3    H142544   6.551   5.793   2.279  3.2824 -3.8216  0.3437
 7043TIP3    H242545   6.585   5.808   2.426 -0.2969  0.9729  0.7931
 7044TIP3   OH242546   4.962   6.038  14.657  0.0027  0.0813  0.5165
 7044TIP3    H142547   5.012   5.982  14.717 -0.5260 -1.0737 -0.1067
 7044TIP3    H242548   4.870   6.014  14.674 -0.1967  0.4173 -0.0961
 7045TIP3   OH242549   3.115   2.856  13.136 -0.2822 -0.0816 -0.3177
 7045TIP3    H142550   3.067   2.808  13.068  1.3642  0.2846 -1.7745
 7045TIP3    H242551   3.128   2.792  13.206 -0.1342 -1.1150 -1.2607
 7046TIP3   OH242552   2.211   3.855   4.680 -0.0287 -0.8431 -0.5211
 7046TIP3    H142553   2.198   3.845   4.775  2.2474  0.7641 -0.0085
 7046TIP3    H242554   2.177   3.942   4.660  0.8184 -0.5900 -0.8971
 7047TIP3   OH242555   0.893   4.310  16.354  0.5426  0.4049  0.4313
 7047TIP3    H142556   0.980   4.338  16.327 -0.4546  0.3310 -3.1322
 7047TIP3    H242557   0.897   4.214  16.353 -0.2804  0.3454 -2.4991
 7048TIP3   OH242558   3.668   4.131  16.663 -0.0501 -0.4671  0.1129
 7048TIP3    H142559   3.618   4.114  16.583 -0.9635 -0.0571  0.5897
 7048TIP3    H242560   3.758   4.143  16.633 -0.2076 -1.3518 -0.7431
 7049TIP3   OH242561   2.675   2.563   4.638 -0.5096  0.1585 -0.6296
 7049TIP3    H142562   2.643   2.577   4.548  1.3503  0.5080 -1.2665
 7049TIP3    H242563   2.596   2.556   4.691 -1.6348  1.2532 -2.1099
 7050TIP3   OH242564   4.221   0.066   3.928 -0.2258 -0.4031 -0.3920
 7050TIP3    H142565   4.173   0.110   3.998 -2.1503 -1.7331 -0.8402
 7050TIP3    H242566   4.199   0.116   3.850 -0.8284 -0.9450 -0.5777
 7051TIP3   OH242567   4.718   4.684  15.218  0.3490  0.6348 -0.1134
 7051TIP3    H142568   4.770   4.608  15.191 -0.5725  0.3927 -1.2327
 7051TIP3    H242569   4.633   4.647  15.241  0.4519  1.1167  1.0887
 7052TIP3   OH242570   3.054   2.532  15.680  0.4591  0.1503  0.0105
 7052TIP3    H142571   3.111   2.543  15.604  0.5840 -0.0512  0.0782
 7052TIP3    H242572   3.102   2.475  15.739 -0.2749 -0.9324 -0.4169
 7053TIP3   OH242573   2.552   1.015  16.549  0.1417 -0.0400 -0.4100
 7053TIP3    H142574   2.457   1.022  16.540  0.2425  1.8331 -0.2185
 7053TIP3    H242575   2.572   0.926  16.520 -2.1669 -2.0485  3.5579
 7054TIP3   OH242576   5.640   3.313  10.879 -0.3089  0.1460 -0.3036
 7054TIP3    H142577   5.614   3.221  10.875 -0.7969  0.2149  1.0405
 7054TIP3    H242578   5.717   3.314  10.935 -0.4971  0.5837 -0.0439
 7055TIP3   OH242579   5.051   6.331   5.527 -0.3216 -0.1262 -0.3521
 7055TIP3    H142580   5.096   6.287   5.599 -0.5663 -0.7857 -0.6056
 7055TIP3    H242581   5.006   6.404   5.568  0.6939  0.3405 -0.0394
 7056TIP3   OH242582   6.375   3.240  13.395 -0.3248  0.7197  0.0082
 7056TIP3    H142583   6.464   3.275  13.393  0.3615 -0.9447  0.6381
 7056TIP3    H242584   6.322   3.312  13.431  0.6963  1.8300 -0.6790
 7057TIP3   OH242585   4.793   2.218   5.404 -0.2040 -0.1456 -0.6269
 7057TIP3    H142586   4.791   2.273   5.325  2.0555  0.5404 -0.2223
 7057TIP3    H242587   4.759   2.134   5.375 -0.7040  0.5094 -1.9967
 7058TIP3   OH242588   4.964   4.598  17.201 -0.4936 -0.3526  0.7278
 7058TIP3    H142589   4.986   4.518  17.154 -1.1126 -0.2443  0.2491
 7058TIP3    H242590   5.048   4.642  17.213 -0.2437 -0.7241  0.3549
 7059TIP3   OH242591   3.675   2.768   3.329  0.3031 -0.4340 -0.1560
 7059TIP3    H142592   3.585   2.799   3.321  0.4861  0.0445 -0.4081
 7059TIP3    H242593   3.677   2.720   3.412  0.5744  2.2448  1.4467
 7060TIP3   OH242594   0.413   4.191   0.298 -0.5727 -0.1301  0.1544
 7060TIP3    H142595   0.328   4.151   0.277 -0.8853 -0.8077  2.5255
 7060TIP3    H242596   0.455   4.128   0.357  1.2409  0.5745 -0.3574
 7061TIP3   OH242597   3.297   4.344  13.317 -0.2889  0.1136 -0.7166
 7061TIP3    H142598   3.228   4.279  13.301  0.3889 -1.1232  1.1396
 7061TIP3    H242599   3.268   4.390  13.396  1.2662 -0.8513  0.4631
 7062TIP3   OH242600   6.018   4.263  10.063  0.2751  0.7416 -0.3534
 7062TIP3    H142601   6.069   4.320  10.006  2.0754 -0.9612 -0.5105
 7062TIP3    H242602   6.082   4.227  10.124 -1.0313 -0.1559  0.5186
 7063TIP3   OH242603   4.129   0.358   0.716 -0.2437 -0.1336 -0.0789
 7063TIP3    H142604   4.156   0.266   0.718 -0.8658 -0.3125 -0.0515
 7063TIP3    H242605   4.149   0.390   0.804  2.1283  0.3695 -0.7755
 7064TIP3   OH242606   0.619   0.199   2.460  0.0656  0.0415 -0.5130
 7064TIP3    H142607   0.711   0.184   2.479  0.6285  3.2509 -0.4263
 7064TIP3    H242608   0.610   0.186   2.366  0.8460  0.7259 -0.6870
 7065TIP3   OH242609   6.616   5.633   5.191 -0.9371 -0.3484  0.3884
 7065TIP3    H142610   6.623   5.725   5.168  0.6086  0.0385  2.3214
 7065TIP3    H242611   6.696   5.593   5.156 -1.1805 -0.8009  0.3333
 7066TIP3   OH242612   0.932   6.123   2.350 -0.3558 -1.1993 -0.0294
 7066TIP3    H142613   0.846   6.124   2.391 -0.5066 -2.1795 -0.3062
 7066TIP3    H242614   0.938   6.207   2.305 -0.7764 -0.7302  0.7798
 7067TIP3   OH242615   2.679   6.640  14.495 -0.5073 -0.0374 -0.0843
 7067TIP3    H142616   2.644   6.723  14.462 -1.3192 -0.7242 -0.9782
 7067TIP3    H242617   2.686   6.584  14.417 -0.7940 -1.1010  0.6465
 7068TIP3   OH242618   4.572   5.544   3.020 -0.1573 -0.1440  0.1059
 7068TIP3    H142619   4.597   5.490   3.095 -2.0610 -0.0916  0.7873
 7068TIP3    H242620   4.482   5.570   3.038  0.4711  2.6610 -0.5447
 7069TIP3   OH242621   6.198   5.319  16.720  0.3356  0.1557 -0.1074
 7069TIP3    H142622   6.189   5.266  16.799 -0.7387 -1.4617 -1.2770
 7069TIP3    H242623   6.247   5.264  16.659  1.9353  1.7227 -0.3057
 7070TIP3   OH242624   6.221   4.848  16.981  0.5835 -0.7442 -0.1192
 7070TIP3    H142625   6.219   4.806  16.896  2.4223  0.7232 -0.9091
 7070TIP3    H242626   6.145   4.811  17.028  0.9061 -3.2663 -1.5257
 7071TIP3   OH242627   6.587   0.676  12.476 -0.0265 -0.3105  0.5392
 7071TIP3    H142628   6.649   0.672  12.549  1.6545 -1.0623 -0.9180
 7071TIP3    H242629   6.569   0.770  12.465  1.7535 -0.0045  0.2052
 7072TIP3   OH242630   5.720   4.622   4.954 -0.9172 -0.0142  0.0383
 7072TIP3    H142631   5.781   4.556   4.922 -0.9288  0.2157 -0.4632
 7072TIP3    H242632   5.673   4.580   5.026  1.0795  0.3814  1.6098
 7073TIP3   OH242633   3.547   3.107  14.850 -0.1904  0.3105  0.0873
 7073TIP3    H142634   3.490   3.061  14.788 -1.1090 -0.5627  1.5290
 7073TIP3    H242635   3.571   3.188  14.805  1.5953 -1.6259 -2.5772
 7074TIP3   OH242636   1.340   4.043  17.174  0.0569  0.6726 -0.6989
 7074TIP3    H142637   1.378   4.107  17.235  1.9030  0.3969 -1.5133
 7074TIP3    H242638   1.298   3.979  17.230  1.3280  0.6793  0.2942
 7075TIP3   OH242639   6.714   0.386   2.924  0.3644  0.5794  0.2338
 7075TIP3    H142640   6.662   0.367   2.845  0.2882 -0.5348  0.5426
 7075TIP3    H242641   6.768   0.461   2.899  2.3284 -1.4445 -1.7980
 7076TIP3   OH242642   0.159   4.050   0.702 -0.6962  0.4407  0.4301
 7076TIP3    H142643   0.240   4.093   0.676 -0.9525 -0.2629 -1.6369
 7076TIP3    H242644   0.188   3.966   0.740 -0.3444  1.2876  2.0918
 7077TIP3   OH242645   4.431   3.032  14.435  0.5139 -0.1659  0.0842
 7077TIP3    H142646   4.356   3.018  14.378  1.0864 -1.1100 -0.4516
 7077TIP3    H242647   4.483   3.099  14.391  0.0875  0.3455  0.3572
 7078TIP3   OH242648   1.632   4.146   0.695  0.7599  0.2429  0.5188
 7078TIP3    H142649   1.547   4.114   0.662  1.7430 -0.1026 -1.7988
 7078TIP3    H242650   1.621   4.240   0.702 -0.2054  0.0712  1.4047
 7079TIP3   OH242651   1.158   3.627   1.728 -0.2779  0.2908  0.7243
 7079TIP3    H142652   1.226   3.690   1.702 -1.3883  1.4502  0.5891
 7079TIP3    H242653   1.194   3.583   1.805  1.2860 -0.2332 -0.2724
 7080TIP3   OH242654   5.234   6.091   3.333 -0.2182  0.0201  0.2192
 7080TIP3    H142655   5.153   6.040   3.324 -0.3125 -0.1643  2.0098
 7080TIP3    H242656   5.302   6.027   3.353 -0.4589  0.6056  3.1541
 7081TIP3   OH242657   6.454   4.710  15.937  0.3216  0.1192 -0.0765
 7081TIP3    H142658   6.483   4.696  16.027 -1.1978  0.3843  0.4707
 7081TIP3    H242659   6.529   4.749  15.893  0.7663  0.8894  1.3314
 7082TIP3   OH242660   5.980   6.391  12.034  0.0419  0.6284 -0.2092
 7082TIP3    H142661   6.018   6.345  11.960 -0.3754 -0.2655  0.1288
 7082TIP3    H242662   5.901   6.432  12.000 -0.7372 -0.6839 -0.0122
 7083TIP3   OH242663   1.418   5.142   0.376 -0.3538 -0.1631  0.1480
 7083TIP3    H142664   1.395   5.181   0.291 -0.1676  0.7556  0.5053
 7083TIP3    H242665   1.510   5.118   0.367 -0.2412  0.2384  0.1922
 7084TIP3   OH242666   5.918   1.962  12.353  0.0490  0.4164 -1.0707
 7084TIP3    H142667   5.914   1.867  12.350  0.1408  0.4278 -1.5505
 7084TIP3    H242668   5.872   1.991  12.274  1.4146  0.7388 -1.7496
 7085TIP3   OH242669   5.875   2.096   6.195 -0.2220  0.5769  0.4058
 7085TIP3    H142670   5.902   2.006   6.212  0.2493  0.7752  0.7125
 7085TIP3    H242671   5.800   2.110   6.252  0.7351  0.9187  1.6101
 7086TIP3   OH242672   3.323   6.599   1.371 -0.4353  0.0765 -0.6601
 7086TIP3    H142673   3.381   6.643   1.434  1.1053 -0.5142 -1.6302
 7086TIP3    H242674   3.279   6.671   1.325  0.6173  0.5789 -0.9024
 7087TIP3   OH242675   5.219   0.220   5.328  0.2082 -0.0433 -0.2477
 7087TIP3    H142676   5.270   0.187   5.402 -0.2206  0.6522  0.3673
 7087TIP3    H242677   5.240   0.161   5.256 -1.1446 -2.1769  1.0255
 7088TIP3   OH242678   0.973   3.603   6.408 -0.4178  0.2818 -0.1642
 7088TIP3    H142679   1.028   3.599   6.330 -0.3932 -0.1224 -0.1299
 7088TIP3    H242680   0.893   3.646   6.379 -1.1951 -1.6244 -0.8817
 7089TIP3   OH242681   5.790   0.467  17.119 -0.0859 -0.2981 -0.4031
 7089TIP3    H142682   5.876   0.506  17.134 -0.7504  0.5460  1.2904
 7089TIP3    H242683   5.778   0.472  17.024  2.3523 -1.7793 -0.8525
 7090TIP3   OH242684   3.186   5.449   4.298  0.3498 -0.2900  0.5338
 7090TIP3    H142685   3.278   5.446   4.322  0.2890 -2.8020  0.6040
 7090TIP3    H242686   3.161   5.541   4.307  2.6741  0.3020  1.1121
 7091TIP3   OH242687   1.930   4.381   2.493  0.1580 -0.1643 -0.1517
 7091TIP3    H142688   1.846   4.419   2.519  1.2030  1.8736  0.3247
 7091TIP3    H242689   1.921   4.288   2.514 -1.0811  0.4511  2.2466
 7092TIP3   OH242690   6.477   1.535   1.274 -0.3365 -0.1179 -0.5894
 7092TIP3    H142691   6.421   1.461   1.294 -0.1787 -1.0015 -3.3299
 7092TIP3    H242692   6.423   1.612   1.294 -0.5381 -0.9177  2.1423
 7093TIP3   OH242693   6.583   0.403  13.073  0.0634  0.2098 -0.0390
 7093TIP3    H142694   6.605   0.377  12.984  0.8911  0.4925  0.0829
 7093TIP3    H242695   6.516   0.340  13.101 -1.8445  1.4677 -1.6580
 7094TIP3   OH242696   5.715   6.664   2.633 -0.0887 -0.6083  0.8598
 7094TIP3    H142697   5.683   6.630   2.549 -1.7617 -0.4368  1.4093
 7094TIP3    H242698   5.752   6.587   2.677 -1.9347 -1.3318  1.2069
 7095TIP3   OH242699   2.567   0.726  13.531  0.6918 -0.0257  0.0936
 7095TIP3    H142700   2.626   0.800  13.527  0.2591  0.3260  0.1305
 7095TIP3    H242701   2.480   0.765  13.541  0.6468 -0.5700  2.1215
 7096TIP3   OH242702   6.646   1.400   2.773 -0.4383 -0.0537 -0.5005
 7096TIP3    H142703   6.705   1.359   2.836 -0.2633 -0.7751 -1.1214
 7096TIP3    H242704   6.575   1.336   2.762 -0.1998 -0.1696 -1.4195
 7097TIP3   OH242705   4.875   3.878  13.328 -0.2270 -0.3370 -0.6747
 7097TIP3    H142706   4.815   3.810  13.357 -1.0728  0.7821  0.2824
 7097TIP3    H242707   4.823   3.934  13.270 -0.3033  0.9465  0.5879
 7098TIP3   OH242708   2.008   1.773  12.774 -0.3247  0.7607 -0.2716
 7098TIP3    H142709   2.046   1.804  12.856 -1.1805 -0.7186  0.7129
 7098TIP3    H242710   1.940   1.711  12.802 -0.3332 -0.0709 -2.1135
 7099TIP3   OH242711   3.988   2.458  11.941 -0.1934  0.1963 -0.5328
 7099TIP3    H142712   4.051   2.431  11.874 -0.2269  0.0715 -0.5138
 7099TIP3    H242713   4.011   2.549  11.959  0.3885 -0.0327 -0.0780
 7100TIP3   OH242714   1.380   0.884   4.967 -0.0011 -0.2681  0.0010
 7100TIP3    H142715   1.443   0.850   4.904  0.5052 -1.4529  1.1316
 7100TIP3    H242716   1.323   0.942   4.915  0.8008 -0.7135 -1.3990
 7101TIP3   OH242717   0.597   3.198   0.439 -0.3018 -0.3464 -0.1493
 7101TIP3    H142718   0.630   3.196   0.349  0.4707  0.1923  0.1200
 7101TIP3    H242719   0.569   3.108   0.456 -0.1121 -0.5321 -0.8061
 7102TIP3   OH242720   1.237   1.509  12.940  0.3710 -0.1263  0.1888
 7102TIP3    H142721   1.245   1.512  12.845  1.0278 -0.1045  0.2386
 7102TIP3    H242722   1.235   1.601  12.967  1.2463 -0.1214  0.2688
 7103TIP3   OH242723   5.984   3.649  14.373 -1.0320  0.6561 -0.0624
 7103TIP3    H142724   5.936   3.601  14.441  1.1418  0.1676  1.1873
 7103TIP3    H242725   5.983   3.591  14.297 -0.1761 -0.5085  0.7955
 7104TIP3   OH242726   4.886   6.454  14.888  0.0715 -0.1248  0.0579
 7104TIP3    H142727   4.976   6.487  14.894 -0.3885  1.6732 -1.9798
 7104TIP3    H242728   4.849   6.469  14.975  1.0832  1.1892  0.2911
 7105TIP3   OH242729   4.318   3.991  15.400  0.3441 -0.2349 -0.0990
 7105TIP3    H142730   4.357   3.918  15.447  0.0414 -0.3249  0.0132
 7105TIP3    H242731   4.389   4.055  15.392  0.4271 -0.2704  0.3727
 7106TIP3   OH242732   0.895   6.641  12.342 -0.0354  0.7414 -0.1119
 7106TIP3    H142733   0.846   6.595  12.410  0.3746 -0.3048 -0.5201
 7106TIP3    H242734   0.897   6.732  12.372 -0.0917  0.3465  1.1418
 7107TIP3   OH242735   1.345   1.091   2.144  0.1831 -0.1144 -0.1078
 7107TIP3    H142736   1.266   1.136   2.175  0.4637  1.8084 -2.1522
 7107TIP3    H242737   1.312   1.024   2.084 -0.1229 -1.8497  1.9006
 7108TIP3   OH242738   0.327   0.738  16.617  0.1551  0.3402 -0.1769
 7108TIP3    H142739   0.334   0.812  16.677  1.8707  0.1743 -0.1513
 7108TIP3    H242740   0.347   0.775  16.531  0.0817  0.0963 -0.2958
 7109TIP3   OH242741   5.805   2.036   1.972  0.6957  0.3462  0.3038
 7109TIP3    H142742   5.879   2.017   2.029 -0.0697  0.5670  1.3804
 7109TIP3    H242743   5.791   1.954   1.924 -0.7695 -0.9444  2.8605
 7110TIP3   OH242744   3.024   4.728  15.890  0.2769 -0.2146  0.1362
 7110TIP3    H142745   3.082   4.693  15.958  3.6929  1.4750 -1.7313
 7110TIP3    H242746   3.044   4.822  15.889  1.0634 -0.3603 -3.8172
 7111TIP3   OH242747   6.780   2.257   4.459  0.2616 -0.0739  0.6247
 7111TIP3    H142748   6.735   2.293   4.383  1.5354  3.9995  1.6685
 7111TIP3    H242749   6.871   2.247   4.431  0.4245 -0.0119  1.1220
 7112TIP3   OH242750   6.067   3.245  17.161  0.4792 -0.3172 -0.1699
 7112TIP3    H142751   6.007   3.205  17.098  0.9827  0.6965 -1.2979
 7112TIP3    H242752   6.043   3.337  17.161  0.4373 -0.3222  1.1803
 7113TIP3   OH242753   0.528   4.272   2.694 -0.0702 -0.6158 -0.3136
 7113TIP3    H142754   0.495   4.353   2.735 -2.7094 -2.2285  0.8647
 7113TIP3    H242755   0.530   4.292   2.601 -0.1273  1.0145  0.0099
 7114TIP3   OH242756   1.619   3.268   1.712 -0.9472  0.1786 -0.5340
 7114TIP3    H142757   1.566   3.278   1.791  0.7555 -0.8145  0.7677
 7114TIP3    H242758   1.570   3.208   1.657 -0.9613 -1.1032  0.8618
 7115TIP3   OH242759   1.834   2.099  14.627  0.0898 -0.4103  0.4478
 7115TIP3    H142760   1.782   2.069  14.702 -0.2923 -2.1413 -0.4783
 7115TIP3    H242761   1.818   2.193  14.622  0.0400 -0.2979  2.4720
 7116TIP3   OH242762   0.129   5.051  16.593  0.6481  0.4709 -0.3205
 7116TIP3    H142763   0.046   5.005  16.607  2.0530 -1.7119  1.2063
 7116TIP3    H242764   0.146   5.095  16.677  1.2597  0.5503 -0.4823
 7117TIP3   OH242765   0.599   4.237   5.514 -0.2240  0.2594  0.1353
 7117TIP3    H142766   0.601   4.306   5.580  0.3454 -1.0690  1.5414
 7117TIP3    H242767   0.630   4.279   5.434  1.6295  1.2668  1.3390
 7118TIP3   OH242768   2.416   1.406   0.914  0.2571  0.4395 -0.9685
 7118TIP3    H142769   2.456   1.492   0.909 -3.1151  2.3592  2.7211
 7118TIP3    H242770   2.334   1.414   0.865  0.1032 -0.8041 -0.9476
 7119TIP3   OH242771   6.140   3.190  13.272  0.0872 -0.1641 -0.1006
 7119TIP3    H142772   6.189   3.196  13.190  0.9330 -1.9212  0.2544
 7119TIP3    H242773   6.207   3.199  13.340 -0.0788 -2.2892  0.3874
 7120TIP3   OH242774   6.450   6.175  16.044  0.5808  0.3503  0.4061
 7120TIP3    H142775   6.449   6.270  16.054 -1.5534  0.7165 -2.4283
 7120TIP3    H242776   6.466   6.161  15.950 -0.3462 -2.0563  0.5621
 7121TIP3   OH242777   0.043   0.622  11.980  0.3955 -0.3962  0.5770
 7121TIP3    H142778   0.008   0.709  11.998 -0.4089 -1.0200  2.0322
 7121TIP3    H242779   0.046   0.578  12.065  0.7628 -1.8091 -0.1455
 7122TIP3   OH242780   1.594   0.800  11.841  0.0050  0.0453  0.6077
 7122TIP3    H142781   1.688   0.783  11.834 -0.0786 -0.2149  0.0723
 7122TIP3    H242782   1.564   0.809  11.751 -0.5600 -0.2654  0.7622
 7123TIP3   OH242783   3.469   1.888  15.769 -0.0798 -0.0343  0.0193
 7123TIP3    H142784   3.451   1.815  15.710  1.0759 -0.5014  0.2346
 7123TIP3    H242785   3.564   1.903  15.761 -0.3976  1.8483 -0.4994
 7124TIP3   OH242786   0.573   1.060  11.366 -0.0929  0.0924  0.0450
 7124TIP3    H142787   0.542   0.969  11.366  1.0806 -0.3135  0.7354
 7124TIP3    H242788   0.556   1.091  11.277 -0.9971 -0.6237 -0.0381
 7125TIP3   OH242789   2.993   4.867  13.197  0.0534  0.2448  0.3978
 7125TIP3    H142790   3.086   4.883  13.214 -0.0082  0.0420  0.9636
 7125TIP3    H242791   2.949   4.906  13.273 -0.4214  1.5411 -0.5239
 7126TIP3   OH242792   0.287   0.720  13.984 -0.7467 -0.0406  0.3871
 7126TIP3    H142793   0.318   0.633  14.012  0.0275 -0.0077 -0.3431
 7126TIP3    H242794   0.224   0.702  13.915 -0.7655 -0.0222  0.3986
 7127TIP3   OH242795   6.365   6.740  16.931 -0.5122 -0.8411 -0.1589
 7127TIP3    H142796   6.280   6.781  16.943  0.5730  0.5988  3.2035
 7127TIP3    H242797   6.347   6.646  16.932 -2.1641 -0.5373 -0.4071
 7128TIP3   OH242798   5.990   6.200  15.535  0.3811 -0.5114  0.8070
 7128TIP3    H142799   5.943   6.209  15.618  2.0037 -0.3340  1.7141
 7128TIP3    H242800   6.060   6.137  15.553  1.3450  0.2666 -0.1654
 7129TIP3   OH242801   3.051   5.106  15.092  0.0915 -0.2483  0.2350
 7129TIP3    H142802   3.141   5.089  15.117  0.2641 -1.5442 -1.1950
 7129TIP3    H242803   3.054   5.113  14.996 -1.3282 -0.2993  0.1802
 7130TIP3   OH242804   4.107   1.952  14.465 -0.1031  0.2318  0.0916
 7130TIP3    H142805   4.129   1.884  14.529  1.0312 -1.0057 -1.5677
 7130TIP3    H242806   4.191   1.986  14.436 -0.6279  1.2403 -0.2555
 7131TIP3   OH242807   5.292   3.034   5.240 -0.5703 -0.1805  0.6546
 7131TIP3    H142808   5.281   3.016   5.147 -0.5788 -0.9452  0.7998
 7131TIP3    H242809   5.292   3.129   5.246 -1.5777 -0.1305 -0.0069
 7132TIP3   OH242810   5.840   1.555  13.243  0.1987  0.2838  0.1667
 7132TIP3    H142811   5.820   1.561  13.336  1.8303  2.0183  0.4166
 7132TIP3    H242812   5.840   1.645  13.212  1.1567 -0.1668 -1.1956
 7133TIP3   OH242813   2.060   3.664   5.070  0.5120 -0.0433 -0.2381
 7133TIP3    H142814   2.065   3.604   4.995 -0.6449 -0.0826 -0.3029
 7133TIP3    H242815   2.128   3.730   5.053  0.9564 -0.6434 -0.7942
 7134TIP3   OH242816   1.491   2.156  17.013  0.3411 -0.1491  0.2048
 7134TIP3    H142817   1.557   2.120  17.072  0.0734 -0.4365  0.3313
 7134TIP3    H242818   1.409   2.115  17.040 -0.0033  0.6854  0.4664
 7135TIP3   OH242819   4.537   5.283  11.923 -0.7510  0.4851 -0.2643
 7135TIP3    H142820   4.482   5.205  11.934 -0.0831  0.1610  0.8194
 7135TIP3    H242821   4.482   5.344  11.873 -2.5230  0.5969  1.7484
 7136TIP3   OH242822   3.148   4.797   2.614 -0.6189  0.0385  0.1104
 7136TIP3    H142823   3.236   4.771   2.588 -1.1938 -0.3784 -1.5286
 7136TIP3    H242824   3.160   4.853   2.690  1.0229 -0.3861  0.1748
 7137TIP3   OH242825   6.579   1.670  15.563  0.4368  0.2919  0.4922
 7137TIP3    H142826   6.524   1.631  15.495 -2.1193 -1.3227  3.4038
 7137TIP3    H242827   6.575   1.764  15.545 -0.8790 -0.0398 -1.1004
 7138TIP3   OH242828   1.584   5.554   4.952  0.4239  0.0242 -0.3494
 7138TIP3    H142829   1.675   5.534   4.933  0.0537 -0.7379 -1.3455
 7138TIP3    H242830   1.586   5.594   5.039  1.6159 -0.7676 -0.0031
 7139TIP3   OH242831   4.036   0.494   2.485 -0.7687 -0.2340  0.2998
 7139TIP3    H142832   4.018   0.439   2.409 -1.5539 -0.6812  0.8013
 7139TIP3    H242833   3.985   0.574   2.470  0.9432  0.6948 -0.7849
 7140TIP3   OH242834   4.473   0.640  13.930 -0.3047 -0.0214 -0.0433
 7140TIP3    H142835   4.498   0.559  13.974 -1.5946 -0.0543  0.6706
 7140TIP3    H242836   4.399   0.673  13.981 -0.3394  1.1634 -0.8295
 7141TIP3   OH242837   5.293   2.044  13.602  0.1453  0.4085  0.8344
 7141TIP3    H142838   5.386   2.037  13.625  0.7294  1.4559 -1.1034
 7141TIP3    H242839   5.280   1.976  13.536 -0.3096  0.6976  0.6267
 7142TIP3   OH242840   4.325   0.832  17.090  0.6236  0.6340  0.4938
 7142TIP3    H142841   4.243   0.784  17.101  1.7973 -1.5116  0.3451
 7142TIP3    H242842   4.318   0.871  17.003  0.5142 -1.1579 -0.3381
 7143TIP3   OH242843   0.642   4.280   6.287  0.5653  0.5077  0.3067
 7143TIP3    H142844   0.553   4.257   6.263  1.5800 -1.5403 -1.5787
 7143TIP3    H242845   0.635   4.311   6.377 -2.0633  0.5631  0.1142
 7144TIP3   OH242846   1.832   2.395   6.349 -0.2103  0.2787  0.1710
 7144TIP3    H142847   1.833   2.477   6.396  1.9106  0.3566  0.0383
 7144TIP3    H242848   1.858   2.418   6.259  1.4829 -0.6487  0.3919
 7145TIP3   OH242849   0.415   3.566   3.862 -0.7889  0.0929  0.4421
 7145TIP3    H142850   0.389   3.648   3.906 -1.3833 -1.2396  2.6354
 7145TIP3    H242851   0.332   3.522   3.844 -0.3589 -1.1588  1.4987
 7146TIP3   OH242852   3.113   0.774   4.127 -0.1072 -0.5332 -0.3943
 7146TIP3    H142853   3.072   0.819   4.053  1.1134  0.2032 -0.6331
 7146TIP3    H242854   3.040   0.734   4.174 -1.3186  2.2690  0.2215
 7147TIP3   OH242855   1.918   4.748  11.813  0.2683  0.2447  0.2296
 7147TIP3    H142856   1.860   4.676  11.839  0.0162  0.1743 -0.5170
 7147TIP3    H242857   1.940   4.729  11.722 -1.1503  1.9953 -0.5175
 7148TIP3   OH242858   1.647   2.827   0.776  0.4082 -0.0404  0.2581
 7148TIP3    H142859   1.741   2.843   0.784  0.2955  0.8021 -0.0730
 7148TIP3    H242860   1.624   2.782   0.856  1.3163 -1.2957 -0.1635
 7149TIP3   OH242861   3.948   0.771   0.895 -0.7254  0.4364 -0.0527
 7149TIP3    H142862   4.036   0.807   0.883  0.2313 -0.5126  3.3375
 7149TIP3    H242863   3.936   0.712   0.821  1.9351 -0.1987 -0.0412
 7150TIP3   OH242864   1.639   1.865  12.037  0.5408 -0.3964  0.5904
 7150TIP3    H142865   1.578   1.828  12.101 -0.4603 -0.8949 -0.6241
 7150TIP3    H242866   1.598   1.947  12.009  0.7917 -0.3681  0.3044
 7151TIP3   OH242867   5.332   6.248   5.426  0.5593 -0.2513  0.3675
 7151TIP3    H142868   5.307   6.341   5.429  2.1475  0.1932  0.6512
 7151TIP3    H242869   5.249   6.201   5.428 -0.2395  1.1348  2.1926
 7152TIP3   OH242870   6.133   5.252  13.987  0.0131  0.1626  0.4017
 7152TIP3    H142871   6.055   5.222  13.940  0.1374  2.6526 -1.4898
 7152TIP3    H242872   6.129   5.348  13.981  2.7615  0.3450  1.0011
 7153TIP3   OH242873   5.842   5.732   1.601  0.2411 -0.6804 -0.1132
 7153TIP3    H142874   5.783   5.802   1.627 -0.8268 -2.0753  1.3348
 7153TIP3    H242875   5.909   5.775   1.547  0.4596  1.6706  1.9583
 7154TIP3   OH242876   5.234   0.376  14.561  0.2964  0.6057 -0.5495
 7154TIP3    H142877   5.305   0.337  14.510  0.1257 -0.3795 -0.0564
 7154TIP3    H242878   5.179   0.301  14.585 -1.1386  1.4031 -1.2838
 7155TIP3   OH242879   5.425   0.095   5.481  0.4602 -0.7249  0.3264
 7155TIP3    H142880   5.482   0.167   5.452 -1.2847  0.9173  0.8401
 7155TIP3    H242881   5.451   0.079   5.571  0.3590 -0.2257  0.4448
 7156TIP3   OH242882   0.485   4.476   1.736  0.0203 -0.7507  0.1354
 7156TIP3    H142883   0.439   4.393   1.726  0.0602 -0.7869  0.2606
 7156TIP3    H242884   0.565   4.454   1.783 -1.1126 -0.2506  2.3425
 7157TIP3   OH242885   2.885   2.813   2.509  0.4567 -0.3099  0.0181
 7157TIP3    H142886   2.825   2.743   2.535 -1.0855  1.7468  2.2565
 7157TIP3    H242887   2.828   2.879   2.468  1.3309  1.0990  1.0216
 7158TIP3   OH242888   0.970   4.466   1.851 -0.5050  0.1582 -0.2450
 7158TIP3    H142889   0.952   4.529   1.781 -0.7210 -2.6195 -2.7987
 7158TIP3    H242890   1.064   4.475   1.868 -0.3158  0.4072 -1.3873
 7159TIP3   OH242891   4.444   3.813  17.100 -0.2912  0.2990  0.4694
 7159TIP3    H142892   4.523   3.837  17.148 -0.8924  1.1944  1.0306
 7159TIP3    H242893   4.378   3.876  17.129 -1.2061 -0.4171 -0.0165
 7160TIP3   OH242894   1.220   5.357  13.269 -0.3220  0.4051 -0.0465
 7160TIP3    H142895   1.206   5.340  13.362 -0.1759  1.3215  0.1466
 7160TIP3    H242896   1.138   5.397  13.239 -0.7733 -0.8910 -0.5651
 7161TIP3   OH242897   3.231   4.864   1.937  0.0776 -0.8355  0.0752
 7161TIP3    H142898   3.200   4.791   1.990 -0.5256 -0.9966 -0.5039
 7161TIP3    H242899   3.326   4.866   1.953 -0.1260 -0.7342  1.3446
 7162TIP3   OH242900   3.884   4.111  17.234  0.3682 -0.3656  0.1174
 7162TIP3    H142901   3.845   4.107  17.321  0.0242 -1.9833 -0.0931
 7162TIP3    H242902   3.810   4.123  17.175  0.5042 -0.2725 -0.0331
 7163TIP3   OH242903   2.777   6.428  16.866 -0.6339  0.0878  0.7086
 7163TIP3    H142904   2.704   6.487  16.887 -0.8679  0.1521 -0.2610
 7163TIP3    H242905   2.840   6.484  16.820  0.1293  0.0800  1.7154
 7164TIP3   OH242906   2.196   3.567   5.342  0.7530  0.1664 -0.0013
 7164TIP3    H142907   2.120   3.542   5.289  0.3597  0.2944  0.4960
 7164TIP3    H242908   2.207   3.495   5.404  1.2648 -0.0240 -0.3141
 7165TIP3   OH242909   3.122   6.393   4.399  0.6517  0.3464  0.2529
 7165TIP3    H142910   3.053   6.448   4.362  0.2707  0.0789  0.5715
 7165TIP3    H242911   3.080   6.310   4.419  1.2973 -0.1605 -0.4900
 7166TIP3   OH242912   0.371   6.687   0.853  0.2143 -0.2121  0.0485
 7166TIP3    H142913   0.432   6.647   0.914 -1.9311 -2.4140  0.8275
 7166TIP3    H242914   0.297   6.714   0.906 -0.1947  1.0084 -1.1014
 7167TIP3   OH242915   1.276   2.778  15.257  0.2595  0.6291 -0.8034
 7167TIP3    H142916   1.285   2.841  15.328  0.4942  2.3455 -2.3132
 7167TIP3    H242917   1.350   2.718  15.269 -1.1704 -0.6598  1.8784
 7168TIP3   OH242918   3.706   3.621   2.848  0.5399  0.3959  0.6716
 7168TIP3    H142919   3.706   3.714   2.870 -0.9647  0.4937  0.2957
 7168TIP3    H242920   3.762   3.614   2.771 -0.4283  1.1939 -0.1140
 7169TIP3   OH242921   3.097   3.121   2.354 -0.2130 -0.1276  0.8342
 7169TIP3    H142922   3.169   3.157   2.302 -2.4638  2.2740 -0.7781
 7169TIP3    H242923   3.064   3.048   2.302 -1.0087  0.8389 -0.0319
 7170TIP3   OH242924   3.765   6.716   3.175 -0.0542  0.0179  0.1304
 7170TIP3    H142925   3.714   6.646   3.214 -0.9061 -1.2687 -3.1294
 7170TIP3    H242926   3.848   6.674   3.150  0.2444  0.6481  0.0538
 7171TIP3   OH242927   3.576   5.259   4.494  0.1388 -0.0333  0.0740
 7171TIP3    H142928   3.548   5.342   4.458 -0.2058 -0.3803 -0.4697
 7171TIP3    H242929   3.510   5.236   4.559 -0.8071 -0.8043 -1.1351
 7172TIP3   OH242930   0.661   3.179  11.160  0.2485 -0.1458  0.4281
 7172TIP3    H142931   0.717   3.128  11.219  0.8359 -0.9919 -0.8392
 7172TIP3    H242932   0.600   3.115  11.124 -0.5772  0.5050  0.6501
 7173TIP3   OH242933   5.808   0.056   3.282 -0.2874 -1.0849 -0.5007
 7173TIP3    H142934   5.869   0.058   3.356 -1.7559 -1.0966  0.7319
 7173TIP3    H242935   5.770   0.144   3.281  1.5004 -0.2881 -2.7841
 7174TIP3   OH242936   3.985   5.162  16.643  0.2007  0.2805  0.1233
 7174TIP3    H142937   4.018   5.244  16.607  0.7785 -0.7521 -1.7124
 7174TIP3    H242938   3.956   5.111  16.567 -0.9019 -0.9043  1.2952
 7175TIP3   OH242939   1.418   2.655   3.869  0.2476  0.2734  0.6456
 7175TIP3    H142940   1.360   2.579   3.856  0.2823  0.3895 -0.2437
 7175TIP3    H242941   1.495   2.635   3.816  1.6269 -0.4908  2.8525
 7176TIP3   OH242942   4.780   4.168   1.258 -0.5922 -0.3737 -0.6677
 7176TIP3    H142943   4.703   4.149   1.311 -0.8819  0.4997 -0.7786
 7176TIP3    H242944   4.806   4.082   1.223 -1.0902 -0.7750 -0.0654
 7177TIP3   OH242945   4.135   4.184   3.689 -0.4834 -0.8370 -0.1589
 7177TIP3    H142946   4.208   4.133   3.653 -1.0844 -2.2906  0.6486
 7177TIP3    H242947   4.126   4.258   3.630  1.3653 -0.8765 -0.5214
 7178TIP3   OH242948   1.029   5.710  14.059 -0.3184  0.2437  0.3683
 7178TIP3    H142949   1.116   5.687  14.029  0.4360 -0.2674  2.8597
 7178TIP3    H242950   1.040   5.796  14.099 -1.2016  0.6774 -0.2990
 7179TIP3   OH242951   0.286   3.906   2.323  0.4296  0.3470 -0.2420
 7179TIP3    H142952   0.235   3.927   2.402  1.0254 -0.6688  0.4177
 7179TIP3    H242953   0.361   3.965   2.328  0.9599 -0.3779  0.4569
 7180TIP3   OH242954   4.101   4.917   3.419 -0.3951 -0.2955 -0.0883
 7180TIP3    H142955   4.045   4.954   3.350 -1.6405 -1.1136  0.4607
 7180TIP3    H242956   4.040   4.871   3.477  0.5171  1.0562  2.0178
 7181TIP3   OH242957   1.498   2.225  15.618  0.5801  0.0330 -0.4965
 7181TIP3    H142958   1.417   2.264  15.585 -0.0936 -0.8016  0.1403
 7181TIP3    H242959   1.561   2.297  15.617  0.1009  0.4610 -1.9079
 7182TIP3   OH242960   5.829   6.619  15.305 -0.0844  0.3185 -0.1931
 7182TIP3    H142961   5.818   6.560  15.379 -0.0850  1.4710  0.7410
 7182TIP3    H242962   5.866   6.564  15.235 -2.8172 -1.4675 -0.3185
 7183TIP3   OH242963   3.617   6.185  16.275  0.0858  0.0678 -0.0968
 7183TIP3    H142964   3.623   6.244  16.200 -1.1197  1.2127  0.6841
 7183TIP3    H242965   3.585   6.103  16.238  0.0245  0.4606 -0.9197
 7184TIP3   OH242966   0.294   4.821  14.029 -0.1216 -0.0884 -0.2878
 7184TIP3    H142967   0.327   4.850  13.944 -1.3676  0.2458 -0.6746
 7184TIP3    H242968   0.200   4.840  14.026 -0.3069 -0.7442  0.8846
 7185TIP3   OH242969   2.539   5.419   3.910  0.1201 -0.0750  0.5314
 7185TIP3    H142970   2.466   5.385   3.859 -0.5119  2.1518 -0.0818
 7185TIP3    H242971   2.597   5.459   3.846  0.8220  0.0726  1.2443
 7186TIP3   OH242972   6.194   5.221  12.574 -0.1115 -0.3082 -0.2782
 7186TIP3    H142973   6.274   5.212  12.523  0.1860  0.2082  0.1012
 7186TIP3    H242974   6.181   5.315  12.584 -1.2063 -0.3735 -1.0270
 7187TIP3   OH242975   0.844   4.747   3.636  0.1790 -0.4008 -0.9868
 7187TIP3    H142976   0.798   4.713   3.560 -1.4667  1.0831 -0.6715
 7187TIP3    H242977   0.816   4.838   3.644 -0.2600 -0.7264  1.8040
 7188TIP3   OH242978   2.989   5.872  14.586 -0.0723 -0.5277  0.0516
 7188TIP3    H142979   3.025   5.869  14.675 -0.6059 -0.5699  0.2673
 7188TIP3    H242980   3.063   5.850  14.530  0.5774  0.6884  0.4100
 7189TIP3   OH242981   4.667   2.959  11.073  0.0602  0.3299  0.1580
 7189TIP3    H142982   4.709   3.004  11.000  1.0139 -0.9173 -0.0751
 7189TIP3    H242983   4.614   3.027  11.115 -1.2503  0.8603 -2.2351
 7190TIP3   OH242984   4.159   5.307  16.134  0.0191  0.5062  0.5004
 7190TIP3    H142985   4.067   5.284  16.126 -0.0105  0.9040 -0.4721
 7190TIP3    H242986   4.192   5.251  16.204 -0.5272 -1.0069 -0.4091
 7191TIP3   OH242987   1.549   5.028   0.891  0.3594 -0.2666  0.2223
 7191TIP3    H142988   1.614   4.962   0.915  0.5955 -0.3252 -0.5598
 7191TIP3    H242989   1.545   5.025   0.795  0.8730  1.3320  0.1294
 7192TIP3   OH242990   3.875   1.242   1.962  0.2742 -0.1897 -0.6608
 7192TIP3    H142991   3.816   1.181   2.005 -1.7315  1.8783 -0.3719
 7192TIP3    H242992   3.933   1.187   1.910  0.1709 -2.4725  1.5545
 7193TIP3   OH242993   4.117   0.601   1.889  0.7378  0.2128  0.0054
 7193TIP3    H142994   4.061   0.619   1.814  0.5746  0.3421  0.1591
 7193TIP3    H242995   4.064   0.547   1.947  0.4173  1.1660  0.6140
 7194TIP3   OH242996   1.731   4.658   1.835 -0.4836 -0.4397 -0.2001
 7194TIP3    H142997   1.647   4.700   1.854 -0.0437  0.4769 -0.2539
 7194TIP3    H242998   1.745   4.674   1.742  0.7209  1.2060  0.2351
 7195TIP3   OH242999   2.665   0.086   3.022  0.0228 -0.6150 -0.3769
 7195TIP3    H143000   2.584   0.065   2.975 -0.3965  0.3320 -0.1003
 7195TIP3    H243001   2.725   0.015   3.000 -0.3278 -0.4354 -1.9568
 7196TIP3   OH243002   2.624   1.683  14.197  0.0406  0.0445  0.1376
 7196TIP3    H143003   2.565   1.700  14.124 -2.2217  0.6541  2.0542
 7196TIP3    H243004   2.596   1.744  14.265  2.5568 -0.0220  1.2993
 7197TIP3   OH243005   3.756   2.744   0.713  0.0615  0.2530 -0.0668
 7197TIP3    H143006   3.824   2.786   0.765  2.6739 -2.1888 -1.3688
 7197TIP3    H243007   3.751   2.796   0.632  0.8328  0.0741 -0.2308
 7198TIP3   OH243008   6.600   4.402   3.483  0.3851  0.1111  0.2569
 7198TIP3    H143009   6.519   4.448   3.464 -0.9818 -1.6159  1.7582
 7198TIP3    H243010   6.669   4.463   3.458 -1.3619  2.8109  1.8878
 7199TIP3   OH243011   2.587   2.452   5.840 -0.0079 -0.1529  0.2717
 7199TIP3    H143012   2.640   2.434   5.763 -0.3377  0.2901 -0.0562
 7199TIP3    H243013   2.529   2.376   5.849 -0.1403 -0.0882 -0.0569
 7200TIP3   OH243014   0.852   5.324  15.437  0.3490 -1.2796  0.8275
 7200TIP3    H143015   0.945   5.313  15.456  0.3276 -0.1634  1.5626
 7200TIP3    H243016   0.843   5.416  15.412 -0.2341 -1.8377 -1.1558
 7201TIP3   OH243017   3.127   0.258   6.666 -0.7525  0.0619 -0.0682
 7201TIP3    H143018   3.185   0.189   6.696  1.4670  1.3784 -1.1830
 7201TIP3    H243019   3.051   0.212   6.631  0.1421 -1.7592  0.3380
 7202TIP3   OH243020   1.028   5.130  12.655 -0.2157  0.0286 -0.1197
 7202TIP3    H143021   1.070   5.211  12.626  2.9322 -1.2154  0.7591
 7202TIP3    H243022   1.029   5.073  12.578  1.7303 -0.7422  0.4270
 7203TIP3   OH243023   6.181   0.295   1.026  0.0438 -0.2197 -0.2198
 7203TIP3    H143024   6.241   0.221   1.031  2.7099  1.9028  0.0603
 7203TIP3    H243025   6.211   0.346   0.951 -1.2578  1.0022  0.0656
 7204TIP3   OH243026   1.325   0.566   1.945  0.2470 -0.6278 -0.4390
 7204TIP3    H143027   1.248   0.543   1.894  0.6262 -1.5626 -0.6071
 7204TIP3    H243028   1.306   0.536   2.034  0.1043 -0.1609 -0.3122
 7205TIP3   OH243029   4.809   2.398   3.279  0.7576 -0.0841  0.1954
 7205TIP3    H143030   4.749   2.473   3.287 -0.4819 -0.8969 -1.2208
 7205TIP3    H243031   4.895   2.438   3.271  0.2089  1.1771  0.4080
 7206TIP3   OH243032   4.038   2.304  16.197  0.6610  0.1407 -0.2214
 7206TIP3    H143033   4.107   2.238  16.196 -0.1400 -0.7066 -0.5345
 7206TIP3    H243034   4.018   2.317  16.290  0.7273 -0.1503 -0.1652
 7207TIP3   OH243035   0.837   1.738  14.655  0.2405 -0.5032  0.6785
 7207TIP3    H143036   0.890   1.679  14.602  0.6376  0.3091  0.1642
 7207TIP3    H243037   0.760   1.687  14.678  0.2565 -0.9963 -0.3366
 7208TIP3   OH243038   0.035   2.988  15.382 -0.2661 -0.4486 -0.1114
 7208TIP3    H143039  -0.007   2.904  15.398 -0.9364  0.0461  0.7580
 7208TIP3    H243040   0.035   2.998  15.287 -2.0934 -0.4664 -0.1229
 7209TIP3   OH243041   1.637   1.005  12.458 -0.3012 -0.5461  0.6621
 7209TIP3    H143042   1.682   0.984  12.377  1.1227 -0.2940  1.3829
 7209TIP3    H243043   1.549   1.031  12.429  0.5464  0.6931 -0.9080
 7210TIP3   OH243044   1.360   2.959   3.331  0.1562  0.3820  0.2195
 7210TIP3    H143045   1.320   2.899   3.393 -3.3671  1.9071 -0.4822
 7210TIP3    H243046   1.364   2.910   3.249 -2.3896  0.9579 -0.2661
 7211TIP3   OH243047   3.485   5.004   5.114  0.2104 -0.1891 -0.2302
 7211TIP3    H143048   3.405   5.024   5.064 -0.9006 -0.5203  1.3825
 7211TIP3    H243049   3.512   4.918   5.081 -0.0165 -0.0043 -0.9009
 7212TIP3   OH243050   1.295   2.310  12.831  0.3079  0.3242  0.3387
 7212TIP3    H143051   1.241   2.317  12.909  0.7251 -1.3447  0.7883
 7212TIP3    H243052   1.334   2.397  12.821 -1.7516  1.2903  0.4938
 7213TIP3   OH243053   4.697   1.088   3.328 -0.1513  0.0552  0.6068
 7213TIP3    H143054   4.635   1.025   3.365 -0.8144 -1.3150 -2.6713
 7213TIP3    H243055   4.644   1.141   3.269  1.3459  0.4309 -0.4179
 7214TIP3   OH243056   0.834   2.415  16.532 -0.8464 -0.5595  0.0394
 7214TIP3    H143057   0.924   2.440  16.511 -1.1427  0.6141  0.1738
 7214TIP3    H243058   0.816   2.341  16.473  0.0865 -0.5932 -0.2165
 7215TIP3   OH243059   1.751   1.197  12.223  0.2125  0.2484 -0.0500
 7215TIP3    H143060   1.763   1.139  12.148  3.1967  0.6098  0.0766
 7215TIP3    H243061   1.810   1.271  12.206 -0.7262  1.4185  1.5940
 7216TIP3   OH243062   0.756   5.160  12.586 -0.2447 -0.1572  0.3033
 7216TIP3    H143063   0.696   5.093  12.619 -0.0480 -0.1261  0.7299
 7216TIP3    H243064   0.841   5.135  12.622 -0.0953  0.0898  0.1249
 7217TIP3   OH243065   2.543   4.604   2.579  0.3123  0.0678 -0.0158
 7217TIP3    H143066   2.490   4.674   2.618  0.4814 -0.7907  1.7628
 7217TIP3    H243067   2.626   4.607   2.627  0.3884 -1.2353 -0.0702
 7218TIP3   OH243068   5.925   4.463   5.545 -0.0817  0.0153 -0.2069
 7218TIP3    H143069   5.984   4.419   5.606  0.3904  0.5081 -0.2962
 7218TIP3    H243070   5.838   4.451   5.583  0.1120 -0.4404  0.1000
 7219TIP3   OH243071   4.401   4.527  15.629 -0.8981 -0.0518  0.1810
 7219TIP3    H143072   4.398   4.489  15.717  1.2970  0.2094  0.3947
 7219TIP3    H243073   4.418   4.620  15.643 -1.9105  0.2467 -0.4859
 7220TIP3   OH243074   5.532   0.357  16.748 -0.0066 -0.0941  0.4005
 7220TIP3    H143075   5.441   0.385  16.745 -0.0591 -0.3960 -1.4229
 7220TIP3    H243076   5.529   0.271  16.791 -0.9238 -1.2822 -1.9382
 7221TIP3   OH243077   5.901   3.037  16.778 -0.4126  0.1981  0.0130
 7221TIP3    H143078   5.890   3.131  16.767  0.6343  0.3851  0.4615
 7221TIP3    H243079   5.887   3.000  16.691 -3.8837  0.4300  0.4046
 7222TIP3   OH243080   2.203   6.008   0.358 -0.1256  0.6736 -0.0755
 7222TIP3    H143081   2.144   6.040   0.426  1.7780  1.3046  1.3254
 7222TIP3    H243082   2.166   5.923   0.333 -0.5176  0.1171  2.2295
 7223TIP3   OH243083   5.403   4.981   0.587 -0.2970  0.1014  0.3436
 7223TIP3    H143084   5.374   4.898   0.624 -1.2740  0.2593 -0.0467
 7223TIP3    H243085   5.323   5.029   0.569  0.1571  0.2368 -1.4783
 7224TIP3   OH243086   4.236   1.949   5.776 -0.0865 -0.8402 -0.6255
 7224TIP3    H143087   4.207   2.032   5.815 -0.2220 -2.2192  2.2721
 7224TIP3    H243088   4.156   1.898   5.766 -0.1700 -0.2652 -3.5005
 7225TIP3   OH243089   3.064   5.805  12.860 -0.2144  0.1364 -0.2931
 7225TIP3    H143090   2.987   5.859  12.840  1.0421  2.5876  1.3696
 7225TIP3    H243091   3.086   5.765  12.776 -3.2694 -0.5899 -0.8134
 7226TIP3   OH243092   2.422   0.956   1.207 -0.0461  0.0070  0.1152
 7226TIP3    H143093   2.503   1.007   1.203 -1.7079  2.7202  0.3096
 7226TIP3    H243094   2.360   1.004   1.152 -2.4298 -0.3330  2.3949
 7227TIP3   OH243095   4.897   5.535   2.243  0.2354 -0.4373 -0.0660
 7227TIP3    H143096   4.894   5.617   2.292  1.7222 -0.0341 -0.6106
 7227TIP3    H243097   4.929   5.471   2.307  0.7686 -0.2178 -0.1095
 7228TIP3   OH243098   4.993   4.927  14.519 -0.5068 -0.4466  0.1640
 7228TIP3    H143099   4.993   4.941  14.614 -2.6733 -0.5320  0.2058
 7228TIP3    H243100   4.934   4.853  14.507  0.8535 -1.3370 -1.1526
 7229TIP3   OH243101   2.695   6.698   5.664  0.1215  0.1359 -0.5437
 7229TIP3    H143102   2.781   6.658   5.649  1.0723  0.3578  3.8266
 7229TIP3    H243103   2.635   6.646   5.611  2.5494 -1.7703 -1.5100
 7230TIP3   OH243104   4.267   1.449   1.300 -0.6375  0.0736  0.0687
 7230TIP3    H143105   4.287   1.356   1.302  1.2020  0.4615  0.8639
 7230TIP3    H243106   4.173   1.454   1.320 -0.7889 -1.6001 -0.1771
 7231TIP3   OH243107   2.059   6.313   3.449 -0.2291  0.2236 -0.6500
 7231TIP3    H143108   2.050   6.350   3.361 -1.0669 -1.4228 -1.2771
 7231TIP3    H243109   2.027   6.223   3.441  0.3488 -0.1717  1.1836
 7232TIP3   OH243110   0.291   2.269   2.464  0.1144 -0.4206 -0.2565
 7232TIP3    H143111   0.219   2.210   2.483  0.8707 -1.2000  0.2247
 7232TIP3    H243112   0.255   2.332   2.401 -1.0970 -0.5350  0.3144
 7233TIP3   OH243113   2.657   6.273   2.457  0.6666  0.0176  0.9879
 7233TIP3    H143114   2.606   6.330   2.400 -0.8278 -0.5575  1.7255
 7233TIP3    H243115   2.677   6.326   2.534  2.2618  0.6373  0.1611
 7234TIP3   OH243116   6.622   4.445   1.566  0.6388  0.0934  0.1446
 7234TIP3    H143117   6.681   4.404   1.630  1.8570  1.6966  0.0828
 7234TIP3    H243118   6.578   4.514   1.615 -0.9182 -0.8491  0.0836
 7235TIP3   OH243119   1.105   3.576   6.167  0.1815  0.0390 -0.5441
 7235TIP3    H143120   1.179   3.631   6.142  0.9794 -0.3885  0.8034
 7235TIP3    H243121   1.028   3.622   6.134  1.0960  0.1175 -2.6252
 7236TIP3   OH243122   0.686   2.382   3.263  0.3994 -0.6065 -0.2869
 7236TIP3    H143123   0.626   2.344   3.199  1.6960 -2.9276 -0.1968
 7236TIP3    H243124   0.751   2.429   3.211 -1.6043  2.2096 -0.3729
 7237TIP3   OH243125   1.522   5.403   3.111 -0.6782  0.1036 -0.5372
 7237TIP3    H143126   1.534   5.498   3.116 -1.0276  0.0968  0.6359
 7237TIP3    H243127   1.434   5.388   3.147 -0.5228 -0.6822 -0.4757
 7238TIP3   OH243128   4.358   2.521   3.943  0.0061  0.0117  0.5696
 7238TIP3    H143129   4.392   2.610   3.933  0.8903 -0.4488 -0.5839
 7238TIP3    H243130   4.263   2.533   3.945 -0.0134  0.8026 -1.9587
 7239TIP3   OH243131   6.704   1.819   6.395  0.3695 -0.1551 -0.5410
 7239TIP3    H143132   6.781   1.764   6.385 -0.6980 -1.9404  0.8073
 7239TIP3    H243133   6.630   1.759   6.383 -0.8115  0.8253  1.6724
 7240TIP3   OH243134   5.287   0.645  13.316 -0.1222 -0.3993 -0.5182
 7240TIP3    H143135   5.327   0.710  13.373 -1.0422 -0.4803  0.2388
 7240TIP3    H243136   5.221   0.695  13.266  0.0889 -0.4946 -0.8955
 7241TIP3   OH243137   1.559   6.143  15.988  0.0886 -0.3379 -0.0585
 7241TIP3    H143138   1.619   6.193  16.044 -0.2180 -0.0854  0.0520
 7241TIP3    H243139   1.562   6.189  15.904 -0.9007  0.4368  0.3098
 7242TIP3   OH243140   1.355   2.689   5.212  0.0700  0.3599  0.4051
 7242TIP3    H143141   1.432   2.746   5.208  0.1756  0.1139 -1.1751
 7242TIP3    H243142   1.317   2.707   5.298  1.2976  1.2522  0.7814
 7243TIP3   OH243143   3.899   6.082  11.708  0.4285 -0.3024 -0.0489
 7243TIP3    H143144   3.843   6.013  11.742  1.0429 -1.5707 -1.5144
 7243TIP3    H243145   3.963   6.036  11.653  1.5620  1.3183 -0.1325
 7244TIP3   OH243146   1.245   6.129  13.142  0.0576 -0.4334 -0.4281
 7244TIP3    H143147   1.301   6.194  13.184  2.0132 -2.2326 -0.1897
 7244TIP3    H243148   1.214   6.074  13.214 -0.4812 -0.6082 -0.7884
 7245TIP3   OH243149   4.974   2.128  12.480 -0.4181 -0.2826  0.5439
 7245TIP3    H143150   5.052   2.074  12.494  0.9806  0.4549 -3.7285
 7245TIP3    H243151   4.991   2.207  12.531  0.8821 -0.8146  0.9812
 7246TIP3   OH243152   4.633   3.461  16.027 -0.3492  0.2800  0.0748
 7246TIP3    H143153   4.628   3.455  15.931  0.0840 -3.2125  0.2102
 7246TIP3    H243154   4.548   3.495  16.053 -0.5007  1.2143 -1.5385
 7247TIP3   OH243155   2.793   5.956  14.274  0.6399 -0.2918  0.0150
 7247TIP3    H143156   2.860   5.887  14.265  4.1822  2.7537  1.7312
 7247TIP3    H243157   2.790   5.974  14.368 -2.3981 -0.0709 -0.0699
 7248TIP3   OH243158   4.554   5.097   3.168  0.5710  0.2376  0.0289
 7248TIP3    H143159   4.486   5.042   3.130  1.0669 -0.4790  0.1668
 7248TIP3    H243160   4.579   5.157   3.098  2.3242 -1.8493 -1.1892
 7249TIP3   OH243161   6.602   3.269  16.444 -0.4598 -0.2087 -0.1905
 7249TIP3    H143162   6.695   3.270  16.469 -0.5692 -0.2751  0.2249
 7249TIP3    H243163   6.564   3.198  16.496 -0.9671  0.5306  0.4620
 7250TIP3   OH243164   3.232   0.344  12.923 -0.3638  0.3774  0.2338
 7250TIP3    H143165   3.153   0.395  12.941 -0.5160  0.6285 -1.0666
 7250TIP3    H243166   3.300   0.410  12.908 -0.2649  0.1875 -0.1666
 7251TIP3   OH243167   6.536   2.144   4.547  0.1165  0.1125 -0.5597
 7251TIP3    H143168   6.493   2.224   4.518 -0.9682 -0.2516  0.0112
 7251TIP3    H243169   6.629   2.159   4.532  0.0634  2.0308  0.8792
 7252TIP3   OH243170   0.049   3.661  13.349 -0.2143 -0.1417 -0.4149
 7252TIP3    H143171  -0.013   3.595  13.319  1.2207 -1.3907 -0.7450
 7252TIP3    H243172   0.124   3.611  13.380  0.1429  1.2937  1.1129
 7253TIP3   OH243173   1.827   2.760  15.414  0.2948  0.6749 -0.3649
 7253TIP3    H143174   1.761   2.810  15.463  0.3277 -0.1402  0.5324
 7253TIP3    H243175   1.867   2.703  15.479  1.6408  0.8875 -0.9791
 7254TIP3   OH243176   3.791   3.383  15.259  0.3667 -0.0940 -0.2875
 7254TIP3    H143177   3.757   3.409  15.173 -1.1090 -2.1279 -0.3463
 7254TIP3    H243178   3.843   3.305  15.241 -0.0250 -0.5773  0.6698
 7255TIP3   OH243179   4.934   3.018  14.818  0.0249  0.2153 -0.4084
 7255TIP3    H143180   4.909   3.093  14.765  0.7614  0.8515  0.1463
 7255TIP3    H243181   4.960   3.055  14.902 -0.2901 -0.7188  0.1090
 7256TIP3   OH243182   0.487   4.335  10.940 -0.4009 -0.2005 -0.2277
 7256TIP3    H143183   0.569   4.374  10.971  0.0773 -2.6081  1.6892
 7256TIP3    H243184   0.420   4.400  10.960  0.7984  1.0094 -0.1010
 7257TIP3   OH243185   5.608   5.856  16.017  0.6922 -0.4191 -0.1058
 7257TIP3    H143186   5.546   5.927  16.034  0.0560 -0.7069 -1.1267
 7257TIP3    H243187   5.691   5.899  15.999  0.2986  0.0713 -0.7461
 7258TIP3   OH243188   3.412   0.353   0.609  0.1499 -0.5525  0.4818
 7258TIP3    H143189   3.352   0.302   0.663 -0.7049 -1.7407 -1.5431
 7258TIP3    H243190   3.460   0.288   0.557  0.0869  0.5966 -1.0722
 7259TIP3   OH243191   3.411   4.186  13.684 -0.1248  0.7905  0.5467
 7259TIP3    H143192   3.318   4.175  13.703 -0.5625  0.6948 -1.5529
 7259TIP3    H243193   3.428   4.279  13.700 -0.3171  0.5995  1.9357
 7260TIP3   OH243194   2.978   5.134   3.774  0.0489  0.5631  0.2643
 7260TIP3    H143195   2.885   5.143   3.752  0.0838  0.5563  0.1140
 7260TIP3    H243196   2.998   5.043   3.756 -0.4856 -0.0374  2.4779
 7261TIP3   OH243197   1.746   6.151  13.431 -0.2957 -0.1444  0.0853
 7261TIP3    H143198   1.789   6.168  13.515 -1.3735 -0.9832  0.8318
 7261TIP3    H243199   1.816   6.120  13.373  0.4494  0.4063  0.6876
 7262TIP3   OH243200   4.117   1.669   5.007 -0.3577  0.3019 -0.5457
 7262TIP3    H143201   4.097   1.742   4.948 -0.2546  1.9759  1.4203
 7262TIP3    H243202   4.151   1.711   5.087  0.4132 -1.9408  0.3560
 7263TIP3   OH243203   3.643   1.417   1.900  0.5202 -0.3263 -0.7126
 7263TIP3    H143204   3.644   1.445   1.808  0.2957  0.7249 -0.4067
 7263TIP3    H243205   3.735   1.404   1.922  0.4758 -2.0702 -1.5227
 7264TIP3   OH243206   2.720   1.606   5.671 -0.4175 -0.0947 -0.4175
 7264TIP3    H143207   2.662   1.541   5.712  1.1581 -2.0331 -1.1477
 7264TIP3    H243208   2.669   1.687   5.672 -1.1868 -0.5234  3.4961
 7265TIP3   OH243209   3.773   6.755  13.735 -0.3622 -0.0540  0.2460
 7265TIP3    H143210   3.801   6.836  13.692 -0.8217  0.1433  0.3116
 7265TIP3    H243211   3.711   6.716  13.673 -0.6803  0.0010  0.5355
 7266TIP3   OH243212   3.038   1.323  11.389 -0.7696 -0.3073  0.9042
 7266TIP3    H143213   2.966   1.315  11.326  0.2575  1.3885 -0.5432
 7266TIP3    H243214   3.009   1.392  11.449 -1.1239 -0.8960  1.4113
 7267TIP3   OH243215   0.228   4.402   1.442  0.3966  0.2168 -0.4695
 7267TIP3    H143216   0.232   4.497   1.452  0.4675  0.1768 -0.1220
 7267TIP3    H243217   0.242   4.388   1.348  1.6786  0.4836 -0.3374
 7268TIP3   OH243218   5.515   4.066  13.834  0.9269  0.2029  0.0964
 7268TIP3    H143219   5.517   4.162  13.829 -2.6241  0.3166 -0.7095
 7268TIP3    H243220   5.502   4.037  13.744  3.9632 -1.2042  0.0398
 7269TIP3   OH243221   0.924   1.069   3.177 -0.2345  0.1199 -0.8135
 7269TIP3    H143222   0.869   1.127   3.230 -0.5499  1.1492 -2.2605
 7269TIP3    H243223   0.867   0.996   3.153  0.7413 -1.9674  2.8192
 7270TIP3   OH243224   0.679   3.919   2.626  0.0595 -0.2616  0.8070
 7270TIP3    H143225   0.723   3.996   2.589  0.5145 -0.6241  0.5995
 7270TIP3    H243226   0.617   3.956   2.689 -0.7377  0.3726 -0.3150
 7271TIP3   OH243227   0.547   3.330  16.009 -0.4860  0.0212  0.1596
 7271TIP3    H143228   0.617   3.332  16.075 -0.2131 -2.3882 -0.0226
 7271TIP3    H243229   0.530   3.422  15.990  1.4837  0.6854  1.4343
 7272TIP3   OH243230   2.470   3.435   3.285 -0.0231  0.2832  0.1153
 7272TIP3    H143231   2.483   3.530   3.280 -0.5952  0.3205 -0.8059
 7272TIP3    H243232   2.548   3.402   3.330  0.1084  1.2094  0.5593
 7273TIP3   OH243233   4.457   5.058  12.566 -0.0908  0.1875 -0.2830
 7273TIP3    H143234   4.450   5.051  12.470 -2.0206 -1.3231 -0.0660
 7273TIP3    H243235   4.378   5.106  12.592 -1.0747 -1.9334  0.7688
 7274TIP3   OH243236   5.093   1.042   6.648 -0.1445  0.5765 -0.3163
 7274TIP3    H143237   5.183   1.071   6.632 -0.0534  0.3957 -0.1379
 7274TIP3    H243238   5.102   0.968   6.708 -0.4942  1.4750  0.8681
 7275TIP3   OH243239   0.884   6.619  11.214 -0.1104  0.6184  0.0489
 7275TIP3    H143240   0.925   6.660  11.291  0.9193 -2.0047  0.9492
 7275TIP3    H243241   0.887   6.687  11.147  0.5821  2.3765  1.8049
 7276TIP3   OH243242   4.272   3.959  11.883 -0.3585 -0.2118 -0.4289
 7276TIP3    H143243   4.309   3.887  11.832  1.8795 -0.3628  1.3549
 7276TIP3    H243244   4.284   3.932  11.974  1.9444  3.0936  0.3211
 7277TIP3   OH243245   6.394   1.119   5.776  0.3308 -0.1472  0.1965
 7277TIP3    H143246   6.358   1.136   5.863 -0.5497  2.2614 -0.5949
 7277TIP3    H243247   6.322   1.137   5.715  1.6957  0.8193 -1.1746
 7278TIP3   OH243248   1.876   0.663  13.808 -0.0469  0.1859 -0.3549
 7278TIP3    H143249   1.801   0.710  13.843  0.4217  1.8234 -1.4801
 7278TIP3    H243250   1.903   0.604  13.879 -2.6634 -0.7818 -0.1236
 7279TIP3   OH243251   6.540   3.230  10.767 -0.4013  0.1564 -0.4289
 7279TIP3    H143252   6.448   3.250  10.785 -0.1601  0.2737  0.6927
 7279TIP3    H243253   6.579   3.315  10.746 -0.0221  0.4597  1.4624
 7280TIP3   OH243254   1.571   6.717   2.677 -0.0040  0.3342  0.0022
 7280TIP3    H143255   1.546   6.641   2.623 -0.5021  0.0353  0.6418
 7280TIP3    H243256   1.575   6.790   2.615 -1.7389  0.2374 -0.2633
 7281TIP3   OH243257   2.241   4.487   0.084  0.2263 -0.6237  0.0372
 7281TIP3    H143258   2.237   4.429   0.008 -0.4916 -1.7475  0.9179
 7281TIP3    H243259   2.317   4.456   0.133 -0.5482 -1.2551  0.8482
 7282TIP3   OH243260   1.988   1.814   1.090  0.0455 -0.3694 -0.1777
 7282TIP3    H143261   2.041   1.893   1.094  0.1791 -0.5257  2.3445
 7282TIP3    H243262   2.022   1.760   1.162 -1.2397 -1.9288 -0.7255
 7283TIP3   OH243263   5.741   4.451   4.173  0.1621 -0.3565  0.8563
 7283TIP3    H143264   5.834   4.431   4.163 -0.5374 -2.2198 -2.6829
 7283TIP3    H243265   5.720   4.428   4.263  2.5340 -2.5041  0.8759
 7284TIP3   OH243266   1.298   3.747   6.040 -0.8162 -0.0959  0.6122
 7284TIP3    H143267   1.347   3.709   5.968 -0.9633 -0.2028  0.5693
 7284TIP3    H243268   1.354   3.733   6.117 -1.2532 -1.1549  0.7381
 7285TIP3   OH243269   3.751   4.089  13.298  0.0442 -0.0213  0.1698
 7285TIP3    H143270   3.742   4.164  13.357 -0.1831  0.0395  0.0600
 7285TIP3    H243271   3.711   4.016  13.345  0.5442 -0.1450  0.4068
 7286TIP3   OH243272   4.089   4.831   5.367  0.3597  0.4273 -0.5484
 7286TIP3    H143273   4.163   4.778   5.336  0.2150 -0.7095  1.0407
 7286TIP3    H243274   4.099   4.833   5.462  0.1717  2.9874 -0.5511
 7287TIP3   OH243275   3.701   6.357  12.824  0.2043 -0.2110  0.0383
 7287TIP3    H143276   3.761   6.327  12.756  0.8949 -1.0863  1.0043
 7287TIP3    H243277   3.631   6.402  12.777  0.6229 -0.8713 -1.2432
 7288TIP3   OH243278   2.535   1.732   1.951 -0.4148 -0.1198  0.1155
 7288TIP3    H143279   2.605   1.691   1.900  0.5972  2.1257 -0.3608
 7288TIP3    H243280   2.500   1.661   2.005  0.7420 -1.7750 -1.2486
 7289TIP3   OH243281   3.882   0.962  17.098 -0.1633  0.1393 -0.0234
 7289TIP3    H143282   3.847   0.936  17.183  0.6722  0.3284  0.3882
 7289TIP3    H243283   3.933   0.885  17.070 -0.9628 -0.1665 -0.6495
 7290TIP3   OH243284   2.444   4.338   1.858  0.3741 -0.1610 -0.3214
 7290TIP3    H143285   2.440   4.382   1.943 -3.8591 -0.8445 -0.0765
 7290TIP3    H243286   2.424   4.406   1.794 -1.5039 -0.6732 -0.3131
 7291TIP3   OH243287   0.466   5.674   2.654 -0.7044 -0.0950  0.1701
 7291TIP3    H143288   0.467   5.653   2.561 -2.0468  1.2646 -0.1679
 7291TIP3    H243289   0.558   5.669   2.681 -0.1114  1.0198 -1.5730
 7292TIP3   OH243290   4.320   3.447   0.048 -0.3198  0.4795 -0.3685
 7292TIP3    H143291   4.275   3.460   0.131 -1.3465 -1.1012 -0.6571
 7292TIP3    H243292   4.389   3.383   0.067  0.0861  0.8752 -0.5080
 7293TIP3   OH243293   3.581   6.218   0.082  0.6240 -0.2068  0.3683
 7293TIP3    H143294   3.511   6.229   0.019  0.7697 -1.4672 -0.0228
 7293TIP3    H243295   3.590   6.123   0.093  2.4664 -0.0826  0.1801
 7294TIP3   OH243296   2.068   6.140  15.024 -0.5569 -0.0708  0.1939
 7294TIP3    H143297   2.078   6.047  15.004 -0.3871 -0.4637  2.0607
 7294TIP3    H243298   1.991   6.167  14.973 -3.5425 -2.3960  3.2634
 7295TIP3   OH243299   1.723   4.336  15.225  0.1677  0.2857 -0.0769
 7295TIP3    H143300   1.699   4.425  15.249  1.8248  0.6814  0.1639
 7295TIP3    H243301   1.816   4.330  15.246  0.3371 -1.1384 -1.1738
 7296TIP3   OH243302   1.019   2.372   1.366  0.1353 -0.2138 -0.1043
 7296TIP3    H143303   1.108   2.335   1.370 -0.2248 -1.1906 -0.9985
 7296TIP3    H243304   0.982   2.336   1.286 -1.0251  0.3047  0.2007
 7297TIP3   OH243305   5.565   5.261  15.605  0.7048  0.2758 -0.2172
 7297TIP3    H143306   5.649   5.240  15.645  0.0828 -1.1347  0.3844
 7297TIP3    H243307   5.502   5.256  15.676 -0.3600 -1.9080 -1.2679
 7298TIP3   OH243308   5.849   1.496   1.049 -0.0710 -0.5814 -0.0352
 7298TIP3    H143309   5.774   1.519   1.104  0.6966  1.7637  0.0895
 7298TIP3    H243310   5.814   1.433   0.986 -2.1115  0.3510  0.1368
 7299TIP3   OH243311   0.947   1.750   0.466 -0.5039 -0.0511 -0.1737
 7299TIP3    H143312   1.007   1.721   0.397 -1.8096 -0.5454 -1.1158
 7299TIP3    H243313   1.000   1.809   0.520  1.3959 -1.9847  0.1574
 7300TIP3   OH243314   4.058   1.411  16.121 -0.5654  0.3855  0.5997
 7300TIP3    H143315   3.992   1.423  16.054  1.2475  1.1757 -1.0992
 7300TIP3    H243316   4.048   1.320  16.149  1.1924 -1.2273 -3.6069
 7301TIP3   OH243317   4.557   2.192  13.591  0.5660  0.0266 -0.0623
 7301TIP3    H143318   4.473   2.235  13.608  0.1033 -0.6453 -0.6446
 7301TIP3    H243319   4.595   2.242  13.519  0.0667 -0.4895 -0.6818
 7302TIP3   OH243320   2.893   1.037  12.955  0.0114 -0.4545 -0.0117
 7302TIP3    H143321   2.813   1.060  13.001 -1.2362 -1.9246 -1.3347
 7302TIP3    H243322   2.931   1.120  12.928 -1.5040  0.2507 -0.0283
 7303TIP3   OH243323   0.938   4.023  14.584  0.0069  0.6162  0.0010
 7303TIP3    H143324   0.905   4.047  14.498 -0.8933 -0.2932  0.0857
 7303TIP3    H243325   0.871   3.965  14.621  0.3342  1.0813  1.3554
 7304TIP3   OH243326   0.484   2.154  15.704 -0.2919  0.0436  0.1001
 7304TIP3    H143327   0.436   2.072  15.690  2.4361 -1.4711 -1.0091
 7304TIP3    H243328   0.427   2.222  15.669 -2.3313 -1.4481  0.4134
 7305TIP3   OH243329   4.554   1.464   2.607  0.0710 -0.0632 -0.4840
 7305TIP3    H143330   4.610   1.397   2.567  1.0895  0.2805  0.3520
 7305TIP3    H243331   4.544   1.530   2.539  1.1841  0.1605 -0.4455
 7306TIP3   OH243332   3.086   0.945  13.179 -0.0780 -0.0729  0.2261
 7306TIP3    H143333   3.024   0.962  13.109 -1.6742  2.7469  2.2513
 7306TIP3    H243334   3.172   0.954  13.138 -0.9541 -2.0540 -2.1396
 7307TIP3   OH243335   5.252   4.047   0.097 -0.1605  0.4850  0.5630
 7307TIP3    H143336   5.205   4.012   0.172 -0.1687 -0.9921 -0.1265
 7307TIP3    H243337   5.237   3.984   0.027  0.6318  1.3649 -0.4196
 7308TIP3   OH243338   2.873   2.658  11.394 -0.1003  0.0483  0.1560
 7308TIP3    H143339   2.965   2.674  11.377  0.2254 -1.3820  0.5118
 7308TIP3    H243340   2.860   2.686  11.484  0.3680 -1.2651  0.6387
 7309TIP3   OH243341   2.148   1.659   1.674  0.4022  0.1178  0.6148
 7309TIP3    H143342   2.175   1.578   1.630 -1.3246  0.3833 -1.0097
 7309TIP3    H243343   2.157   1.727   1.608 -0.3193  0.8698  1.2755
 7310TIP3   OH243344   3.105   6.047  15.747 -0.6032  0.1219 -0.0126
 7310TIP3    H143345   3.119   5.955  15.725 -2.1995  0.1465 -1.2697
 7310TIP3    H243346   3.075   6.045  15.838  1.6666 -0.3815  0.7403
 7311TIP3   OH243347   1.145   6.291  15.428 -0.2797  0.9167 -0.1148
 7311TIP3    H143348   1.235   6.310  15.454 -0.8374  1.6924  1.3205
 7311TIP3    H243349   1.123   6.211  15.477 -0.1821  0.3892 -0.9241
 7312TIP3   OH243350   6.343   6.147   1.268  0.0493 -0.3022 -0.3971
 7312TIP3    H143351   6.255   6.172   1.241 -0.4701 -1.4996  0.1812
 7312TIP3    H243352   6.390   6.230   1.275 -1.5125  0.4937  0.9978
 7313TIP3   OH243353   2.028   6.023  15.724 -0.7723  0.4347 -0.3297
 7313TIP3    H143354   1.957   6.078  15.758 -0.5005  1.5073 -1.4599
 7313TIP3    H243355   1.984   5.948  15.684 -1.2138  0.4955  0.0471
 7314TIP3   OH243356   5.855   4.992   3.692  0.1323  0.1694 -0.0367
 7314TIP3    H143357   5.774   5.004   3.742 -0.2873 -0.5068 -0.5507
 7314TIP3    H243358   5.846   4.905   3.653  0.2574  0.8629 -1.6448
 7315TIP3   OH243359   5.777   3.990  13.882  0.2530 -0.4579 -0.0268
 7315TIP3    H143360   5.687   4.004  13.854  0.0196 -1.1629  0.3497
 7315TIP3    H243361   5.799   4.066  13.935  0.4087  0.4704 -1.3986
 7316TIP3   OH243362   0.880   0.947   0.800 -0.3759  0.0466  0.8383
 7316TIP3    H143363   0.877   1.042   0.796 -1.3062  0.0269  1.0261
 7316TIP3    H243364   0.838   0.924   0.883 -0.7653 -0.5539  0.4851
 7317TIP3   OH243365   5.780   3.298  16.711  0.1429  1.0797 -0.0726
 7317TIP3    H143366   5.754   3.334  16.796 -4.7131 -1.2822 -0.3487
 7317TIP3    H243367   5.762   3.367  16.648  0.1507  1.5406  0.4312
 7318TIP3   OH243368   6.731   1.073   4.658 -0.2549 -0.5825 -0.8172
 7318TIP3    H143369   6.780   1.151   4.633 -0.6425  0.1429  0.6077
 7318TIP3    H243370   6.643   1.088   4.623 -0.5421 -0.0027  0.1247
 7319TIP3   OH243371   4.269   1.478  16.833 -0.0893  0.1576  0.0621
 7319TIP3    H143372   4.187   1.469  16.882  0.0761  0.6457  0.4314
 7319TIP3    H243373   4.264   1.409  16.766 -0.4254 -0.3495  0.6016
 7320TIP3   OH243374   2.194   2.689   2.231 -0.1069  0.2367  0.2528
 7320TIP3    H143375   2.116   2.698   2.286 -0.0685 -0.9118  0.5076
 7320TIP3    H243376   2.263   2.661   2.292  0.1603 -0.1304 -0.2162
 7321TIP3   OH243377   3.850   4.510  16.400  0.2211  0.3359  0.0995
 7321TIP3    H143378   3.762   4.545  16.414 -0.6501 -1.4997 -0.7216
 7321TIP3    H243379   3.843   4.457  16.321  2.5691  1.8335 -1.2050
 7322TIP3   OH243380   6.406   3.404  13.081  0.1592 -0.6417 -0.0604
 7322TIP3    H143381   6.330   3.346  13.072 -1.4341  1.2949  0.5701
 7322TIP3    H243382   6.424   3.407  13.174 -0.3952  0.6190  0.0245
 7323TIP3   OH243383   2.218   4.343  16.837 -0.2910  0.3130 -0.4661
 7323TIP3    H143384   2.227   4.341  16.741 -1.8812  1.4393 -0.6692
 7323TIP3    H243385   2.178   4.259  16.859  0.1281  0.0286 -0.7898
 7324TIP3   OH243386   6.709   0.658  14.680  0.8373  0.2132 -0.1571
 7324TIP3    H143387   6.650   0.671  14.754  0.7139  1.9017 -0.5284
 7324TIP3    H243388   6.692   0.732  14.623  2.3232 -0.0365 -0.9443
 7325TIP3   OH243389   2.225   3.782   5.942  0.2337 -0.1281 -0.2738
 7325TIP3    H143390   2.217   3.803   6.035 -1.3550  0.9890 -0.6577
 7325TIP3    H243391   2.137   3.792   5.907  0.9158 -0.0338 -2.0134
 7326TIP3   OH243392   4.016   3.172  13.679  0.2393 -0.1029  0.2264
 7326TIP3    H143393   4.045   3.145  13.592  0.8659 -1.5292  0.8503
 7326TIP3    H243394   3.942   3.230  13.664  1.8834  1.6686 -1.3441
 7327TIP3   OH243395   3.320   1.877   1.218  0.3324  0.1780 -0.5289
 7327TIP3    H143396   3.364   1.960   1.236  1.3700 -0.6180  0.6368
 7327TIP3    H243397   3.226   1.899   1.223  0.5994  1.3063 -0.3441
 7328TIP3   OH243398   1.155   0.310  15.986  0.0305 -0.1043  0.5029
 7328TIP3    H143399   1.067   0.274  15.991  0.1255 -0.5978 -0.9968
 7328TIP3    H243400   1.205   0.244  15.936  0.8230  0.9342 -0.0947
 7329TIP3   OH243401   4.521   2.424  14.900  0.2992  0.0234 -0.2658
 7329TIP3    H143402   4.590   2.439  14.964 -0.1767  2.0656 -0.2180
 7329TIP3    H243403   4.492   2.334  14.917  1.2860 -0.0161  1.2929
 7330TIP3   OH243404   4.499   1.399  11.271  0.4834 -0.0105 -0.2832
 7330TIP3    H143405   4.410   1.364  11.264 -0.3449  1.7489  1.3393
 7330TIP3    H243406   4.502   1.470  11.207  0.9868 -0.5423 -0.8676
 7331TIP3   OH243407   0.870   0.254   2.617 -0.0966 -0.3029 -0.0208
 7331TIP3    H143408   0.842   0.182   2.673  0.0898 -1.3204 -1.2218
 7331TIP3    H243409   0.884   0.327   2.677 -0.6348 -1.1603  1.1629
 7332TIP3   OH243410   0.183   4.514  11.253 -0.3214  0.5555 -0.7828
 7332TIP3    H143411   0.251   4.456  11.285 -1.0122 -0.1308 -0.5392
 7332TIP3    H243412   0.180   4.585  11.318  1.9475  1.9871 -2.1723
 7333TIP3   OH243413   0.724   1.428   3.075 -0.0239  0.5595  0.4178
 7333TIP3    H143414   0.805   1.464   3.041 -0.2356 -0.0447 -0.7366
 7333TIP3    H243415   0.685   1.501   3.124  0.1540  1.5318 -0.8469
 7334TIP3   OH243416   1.617   3.558  15.022  0.2825  1.1159 -0.0834
 7334TIP3    H143417   1.705   3.550  14.985  1.0503  2.3462  1.4183
 7334TIP3    H243418   1.631   3.591  15.111 -1.7095  1.3899  0.1584
 7335TIP3   OH243419   1.802   4.873   2.494  0.1882  0.1646 -0.4441
 7335TIP3    H143420   1.811   4.832   2.408 -2.8997 -2.6061  0.4314
 7335TIP3    H243421   1.719   4.922   2.488 -0.1448 -0.1878  0.9601
 7336TIP3   OH243422   4.398   6.172  14.397  0.8452  0.2773 -0.0980
 7336TIP3    H143423   4.461   6.122  14.449  1.3316  1.2173  0.2096
 7336TIP3    H243424   4.370   6.243  14.455 -1.4456 -0.8432  0.2306
 7337TIP3   OH243425   6.018   0.124  16.478 -0.1269 -0.2251 -0.1773
 7337TIP3    H143426   6.051   0.052  16.425  0.2168 -0.2825  0.1113
 7337TIP3    H243427   6.035   0.096  16.569  1.1775  0.7910 -0.1098
 7338TIP3   OH243428   1.964   2.641   2.387  0.4393 -0.4405  0.1948
 7338TIP3    H143429   1.954   2.580   2.314  0.6561 -1.4476  0.9988
 7338TIP3    H243430   1.901   2.612   2.452 -1.1092  1.6020 -0.3174
 7339TIP3   OH243431   5.129   4.403  11.416 -0.2666 -0.0836 -0.4720
 7339TIP3    H143432   5.034   4.396  11.422 -0.1972 -0.6966 -0.0590
 7339TIP3    H243433   5.154   4.453  11.494 -0.1558 -0.7926 -0.0525
 7340TIP3   OH243434   1.635   6.752  15.662  0.1093  0.1962 -0.5266
 7340TIP3    H143435   1.608   6.798  15.742 -0.2352  0.5370 -0.8346
 7340TIP3    H243436   1.730   6.762  15.660  0.1864 -0.3715  0.1790
 7341TIP3   OH243437   5.460   5.682   2.693 -0.0542 -0.1151 -0.5566
 7341TIP3    H143438   5.409   5.602   2.680 -1.4652  0.7976 -0.6468
 7341TIP3    H243439   5.546   5.650   2.722 -0.6540 -1.6528 -0.4045
 7342TIP3   OH243440   4.277   3.532   3.192 -0.4938 -0.9956 -0.3647
 7342TIP3    H143441   4.342   3.571   3.250 -2.2811  0.9929  0.3567
 7342TIP3    H243442   4.196   3.530   3.244 -0.8742 -4.2268 -0.9314
 7343TIP3   OH243443   2.053   5.981  13.705  0.2348  0.0319  0.6755
 7343TIP3    H143444   2.025   6.035  13.778  1.1208 -2.8085  3.2488
 7343TIP3    H243445   2.109   6.038  13.652 -0.4093  2.1422  2.2283
 7344TIP3   OH243446   4.907   5.585   3.107 -0.1720 -0.2666 -0.4228
 7344TIP3    H143447   4.978   5.609   3.167  0.7017 -1.8691 -0.8042
 7344TIP3    H243448   4.841   5.653   3.121  1.0151  0.7031  0.6434
 7345TIP3   OH243449   3.514   5.838  16.619  0.3448 -0.1295 -0.0090
 7345TIP3    H143450   3.521   5.910  16.558 -1.5196 -0.9262 -1.1982
 7345TIP3    H243451   3.581   5.776  16.591 -1.9659 -1.5108 -2.7070
 7346TIP3   OH243452   2.903   1.661  14.851  0.4703  0.0765  0.4952
 7346TIP3    H143453   2.907   1.588  14.913  2.6144  0.5798  0.9800
 7346TIP3    H243454   2.936   1.736  14.900 -0.3872  1.0883 -0.4393
 7347TIP3   OH243455   5.315   2.663  12.590  0.2539 -0.2194  0.1122
 7347TIP3    H143456   5.298   2.618  12.507  2.5784  0.0840 -0.5545
 7347TIP3    H243457   5.339   2.752  12.564 -3.1157  1.1471  1.3554
 7348TIP3   OH243458   6.194   0.217   2.924  0.0089  0.2636  0.4141
 7348TIP3    H143459   6.159   0.250   3.007 -0.8038  0.0861  0.1468
 7348TIP3    H243460   6.155   0.131   2.914  0.9671 -0.1747  0.3762
 7349TIP3   OH243461   5.726   1.997  14.025  0.2774 -0.3273 -0.2160
 7349TIP3    H143462   5.805   1.962  13.983  0.9418  0.6247  0.2191
 7349TIP3    H243463   5.685   2.050  13.957  0.3080 -0.3687 -0.2667
 7350TIP3   OH243464   3.073   3.872  11.942 -0.3611 -0.3956 -0.1106
 7350TIP3    H143465   3.118   3.787  11.937  0.0334 -0.1429 -1.0668
 7350TIP3    H243466   2.991   3.853  11.988 -0.7625 -1.5119 -1.2500
 7351TIP3   OH243467   4.344   4.993  14.934 -0.0018  0.3747 -0.4958
 7351TIP3    H143468   4.297   4.915  14.963 -0.3746  0.3029 -1.2754
 7351TIP3    H243469   4.336   5.055  15.007  0.2268 -0.2880  0.0901
 7352TIP3   OH243470   6.450   0.165  16.194  0.0422  0.6129 -0.0097
 7352TIP3    H143471   6.451   0.239  16.134  2.5010 -1.5904 -2.8398
 7352TIP3    H243472   6.367   0.121  16.177 -0.0547  0.9995 -0.5421
 7353TIP3   OH243473   3.454   0.464   1.041 -0.1807 -0.2348  0.3817
 7353TIP3    H143474   3.457   0.448   1.136  1.3485 -1.0205  0.2258
 7353TIP3    H243475   3.514   0.537   1.028 -0.5763  0.0276  0.0436
 7354TIP3   OH243476   4.346   6.277  12.023 -0.3733 -0.5006  0.1364
 7354TIP3    H143477   4.293   6.337  11.971 -0.3140  0.1629  0.8313
 7354TIP3    H243478   4.428   6.325  12.039 -0.8259 -0.2273  1.8026
 7355TIP3   OH243479   4.631   2.830   3.711  0.4504  0.1628 -0.2845
 7355TIP3    H143480   4.710   2.776   3.701  0.1970 -0.1358 -0.6574
 7355TIP3    H243481   4.560   2.776   3.677  0.3286  1.1116 -1.5606
 7356TIP3   OH243482   1.120   1.072  15.764  0.6673 -0.0445 -0.0021
 7356TIP3    H143483   1.206   1.111  15.748  1.0655 -1.6379 -1.8975
 7356TIP3    H243484   1.130   0.980  15.738 -2.1102  0.1787 -2.0638
 7357TIP3   OH243485   5.508   3.131  17.231  0.0651  0.5018 -0.3113
 7357TIP3    H143486   5.484   3.204  17.175  0.9658  0.2792 -0.9979
 7357TIP3    H243487   5.470   3.054  17.188  0.4341  0.3760 -0.4110
 7358TIP3   OH243488   5.276   5.772   5.153  0.5174 -0.1385 -0.1385
 7358TIP3    H143489   5.294   5.703   5.089  0.0623 -0.9486  0.6121
 7358TIP3    H243490   5.348   5.834   5.140  1.2648 -1.0406 -0.4024
 7359TIP3   OH243491   6.678   1.903   2.427 -0.6894  0.4338 -0.1144
 7359TIP3    H143492   6.616   1.877   2.495 -1.5878 -1.0466 -1.4924
 7359TIP3    H243493   6.638   1.981   2.388 -0.0610  1.4315  1.1555
 7360TIP3   OH243494   6.145   5.168   5.433 -0.4860 -0.1150 -0.5153
 7360TIP3    H143495   6.102   5.127   5.359 -2.0339  0.6721 -0.0749
 7360TIP3    H243496   6.171   5.096   5.489 -2.0256 -0.5752 -0.3656
 7361TIP3   OH243497   1.246   2.041   5.616  0.0316  0.1168  0.0285
 7361TIP3    H143498   1.207   2.068   5.699 -1.2640 -0.8441 -0.2413
 7361TIP3    H243499   1.260   2.122   5.567  0.8903  0.6939  1.2140
 7362TIP3   OH243500   4.276   4.634   1.417 -0.6661  0.0204  0.5551
 7362TIP3    H143501   4.269   4.621   1.322  3.8008 -1.1763  0.2651
 7362TIP3    H243502   4.244   4.553   1.455 -0.4090 -0.3537 -0.0255
 7363TIP3   OH243503   4.582   0.921  13.157  0.6179 -0.2237 -0.0741
 7363TIP3    H143504   4.624   0.993  13.204 -0.5114  2.4932 -3.0243
 7363TIP3    H243505   4.489   0.939  13.163  0.4209  0.0337 -2.9961
 7364TIP3   OH243506   4.146   0.638   6.473 -0.3524 -0.3953  0.3588
 7364TIP3    H143507   4.076   0.575   6.455  0.9959 -1.4526 -1.3179
 7364TIP3    H243508   4.103   0.723   6.470 -2.1411 -1.1838  2.3526
 7365TIP3   OH243509   3.492   6.439   3.539  0.1277 -0.5462  0.1240
 7365TIP3    H143510   3.427   6.458   3.607 -0.6499 -2.5154 -0.0128
 7365TIP3    H243511   3.460   6.358   3.499  1.3042 -0.1281 -1.6860
 7366TIP3   OH243512   1.607   4.193   1.889 -0.3344 -0.1421  0.1881
 7366TIP3    H143513   1.573   4.255   1.954 -1.3756  2.2338 -2.4659
 7366TIP3    H243514   1.688   4.233   1.859 -0.9581 -0.0744 -1.4589
 7367TIP3   OH243515   6.674   5.166   0.921 -0.4282  0.1147  0.3604
 7367TIP3    H143516   6.671   5.250   0.966 -1.1393 -0.4217  1.3329
 7367TIP3    H243517   6.678   5.101   0.991  1.3397 -0.6277 -0.3953
 7368TIP3   OH243518   5.514   4.668   1.265  0.1418  0.1640  0.1230
 7368TIP3    H143519   5.473   4.598   1.315 -1.4777 -0.8562 -2.5136
 7368TIP3    H243520   5.584   4.624   1.216  2.1172  1.2595  1.8619
 7369TIP3   OH243521   5.185   2.586   3.739 -0.2355 -0.6209 -0.3377
 7369TIP3    H143522   5.174   2.574   3.645  4.0969 -0.7000 -0.9192
 7369TIP3    H243523   5.236   2.510   3.767 -0.0432  0.2464  1.7590
 7370TIP3   OH243524   1.373   2.480   4.590 -0.0842  0.0175 -0.7066
 7370TIP3    H143525   1.463   2.470   4.560 -0.3045 -0.6263 -1.1827
 7370TIP3    H243526   1.349   2.570   4.568  1.1756  0.9407  1.4631
 7371TIP3   OH243527   0.444   0.559  15.470 -0.2349  0.2863 -0.6363
 7371TIP3    H143528   0.528   0.599  15.495  0.0956 -1.0118  0.3481
 7371TIP3    H243529   0.468   0.484  15.416 -0.8305  0.8848 -1.7472
 7372TIP3   OH243530   5.123   2.028  14.362 -0.3064 -0.2985  0.1364
 7372TIP3    H143531   5.174   2.048  14.440 -0.2693  0.0666  0.0174
 7372TIP3    H243532   5.051   1.973  14.394 -0.8632  0.6869  0.5847
 7373TIP3   OH243533   1.570   5.942   2.107  0.0795 -0.3051  0.2105
 7373TIP3    H143534   1.617   6.025   2.116  1.5516 -1.2529  1.4783
 7373TIP3    H243535   1.626   5.878   2.150 -0.9136 -2.0213 -0.9982
 7374TIP3   OH243536   1.407   6.540  15.212 -0.8112  0.4305 -0.2490
 7374TIP3    H143537   1.463   6.612  15.184 -1.0659  1.0005  0.6771
 7374TIP3    H243538   1.433   6.466  15.158  1.1738  0.5500  0.5237
 7375TIP3   OH243539   0.138   4.787  12.728  0.5069  0.0955 -0.1837
 7375TIP3    H143540   0.042   4.785  12.724  0.4789 -2.3682  0.9769
 7375TIP3    H243541   0.158   4.779  12.821  1.8503 -0.6283 -0.5192
 7376TIP3   OH243542   3.409   0.050   3.124 -0.4216  0.0956 -0.3709
 7376TIP3    H143543   3.349   0.014   3.059  0.0570  0.8167 -1.2262
 7376TIP3    H243544   3.475   0.096   3.072 -1.0356  2.2146  0.6941
 7377TIP3   OH243545   6.501   2.553   1.537  0.3844  0.3279 -0.1439
 7377TIP3    H143546   6.555   2.587   1.609  0.6044  0.4213 -0.3512
 7377TIP3    H243547   6.565   2.517   1.475  0.2110  0.4953 -0.4196
 7378TIP3   OH243548   2.245   1.327  16.675 -0.4702  0.5542  0.1812
 7378TIP3    H143549   2.178   1.392  16.697 -0.3359  1.4349 -1.9081
 7378TIP3    H243550   2.326   1.378  16.668  0.2366 -0.3382  1.6323
 7379TIP3   OH243551   2.455   0.468   1.240  0.6451 -0.0519 -0.6844
 7379TIP3    H143552   2.445   0.449   1.334  0.2029 -0.8519 -0.8948
 7379TIP3    H243553   2.481   0.560   1.238 -1.0885  0.4778  0.1550
 7380TIP3   OH243554   4.037   5.388  13.346 -0.0538  0.2363  0.7956
 7380TIP3    H143555   3.948   5.414  13.324 -0.4709 -0.5569  1.5170
 7380TIP3    H243556   4.065   5.452  13.412 -0.4694 -0.1202  1.3273
 7381TIP3   OH243557   0.552   3.403   1.909 -0.3413  0.1285  0.0879
 7381TIP3    H143558   0.558   3.310   1.934 -1.6306  0.3709  1.3191
 7381TIP3    H243559   0.473   3.435   1.953  0.2516  1.8907 -0.1064
 7382TIP3   OH243560   5.125   2.707   4.823  0.0231 -0.2499  0.8842
 7382TIP3    H143561   5.184   2.640   4.787  0.5504  0.2861  0.7357
 7382TIP3    H243562   5.107   2.765   4.748 -1.0390 -0.6506  0.8236
 7383TIP3   OH243563   5.807   0.802  11.957 -0.2126 -0.5845 -0.0788
 7383TIP3    H143564   5.762   0.864  12.015 -0.3946 -0.8532  0.0679
 7383TIP3    H243565   5.890   0.844  11.938 -0.2079 -0.4297  0.2655
 7384TIP3   OH243566   3.466   4.228   5.691  0.1007  0.1823 -0.2012
 7384TIP3    H143567   3.475   4.134   5.708  3.9668  0.0966 -2.3145
 7384TIP3    H243568   3.381   4.236   5.646 -1.0355 -2.0281  1.4406
 7385TIP3   OH243569   2.314   4.580   1.358  0.0318  0.2038 -0.1040
 7385TIP3    H143570   2.396   4.546   1.323 -0.5761 -1.0267 -0.3733
 7385TIP3    H243571   2.332   4.596   1.451  1.3735  2.5643 -0.7359
 7386TIP3   OH243572   2.662   2.014  16.497 -0.1432  0.3941  0.5276
 7386TIP3    H143573   2.677   2.108  16.494  1.1911  0.1661 -0.0601
 7386TIP3    H243574   2.689   1.988  16.585 -4.2620  1.1521  2.1447
 7387TIP3   OH243575   3.216   5.496   5.614 -0.3610 -0.2409 -0.1014
 7387TIP3    H143576   3.205   5.591   5.613 -1.1922 -0.3389 -0.4767
 7387TIP3    H243577   3.225   5.474   5.706 -4.3953 -0.2727  0.3783
 7388TIP3   OH243578   0.895   6.734   3.990 -0.5061 -0.0399  0.2773
 7388TIP3    H143579   0.990   6.724   3.985 -0.4181 -0.6765  2.6126
 7388TIP3    H243580   0.878   6.824   3.961  0.9537  0.5516  1.2500
 7389TIP3   OH243581   0.161   6.639   5.747 -0.3321 -0.3144 -0.0331
 7389TIP3    H143582   0.163   6.684   5.663 -0.5456 -1.4796 -0.6692
 7389TIP3    H243583   0.072   6.605   5.754 -0.5973  0.5698  1.0951
 7390TIP3   OH243584   3.555   6.131   5.898 -0.0670  0.0454 -0.1644
 7390TIP3    H143585   3.472   6.096   5.865  0.3511 -1.2535  0.1275
 7390TIP3    H243586   3.529   6.192   5.968 -0.8906  1.8850 -2.0073
 7391TIP3   OH243587   5.816   6.029   3.128 -0.1536  0.0292 -0.1068
 7391TIP3    H143588   5.781   5.950   3.169 -0.1301 -0.6381 -1.3314
 7391TIP3    H243589   5.795   6.018   3.035 -2.8287  2.9065  0.1037
 7392TIP3   OH243590   4.621   2.511   2.839 -0.4116 -0.3686 -0.1380
 7392TIP3    H143591   4.554   2.468   2.785 -0.7429  0.8915 -0.7567
 7392TIP3    H243592   4.581   2.594   2.864  0.8491  0.3228 -0.3702
 7393TIP3   OH243593   1.485   3.883  14.242  0.2653  0.4225  0.0612
 7393TIP3    H143594   1.505   3.960  14.188 -0.0150  0.6271  0.2485
 7393TIP3    H243595   1.390   3.875  14.239  0.0546  1.7245  2.2572
 7394TIP3   OH243596   2.217   0.629  15.472 -0.3288  0.0493 -0.4780
 7394TIP3    H143597   2.248   0.697  15.413  1.4595 -0.8078 -0.5543
 7394TIP3    H243598   2.296   0.591  15.509 -1.3573 -0.8489  0.8722
 7395TIP3   OH243599   6.029   5.770   9.749 -0.6119  0.2476  0.3877
 7395TIP3    H143600   6.108   5.740   9.704 -1.7143 -0.4944 -1.0945
 7395TIP3    H243601   6.056   5.782   9.840  1.2241  0.1034 -0.1165
 7396TIP3   OH243602   3.803   5.014  11.809 -0.3067  0.3526  0.4781
 7396TIP3    H143603   3.741   5.076  11.846 -0.1711 -0.2035  1.6617
 7396TIP3    H243604   3.780   5.009  11.716 -1.6288  0.6164  0.7881
 7397TIP3   OH243605   3.950   3.256  14.415 -0.2045 -0.7123  0.1564
 7397TIP3    H143606   3.987   3.225  14.498 -0.4003 -4.0048 -0.9092
 7397TIP3    H243607   4.027   3.272  14.360 -0.1519 -1.5520 -0.0257
 7398TIP3   OH243608   6.026   4.043  12.080 -0.1418 -0.3781 -0.2813
 7398TIP3    H143609   6.023   4.020  12.173 -2.5617  0.9713 -0.0054
 7398TIP3    H243610   5.981   4.127  12.074 -0.4457 -0.6727 -2.7498
 7399TIP3   OH243611   6.671   3.419   0.401 -0.0623  0.6700  0.4409
 7399TIP3    H143612   6.579   3.426   0.378  0.3910  0.1208 -1.6485
 7399TIP3    H243613   6.691   3.326   0.395  0.5878  0.7666  1.0475
 7400TIP3   OH243614   3.759   5.863   2.882  0.0343 -0.0467  0.1659
 7400TIP3    H143615   3.764   5.806   2.958  0.8269  0.3953  0.4442
 7400TIP3    H243616   3.685   5.828   2.831 -0.4821 -0.3522  1.1163
 7401TIP3   OH243617   1.629   1.468  11.733  0.2053 -0.1595  0.1540
 7401TIP3    H143618   1.628   1.425  11.818 -2.2549  0.8514  0.6823
 7401TIP3    H243619   1.688   1.542  11.744  0.1041 -0.1910  0.8933
 7402TIP3   OH243620   5.677   6.239  11.490 -0.3011  0.9558  0.0055
 7402TIP3    H143621   5.652   6.204  11.405  0.4350 -1.1536  0.6184
 7402TIP3    H243622   5.736   6.311  11.471 -1.6084  1.7093 -1.2960
 7403TIP3   OH243623   1.074   2.388   6.220  0.2205 -0.4653  0.1881
 7403TIP3    H143624   1.052   2.423   6.306  2.5881 -1.4004  1.2233
 7403TIP3    H243625   0.990   2.373   6.178 -0.9187  2.0529  1.4879
 7404TIP3   OH243626   1.775   0.114  12.403  0.5364  0.3749  0.0569
 7404TIP3    H143627   1.688   0.089  12.435  0.4574  0.2506 -0.2570
 7404TIP3    H243628   1.762   0.133  12.310  1.1517 -1.2065 -0.3641
 7405TIP3   OH243629   3.497   5.910  14.748 -0.2961  0.0614  0.0557
 7405TIP3    H143630   3.402   5.916  14.758 -0.6051 -0.8336 -2.0501
 7405TIP3    H243631   3.532   5.935  14.834 -2.4039  0.9397  0.6961
 7406TIP3   OH243632   5.481   4.371   6.229  0.3595  0.7536 -0.4652
 7406TIP3    H143633   5.553   4.433   6.216  0.1346  0.8262 -1.4637
 7406TIP3    H243634   5.425   4.412   6.295  0.1026  1.7267 -1.2695
 7407TIP3   OH243635   5.720   1.426  15.387 -0.3828  0.5189 -0.2511
 7407TIP3    H143636   5.814   1.410  15.379 -0.5856 -1.0499  0.3528
 7407TIP3    H243637   5.708   1.454  15.478 -0.5642  0.3301 -0.2183
 7408TIP3   OH243638   1.104   4.507   1.280 -0.2028  0.4517 -0.4604
 7408TIP3    H143639   1.145   4.420   1.283 -1.6902 -0.4102 -3.1400
 7408TIP3    H243640   1.027   4.499   1.337 -0.1899  0.0616 -0.4926
 7409TIP3   OH243641   5.243   1.920   0.586 -0.0101  1.1464  0.1350
 7409TIP3    H143642   5.262   1.836   0.627 -0.0948  0.1779 -1.7229
 7409TIP3    H243643   5.307   1.980   0.623  1.5208 -0.2570 -0.1443
 7410TIP3   OH243644   0.610   5.923   5.661  0.2620  0.0826 -0.3143
 7410TIP3    H143645   0.607   5.839   5.616  0.2337  0.1561 -0.4495
 7410TIP3    H243646   0.575   5.986   5.598  0.4981  0.2315 -0.2981
 7411TIP3   OH243647   4.472   2.110  11.966  0.4781  0.0594 -0.4794
 7411TIP3    H143648   4.478   2.110  11.870  0.9551  1.3311 -0.4573
 7411TIP3    H243649   4.475   2.018  11.990  3.0219 -0.1697 -1.5229
 7412TIP3   OH243650   3.853   6.673   4.608  0.1214  0.6109 -0.1485
 7412TIP3    H143651   3.767   6.702   4.576 -0.9835 -1.4043  0.8276
 7412TIP3    H243652   3.881   6.608   4.543 -0.7155 -1.2396  1.2852
 7413TIP3   OH243653   0.850   3.934  11.850 -0.0474  0.0156 -0.1322
 7413TIP3    H143654   0.775   3.909  11.903  0.4539 -0.2880  0.4424
 7413TIP3    H243655   0.847   3.874  11.775 -2.6813  2.6189 -2.2315
 7414TIP3   OH243656   3.902   6.426   0.595 -0.1816  0.0935  0.1710
 7414TIP3    H143657   3.844   6.439   0.521 -1.7814  0.0411  1.3861
 7414TIP3    H243658   3.959   6.354   0.569  0.8896  1.6458 -1.9311
 7415TIP3   OH243659   6.510   6.615   1.169  0.1020 -0.7031  0.3473
 7415TIP3    H143660   6.479   6.524   1.171  1.5533 -1.2062  0.5171
 7415TIP3    H243661   6.536   6.633   1.259  1.1707 -0.6080  0.0269
 7416TIP3   OH243662   2.169   5.450   4.031  0.1997  0.4124 -0.2451
 7416TIP3    H143663   2.171   5.395   4.110 -0.4453 -0.8370 -1.0873
 7416TIP3    H243664   2.080   5.440   3.997  1.1159 -0.8699 -2.3873
 7417TIP3   OH243665   0.056   1.055   4.401  0.4691  0.2212 -0.6324
 7417TIP3    H143666   0.134   1.000   4.391  0.5277  0.2331 -0.2234
 7417TIP3    H243667   0.091   1.143   4.417  0.3674  0.1093  0.1934
 7418TIP3   OH243668   0.032   0.396   1.919  0.1231  0.0015  0.4934
 7418TIP3    H143669   0.107   0.440   1.879  0.1791 -1.5117 -1.1467
 7418TIP3    H243670  -0.043   0.422   1.866  0.0349 -1.1830  0.0091
 7419TIP3   OH243671   0.124   0.006  12.638 -0.0880  0.1580 -0.0510
 7419TIP3    H143672   0.170  -0.077  12.653  1.4233  1.1825  1.0565
 7419TIP3    H243673   0.192   0.072  12.640 -1.4677  1.5999  0.4322
 7420TIP3   OH243674   6.601   1.394   3.228  0.3580  0.1646 -0.1004
 7420TIP3    H143675   6.651   1.466   3.266 -2.1016  1.9268 -0.1358
 7420TIP3    H243676   6.562   1.350   3.303  0.5641 -0.1747 -0.1907
 7421TIP3   OH243677   0.359   2.586   3.893 -0.2156 -0.1235  0.4127
 7421TIP3    H143678   0.301   2.594   3.817  0.5744  0.6745 -0.1088
 7421TIP3    H243679   0.446   2.607   3.859  0.2710 -0.5909  1.3584
 7422TIP3   OH243680   5.236   3.979   2.665  0.2063  0.2877  0.5227
 7422TIP3    H143681   5.287   4.020   2.596  0.0122  0.6609  0.5994
 7422TIP3    H243682   5.290   3.989   2.744  0.6471 -0.5760  0.3294
 7423TIP3   OH243683   5.567   2.558  12.693  0.1844 -0.1294  0.4056
 7423TIP3    H143684   5.627   2.599  12.632  0.4062 -0.4394  0.4144
 7423TIP3    H243685   5.480   2.588  12.666  0.2408 -0.6579 -0.3585
 7424TIP3   OH243686   5.168   0.751   1.002  0.2563  0.9365 -0.0587
 7424TIP3    H143687   5.133   0.681   1.057  0.5059  1.0360  0.2264
 7424TIP3    H243688   5.098   0.769   0.939 -0.1375  1.0112  0.3961
 7425TIP3   OH243689   1.401   4.835   5.482  0.0676  0.1757 -0.0066
 7425TIP3    H143690   1.322   4.883   5.456  0.0971 -0.3482 -1.1188
 7425TIP3    H243691   1.394   4.827   5.577  1.2519  4.4191  0.5274
 7426TIP3   OH243692   5.979   5.622  11.802  0.0648  0.0517 -0.1712
 7426TIP3    H143693   5.999   5.646  11.892 -2.0741  1.8908 -0.1424
 7426TIP3    H243694   6.029   5.684  11.749  0.0109  0.0570 -0.2169
 7427TIP3   OH243695   3.017   3.054  11.446  0.3779 -0.2965  0.9323
 7427TIP3    H143696   2.928   3.056  11.482  0.7248  1.6201  1.7309
 7427TIP3    H243697   3.011   2.992  11.373 -1.9715  0.8576  0.0743
 7428TIP3   OH243698   5.773   3.194  14.281 -0.0698 -0.7586 -0.1124
 7428TIP3    H143699   5.845   3.197  14.218 -0.5613  0.0580 -0.6475
 7428TIP3    H243700   5.698   3.230  14.233 -0.5749 -0.6294  0.7703
 7429TIP3   OH243701   1.390   4.825  13.886 -0.2039 -0.2534 -0.3868
 7429TIP3    H143702   1.474   4.851  13.926 -0.7297  0.6546  0.1450
 7429TIP3    H243703   1.324   4.867  13.940 -0.9632  0.2406 -1.6777
 7430TIP3   OH243704   5.929   6.161   5.151  0.2965  0.3550 -0.4332
 7430TIP3    H143705   5.888   6.098   5.091  0.4879  1.2426 -1.5046
 7430TIP3    H243706   6.010   6.187   5.107  0.9399  0.2695  0.6715
 7431TIP3   OH243707   5.272   5.328   0.615 -0.2975  0.6751 -0.0552
 7431TIP3    H143708   5.298   5.402   0.669  0.3914  0.2503  0.1955
 7431TIP3    H243709   5.291   5.356   0.525 -0.0779  0.8149  0.0360
 7432TIP3   OH243710   5.710   2.839   5.769  0.2608 -0.3820  0.2588
 7432TIP3    H143711   5.753   2.754   5.781  1.4857  0.3249  0.9725
 7432TIP3    H243712   5.706   2.850   5.674  2.0167 -0.2993  0.1752
 7433TIP3   OH243713   0.067   1.900   1.373 -0.5280  0.0466  0.4066
 7433TIP3    H143714   0.106   1.962   1.435  0.4605 -2.1406  2.0557
 7433TIP3    H243715  -0.004   1.858   1.422  0.6195 -2.0981  0.3016
 7434TIP3   OH243716   2.862   2.601  16.551 -0.2088 -0.6666  0.0340
 7434TIP3    H143717   2.846   2.568  16.462 -0.4619  1.0210 -0.5715
 7434TIP3    H243718   2.795   2.668  16.563  0.8539  0.2456  0.8840
 7435TIP3   OH243719   1.787   5.898   0.513 -0.3120  0.2923  0.2772
 7435TIP3    H143720   1.822   5.953   0.583  1.2882 -1.5307  0.9307
 7435TIP3    H243721   1.692   5.906   0.522 -0.1582 -0.7603  3.3578
 7436TIP3   OH243722   0.550   2.622   2.529  0.1712 -0.2922 -0.1879
 7436TIP3    H143723   0.577   2.627   2.437  1.7655 -0.4605  0.2513
 7436TIP3    H243724   0.632   2.608   2.577 -0.5883  0.3114  1.3033
 7437TIP3   OH243725   0.106   2.895   0.940 -0.5891 -0.0022 -0.2139
 7437TIP3    H143726   0.162   2.831   0.985 -1.9502 -0.3745  1.0157
 7437TIP3    H243727   0.038   2.916   1.005 -0.2705  2.5726 -0.6535
 7438TIP3   OH243728   1.244   3.381   1.530 -0.0633 -0.5381 -0.2394
 7438TIP3    H143729   1.298   3.375   1.451 -1.0323  1.4806 -1.1014
 7438TIP3    H243730   1.208   3.470   1.527 -2.2394 -1.3511  1.0900
 7439TIP3   OH243731   0.572   4.738  12.756  0.0230  0.7359 -0.0605
 7439TIP3    H143732   0.493   4.775  12.795  0.8044  2.1830  0.1736
 7439TIP3    H243733   0.614   4.811  12.712  1.0444 -0.1031 -0.5070
 7440TIP3   OH243734   6.060   5.398  15.775 -0.0670  0.4549 -0.2644
 7440TIP3    H143735   6.043   5.445  15.857 -0.2816  0.7469 -0.4759
 7440TIP3    H243736   5.995   5.328  15.774  0.4306 -0.0200  0.1870
 7441TIP3   OH243737   6.116   5.429   0.564 -0.2628 -0.1924  0.1672
 7441TIP3    H143738   6.079   5.353   0.609 -0.2186  0.1837  0.8506
 7441TIP3    H243739   6.165   5.476   0.632 -0.6553  0.6867 -0.1403
 7442TIP3   OH243740   4.289   0.821  13.446  0.4555 -0.0352  0.1541
 7442TIP3    H143741   4.300   0.886  13.377 -1.8364  0.7389  0.4692
 7442TIP3    H243742   4.295   0.871  13.528  1.7500 -0.7264  0.4969
 7443TIP3   OH243743   0.425   4.013   3.580 -0.6130 -0.2946  0.2169
 7443TIP3    H143744   0.443   3.925   3.545 -0.5019  0.4137 -1.5530
 7443TIP3    H243745   0.420   4.069   3.503 -2.2749  0.9983  1.2283
 7444TIP3   OH243746   0.671   4.189  13.834  0.4624  0.0860 -0.5133
 7444TIP3    H143747   0.697   4.112  13.885  0.7349  0.5510  0.0622
 7444TIP3    H243748   0.623   4.243  13.897  0.2365  0.3638 -0.9276
 7445TIP3   OH243749   4.111   3.789   3.981 -0.3756 -0.4009  0.2235
 7445TIP3    H143750   4.031   3.736   3.987 -1.1529  0.7683  0.5392
 7445TIP3    H243751   4.080   3.873   3.946  0.4484  0.6337  1.9468
 7446TIP3   OH243752   0.565   1.709   4.852  0.8055  0.1085 -0.0207
 7446TIP3    H143753   0.547   1.754   4.935  0.6178 -1.0083  0.5633
 7446TIP3    H243754   0.651   1.668   4.866  1.2680  0.8117 -0.7765
 7447TIP3   OH243755   2.603   3.988   6.726  0.0335  0.5299  0.3660
 7447TIP3    H143756   2.657   4.061   6.695 -0.5051  0.2498 -1.2800
 7447TIP3    H243757   2.537   3.977   6.658 -0.6315 -0.7083  1.2010
 7448TIP3   OH243758   5.151   4.218  12.332 -0.3734 -0.4494  0.2042
 7448TIP3    H143759   5.190   4.241  12.416  0.8820 -0.6395 -0.3052
 7448TIP3    H243760   5.135   4.302  12.289 -1.0893 -0.3481  0.6557
 7449TIP3   OH243761   3.405   6.678  16.366 -0.4236  0.1637  0.6044
 7449TIP3    H143762   3.454   6.754  16.399 -0.3507  0.5388 -0.3427
 7449TIP3    H243763   3.437   6.666  16.277 -2.2427  0.5676 -0.1212
 7450TIP3   OH243764   3.282   4.251   1.548 -0.6219 -0.5933  0.2094
 7450TIP3    H143765   3.315   4.317   1.486 -0.2712  1.2352  2.2839
 7450TIP3    H243766   3.356   4.190   1.559 -0.7086 -0.9797 -1.1781
 7451TIP3   OH243767   0.731   0.407   3.784 -0.5454 -0.1820  0.4513
 7451TIP3    H143768   0.720   0.492   3.826  0.9887  0.5892 -0.6592
 7451TIP3    H243769   0.687   0.416   3.699 -0.2706 -0.4376  0.2791
 7452TIP3   OH243770   6.154   4.083   5.190 -0.0886  0.3300  0.3904
 7452TIP3    H143771   6.135   4.079   5.283 -0.7711  0.3702  0.2550
 7452TIP3    H243772   6.172   4.176   5.173 -1.5819  0.5920  0.1748
 7453TIP3   OH243773   6.241   3.117  11.708 -0.1568 -0.3934  0.3140
 7453TIP3    H143774   6.187   3.194  11.689  1.4929  0.9170  0.7725
 7453TIP3    H243775   6.330   3.147  11.693  0.4972 -2.2888  0.3392
 7454TIP3   OH243776   3.549   2.613  14.204 -0.1215  0.8343 -0.0048
 7454TIP3    H143777   3.628   2.641  14.249  1.2284 -1.7301 -0.6684
 7454TIP3    H243778   3.517   2.539  14.255 -1.1242  0.7738 -0.7051
 7455TIP3   OH243779   3.041   3.129  14.575  0.0182  1.0629 -0.0817
 7455TIP3    H143780   3.007   3.069  14.508 -1.5758  2.7616 -0.8513
 7455TIP3    H243781   2.963   3.154  14.625  0.9892  0.9057  1.5195
 7456TIP3   OH243782   4.076   0.157  13.849 -0.0914 -0.6895 -0.0544
 7456TIP3    H143783   4.108   0.237  13.889 -0.7471  0.4774 -1.7903
 7456TIP3    H243784   4.154   0.113  13.814  0.3932 -1.3624  1.8241
 7457TIP3   OH243785   2.485   3.771   5.819 -0.5224 -0.0831  0.0327
 7457TIP3    H143786   2.406   3.767   5.874 -0.2723  0.7045  0.4522
 7457TIP3    H243787   2.555   3.793   5.880  0.2469 -2.0655 -0.1269
 7458TIP3   OH243788   2.673   3.285  14.971  0.0373 -0.0944 -0.4029
 7458TIP3    H143789   2.691   3.342  15.045  0.7270  0.4949 -1.0184
 7458TIP3    H243790   2.624   3.212  15.008  0.9492 -0.1354  0.7541
 7459TIP3   OH243791   4.620   4.595  13.312  0.5519  0.2652  0.0362
 7459TIP3    H143792   4.538   4.551  13.289  1.1750 -1.5878  1.2382
 7459TIP3    H243793   4.676   4.582  13.235  0.7018 -0.9975  0.3527
 7460TIP3   OH243794   0.750   1.007   4.392  0.2184  0.1701  0.2783
 7460TIP3    H143795   0.828   0.982   4.340 -0.0136  0.2144 -0.0948
 7460TIP3    H243796   0.722   0.925   4.433 -1.1470 -0.4350 -1.7569
 7461TIP3   OH243797   4.378   5.986   1.616 -0.0147 -0.1215 -0.4036
 7461TIP3    H143798   4.416   5.902   1.641 -1.0910 -0.2458  0.8770
 7461TIP3    H243799   4.284   5.976   1.636 -0.1726  1.3306 -0.3834
 7462TIP3   OH243800   5.444   2.098  17.080 -0.3722 -0.0315  0.0161
 7462TIP3    H143801   5.525   2.065  17.042  0.7219  1.5825  0.8940
 7462TIP3    H243802   5.406   2.154  17.012  0.5982  1.3229  0.5950
 7463TIP3   OH243803   3.113   6.661  12.078  0.1101  0.4005 -0.2111
 7463TIP3    H143804   3.194   6.658  12.027  1.2951  1.7743  1.5313
 7463TIP3    H243805   3.086   6.569  12.085  1.2720 -0.0289 -1.1945
 7464TIP3   OH243806   6.558   4.884   0.904  0.7666 -0.0901 -0.4116
 7464TIP3    H143807   6.617   4.841   0.842 -1.3043 -1.6017 -1.3742
 7464TIP3    H243808   6.545   4.971   0.867  2.9836  0.5412  0.2224
 7465TIP3   OH243809   0.646   5.880   1.514 -0.4192  0.7097 -0.0522
 7465TIP3    H143810   0.602   5.796   1.531 -1.1305  0.9355 -0.7613
 7465TIP3    H243811   0.725   5.877   1.569  0.2877 -1.0121 -1.0924
 7466TIP3   OH243812   6.735   3.679  13.033 -0.9884 -0.2336  0.5521
 7466TIP3    H143813   6.699   3.665  12.945 -1.4302  2.3254  0.2873
 7466TIP3    H243814   6.830   3.675  13.022 -0.8840  3.5385 -0.7655
 7467TIP3   OH243815   5.986   1.484  12.638 -0.4756  0.5702  0.2474
 7467TIP3    H143816   5.945   1.448  12.717 -2.2237  1.0264 -0.4206
 7467TIP3    H243817   6.024   1.408  12.594 -0.8862  0.0778  0.7346
 7468TIP3   OH243818   4.692   2.007   3.103 -0.4646  0.2401 -0.7822
 7468TIP3    H143819   4.687   2.095   3.067 -0.7738 -0.1196 -1.6248
 7468TIP3    H243820   4.765   1.967   3.057 -1.0035 -0.2972 -1.1732
 7469TIP3   OH243821   0.891   6.518   6.143 -0.4815 -0.6143 -0.5665
 7469TIP3    H143822   0.964   6.495   6.200 -0.6165  0.9198  0.2551
 7469TIP3    H243823   0.818   6.466   6.175  0.3633 -2.5307 -1.7084
 7470TIP3   OH243824   4.885   0.573  15.268 -0.1648  0.5023 -0.5563
 7470TIP3    H143825   4.860   0.665  15.262  3.0821  1.4021 -1.4906
 7470TIP3    H243826   4.910   0.561  15.359 -1.6393  0.2318 -0.1777
 7471TIP3   OH243827   0.264   0.269  13.060 -0.3001 -0.2402  0.1740
 7471TIP3    H143828   0.232   0.355  13.032 -0.8744 -0.1996  0.9253
 7471TIP3    H243829   0.359   0.276  13.053 -0.3357  0.4927  0.3163
 7472TIP3   OH243830   3.149   2.843   4.647 -0.2408  0.3174  0.4085
 7472TIP3    H143831   3.210   2.900   4.600 -0.0166  0.2891  0.6640
 7472TIP3    H243832   3.095   2.804   4.579 -2.7083  3.4865  0.4170
 7473TIP3   OH243833   4.165   0.067  12.312 -0.1900 -0.1664 -0.3603
 7473TIP3    H143834   4.221   0.027  12.378  0.9468 -2.2603 -2.5045
 7473TIP3    H243835   4.225   0.118  12.257 -0.6882 -0.7201 -1.4348
 7474TIP3   OH243836   3.415   3.956   3.149 -0.2135  0.5109 -0.1133
 7474TIP3    H143837   3.334   3.921   3.112 -0.7535  0.9432  0.6316
 7474TIP3    H243838   3.412   4.049   3.129  0.2712  0.4667 -0.3886
 7475TIP3   OH243839   6.205   3.383  12.343  0.2046  0.6046  0.2400
 7475TIP3    H143840   6.210   3.380  12.247 -0.9108  1.3675  0.1530
 7475TIP3    H243841   6.294   3.406  12.370  0.5016  0.5040 -0.6141
 7476TIP3   OH243842   2.224   1.022   0.355 -0.1137 -0.2902 -0.5959
 7476TIP3    H143843   2.275   0.989   0.430  1.5085  0.5241 -1.3178
 7476TIP3    H243844   2.232   1.117   0.361 -2.1820 -0.1080 -0.3187
 7477TIP3   OH243845   1.725   6.501   3.313 -0.0279  0.2892 -0.2815
 7477TIP3    H143846   1.812   6.521   3.347 -0.8764  1.0469  1.5013
 7477TIP3    H243847   1.702   6.418   3.355 -0.4775  0.4934 -0.1189
 7478TIP3   OH243848   0.261   1.761  16.984 -0.4100  0.3770  0.4700
 7478TIP3    H143849   0.269   1.828  16.916 -0.5692  0.1155  0.1914
 7478TIP3    H243850   0.255   1.810  17.066  0.0747  0.6813  0.3198
 7479TIP3   OH243851   3.660   5.472   6.488 -0.7833 -0.6334 -0.3557
 7479TIP3    H143852   3.639   5.436   6.402 -0.3584  0.1946 -0.8100
 7479TIP3    H243853   3.636   5.403   6.549 -1.1699 -1.1944 -1.1337
 7480TIP3   OH243854   2.434   4.676  14.704 -0.6464  0.3287 -0.0971
 7480TIP3    H143855   2.406   4.685  14.795 -2.0470 -0.6189 -0.4227
 7480TIP3    H243856   2.526   4.650  14.710 -0.4565  1.2148  1.0253
 7481TIP3   OH243857   3.763   2.712   4.839 -0.0427  0.0296  0.0573
 7481TIP3    H143858   3.748   2.730   4.932 -0.5274  0.6863 -0.1409
 7481TIP3    H243859   3.676   2.712   4.800  0.3382  2.9008 -0.9382
 7482TIP3   OH243860   3.993   0.755   4.510 -0.3374 -0.4579 -0.2883
 7482TIP3    H143861   4.004   0.843   4.474  1.0176 -0.7986 -0.7381
 7482TIP3    H243862   3.959   0.704   4.436 -1.9197 -0.1322  0.2044
 7483TIP3   OH243863   1.096   6.691   4.745  0.1745 -0.3189 -0.0018
 7483TIP3    H143864   1.107   6.726   4.834  1.4179 -0.6536 -0.0155
 7483TIP3    H243865   1.079   6.598   4.758  0.4044 -0.3771 -0.1095
 7484TIP3   OH243866   4.460   4.332  14.552  0.8013 -0.2463 -0.1822
 7484TIP3    H143867   4.369   4.309  14.533  0.8354 -0.5120 -0.0340
 7484TIP3    H243868   4.495   4.362  14.468  0.4764  0.2062 -0.1593
 7485TIP3   OH243869   4.529   3.427   0.477  0.2527  0.0527  0.7717
 7485TIP3    H143870   4.447   3.381   0.493  0.3687 -0.4550 -0.0673
 7485TIP3    H243871   4.503   3.514   0.447  0.0216  0.0053  0.8414
 7486TIP3   OH243872   6.523   5.636  16.188 -0.1666  0.6338 -0.0529
 7486TIP3    H143873   6.577   5.682  16.253  1.8010 -0.2038 -1.0379
 7486TIP3    H243874   6.455   5.699  16.165 -0.5153  1.1799  2.3310
 7487TIP3   OH243875   1.516   3.388  17.089 -0.2216 -0.4053  0.2611
 7487TIP3    H143876   1.508   3.482  17.072 -0.4015 -0.8931 -2.5854
 7487TIP3    H243877   1.470   3.375  17.173 -1.5914  1.7844 -0.1052
 7488TIP3   OH243878   2.545   1.187   2.458 -0.0241 -0.4082  0.3511
 7488TIP3    H143879   2.556   1.099   2.424  0.8252 -0.7230  1.4038
 7488TIP3    H243880   2.515   1.174   2.548  2.5459  0.3289  1.3463
 7489TIP3   OH243881   0.296   5.032  15.053  0.2792  0.1517  0.0241
 7489TIP3    H143882   0.234   4.960  15.039 -0.8461  0.8301  1.4702
 7489TIP3    H243883   0.266   5.101  14.994  0.0856  0.2178  0.1995
 7490TIP3   OH243884   2.175   5.313   1.323  0.7284  0.0705 -0.1009
 7490TIP3    H143885   2.225   5.389   1.296 -0.1025  1.0303  0.9860
 7490TIP3    H243886   2.240   5.255   1.364  1.3263  0.2784 -0.7478
 7491TIP3   OH243887   1.319   4.608  15.169 -0.1475  0.1726  0.1380
 7491TIP3    H143888   1.329   4.700  15.190 -0.8758  0.4264 -0.5893
 7491TIP3    H243889   1.281   4.607  15.081  1.0519 -0.8291 -0.3856
 7492TIP3   OH243890   0.217   4.396  13.898 -0.0858  0.8776  0.4579
 7492TIP3    H143891   0.164   4.476  13.906 -1.0895  0.3230 -0.5143
 7492TIP3    H243892   0.289   4.422  13.839 -0.9664  0.7945 -0.6663
 7493TIP3   OH243893   3.241   1.794  11.854 -0.1624  0.0223  1.0682
 7493TIP3    H143894   3.336   1.787  11.851 -0.1444  0.4038  0.7004
 7493TIP3    H243895   3.210   1.704  11.842  0.1569 -0.1621  1.6008
 7494TIP3   OH243896   5.135   0.782  16.494 -0.2301  0.1552  0.1163
 7494TIP3    H143897   5.105   0.867  16.526 -2.5923 -0.4607 -0.4199
 7494TIP3    H243898   5.130   0.789  16.398 -1.5539 -0.9739  0.0952
 7495TIP3   OH243899   6.453   5.842   4.843  0.1970  0.1748  0.1566
 7495TIP3    H143900   6.409   5.758   4.855  0.7349 -0.2012 -0.4651
 7495TIP3    H243901   6.546   5.823   4.853  0.3047  0.7551  0.3083
 7496TIP3   OH243902   3.539   5.911  16.204  0.3632 -0.5427 -0.3773
 7496TIP3    H143903   3.550   5.819  16.227 -0.1042 -1.3508 -3.1776
 7496TIP3    H243904   3.476   5.945  16.268 -0.3019 -2.4381 -0.0091
 7497TIP3   OH243905   3.871   4.390   0.361  0.1480 -0.0356 -0.4566
 7497TIP3    H143906   3.838   4.392   0.271 -0.8476  1.8038 -0.0859
 7497TIP3    H243907   3.797   4.359   0.413  0.5465 -0.5617 -0.1960
 7498TIP3   OH243908   0.364   1.042  16.600  0.3081 -0.5604  0.1799
 7498TIP3    H143909   0.388   1.043  16.692 -0.4987 -0.7120  0.3873
 7498TIP3    H243910   0.448   1.052  16.554  0.6842 -0.2359  0.9248
 7499TIP3   OH243911   2.556   1.356  17.015 -0.2614 -0.3335  0.1358
 7499TIP3    H143912   2.526   1.370  16.925  1.3930 -2.7369 -0.8489
 7499TIP3    H243913   2.520   1.429  17.064 -0.7213  1.3433 -2.6006
 7500TIP3   OH243914   6.574   0.200   1.239 -0.2793  0.4186 -0.4936
 7500TIP3    H143915   6.631   0.210   1.163 -1.6262  1.2265 -1.4178
 7500TIP3    H243916   6.554   0.107   1.242  0.5258  0.2387 -0.5707
 7501TIP3   OH243917   0.971   5.099   4.299 -0.6402 -0.0544  0.1082
 7501TIP3    H143918   1.006   5.180   4.338 -0.3594 -0.2587  0.2802
 7501TIP3    H243919   1.026   5.030   4.335 -1.1210 -0.3642  0.2565
 7502TIP3   OH243920   4.289   4.799  12.000 -0.4474  0.1051 -0.3722
 7502TIP3    H143921   4.264   4.718  12.044  0.3376  1.0120  1.7663
 7502TIP3    H243922   4.371   4.778  11.956  0.4263  0.0862  1.2404
 7503TIP3   OH243923   0.985   2.585   5.190 -0.3622 -0.2255 -0.7974
 7503TIP3    H143924   0.946   2.514   5.240  0.5245 -0.3848 -0.3193
 7503TIP3    H243925   1.018   2.543   5.110  0.6840 -0.4542 -0.2453
 7504TIP3   OH243926   0.469   6.176  13.276 -0.4145 -0.8734 -0.3123
 7504TIP3    H143927   0.454   6.270  13.264  0.2475 -0.8486 -0.9721
 7504TIP3    H243928   0.399   6.148  13.335  1.6512  0.8086  3.1026
 7505TIP3   OH243929   0.124   4.741  16.189  0.5625 -0.0962  0.2064
 7505TIP3    H143930   0.189   4.776  16.129  0.4229  1.2141  0.7959
 7505TIP3    H243931   0.149   4.776  16.275 -2.0504  2.0806  0.1369
 7506TIP3   OH243932   2.167   3.882   0.335  0.4026  0.1519 -0.0389
 7506TIP3    H143933   2.129   3.919   0.414  3.3778 -0.1567  1.6243
 7506TIP3    H243934   2.167   3.787   0.349 -1.3367 -0.1052 -1.5298
 7507TIP3   OH243935   4.940   1.685  15.429 -0.3733  0.2819 -0.5565
 7507TIP3    H143936   4.870   1.648  15.482  1.4494 -2.3449  0.1622
 7507TIP3    H243937   4.914   1.668  15.338 -1.6343  1.2235 -0.3741
 7508TIP3   OH243938   0.206   3.806  13.033  0.4206  0.1553 -0.7742
 7508TIP3    H143939   0.146   3.855  13.089  0.6817 -0.9790  0.5051
 7508TIP3    H243940   0.294   3.834  13.061  0.5233  1.7451 -2.5801
 7509TIP3   OH243941   0.367   5.310   5.305 -0.0495 -0.5892 -0.2819
 7509TIP3    H143942   0.405   5.276   5.224 -1.8271 -0.9090 -1.0119
 7509TIP3    H243943   0.338   5.398   5.283  1.8658  0.3334  0.7762
 7510TIP3   OH243944   6.576   5.134  14.223 -0.0626 -0.4105  0.0267
 7510TIP3    H143945   6.590   5.154  14.130  2.3100 -0.9243  0.2571
 7510TIP3    H243946   6.501   5.188  14.247  1.0556  1.9041 -1.4731
 7511TIP3   OH243947   1.681   4.899  16.640  0.4519  0.3211 -0.6711
 7511TIP3    H143948   1.723   4.878  16.724  2.1948  1.0772 -1.3279
 7511TIP3    H243949   1.734   4.853  16.575 -0.9228 -0.3050 -1.3745
 7512TIP3   OH243950   2.364   1.695  15.617 -0.2258 -0.0972  0.6080
 7512TIP3    H143951   2.300   1.764  15.603  0.0507 -0.1551 -0.9950
 7512TIP3    H243952   2.426   1.705  15.545  0.1690 -1.6187  0.7226
 7513TIP3   OH243953   4.907   5.913   6.081 -0.1611 -0.4889 -0.4051
 7513TIP3    H143954   4.928   5.820   6.087 -0.3142 -0.5524 -0.8694
 7513TIP3    H243955   4.906   5.943   6.172  0.9389 -0.7031 -0.3205
 7514TIP3   OH243956   2.106   5.558   1.073 -0.6646  0.1243  0.2247
 7514TIP3    H143957   2.024   5.589   1.111 -0.3841  0.0626  0.8906
 7514TIP3    H243958   2.084   5.474   1.032 -1.7191  1.7437 -2.7046
 7515TIP3   OH243959   0.220   3.720   3.632 -0.5158  0.2132 -0.1593
 7515TIP3    H143960   0.206   3.666   3.709 -0.1629 -2.1118 -1.6731
 7515TIP3    H243961   0.187   3.807   3.657 -1.8056 -0.8736  2.0539
 7516TIP3   OH243962   4.228   4.517   1.839  0.3496  0.2348  0.3008
 7516TIP3    H143963   4.323   4.514   1.847  0.5009  0.4221 -1.2770
 7516TIP3    H243964   4.210   4.599   1.793 -0.5553  0.0710  0.3543
 7517TIP3   OH243965   5.182   3.064  13.868  0.3923 -0.0420 -0.0936
 7517TIP3    H143966   5.163   2.970  13.864 -0.4968  0.1257  0.1243
 7517TIP3    H243967   5.265   3.070  13.915  1.2270 -0.8156 -1.4402
 7518TIP3   OH243968   0.467   2.169  13.467 -0.8261  0.6283 -0.3381
 7518TIP3    H143969   0.499   2.101  13.526  0.4463 -0.7762 -2.5669
 7518TIP3    H243970   0.517   2.247  13.491 -1.1722  0.3933  1.2056
 7519TIP3   OH243971   6.550   3.413  15.509 -0.7204 -0.0220 -0.0029
 7519TIP3    H143972   6.645   3.425  15.510 -0.3988 -2.4001  0.9710
 7519TIP3    H243973   6.528   3.385  15.598 -2.4111  0.9571 -0.0831
 7520TIP3   OH243974   2.550   6.556   3.205 -0.1766 -0.2787 -0.1144
 7520TIP3    H143975   2.506   6.639   3.221  0.5938 -0.0480  0.8598
 7520TIP3    H243976   2.627   6.579   3.152 -0.6353 -0.5462 -0.9176
 7521TIP3   OH243977   3.466   4.701  15.834  0.6936 -0.2196 -0.1661
 7521TIP3    H143978   3.478   4.617  15.879 -1.6998  0.0852  1.1488
 7521TIP3    H243979   3.455   4.678  15.742 -0.4043 -1.3842  0.2471
 7522TIP3   OH243980   6.536   0.112  13.462  0.7909 -0.2430  0.0572
 7522TIP3    H143981   6.514   0.089  13.372  0.0349  0.3541  0.0860
 7522TIP3    H243982   6.469   0.068  13.515 -0.2887  1.4664  0.1546
 7523TIP3   OH243983   3.837   4.816   0.204  0.0211 -0.6550 -0.4358
 7523TIP3    H143984   3.927   4.784   0.195  0.1507 -0.3809 -0.1522
 7523TIP3    H243985   3.807   4.830   0.114  0.4162 -0.3323 -0.5220
 7524TIP3   OH243986   3.413   0.373  15.999  0.4607  0.4691  0.0063
 7524TIP3    H143987   3.499   0.333  16.013  0.3598  0.7142  1.4276
 7524TIP3    H243988   3.353   0.298  15.996  0.3231  0.4385  2.2814
 7525TIP3   OH243989   5.312   1.283   6.028  0.5896  0.3852 -0.1922
 7525TIP3    H143990   5.391   1.304   5.978  0.4815 -2.4404 -1.6216
 7525TIP3    H243991   5.321   1.190   6.050 -2.2620  0.0598 -0.2168
 7526TIP3   OH243992   2.312   0.509  11.353 -0.4576 -0.3494  0.4748
 7526TIP3    H143993   2.229   0.517  11.306 -0.3533 -0.4124  0.2790
 7526TIP3    H243994   2.296   0.444  11.421 -0.6155 -0.2420  0.5412
 7527TIP3   OH243995   6.040   0.334   4.888  0.3086 -0.0535 -0.6955
 7527TIP3    H143996   5.986   0.255   4.894 -0.6571  0.5639 -1.2272
 7527TIP3    H243997   6.122   0.304   4.848 -0.4624 -0.5867 -1.8980
 7528TIP3   OH243998   6.118   5.878   5.049 -0.7822  0.0740  0.6585
 7528TIP3    H143999   6.032   5.900   5.016 -0.0781  0.4920 -0.9079
 7528TIP3    H244000   6.104   5.796   5.097 -1.6310 -1.0969 -1.5318
 7529TIP3   OH244001   3.134   2.505  16.064 -0.1103 -0.0815 -0.0787
 7529TIP3    H144002   3.155   2.485  15.973  0.4557  0.7053 -0.1207
 7529TIP3    H244003   3.219   2.510  16.108 -0.3870 -0.6442  0.5360
 7530TIP3   OH244004   5.128   1.820   5.114  0.7943  0.0831  0.2708
 7530TIP3    H144005   5.214   1.778   5.119  0.4423 -0.6759  0.0080
 7530TIP3    H244006   5.115   1.857   5.201  2.2526  1.9576 -0.2489
 7531TIP3   OH244007   5.188   3.055   1.107  0.0906 -0.0636  0.2684
 7531TIP3    H144008   5.195   2.966   1.143  0.3734 -0.3736 -0.5461
 7531TIP3    H244009   5.270   3.097   1.134  0.8234 -0.6593 -0.9850
 7532TIP3   OH244010   5.326   4.048  14.410  0.2616 -0.1143 -0.5900
 7532TIP3    H144011   5.413   4.062  14.374  0.0426 -2.5865 -2.1874
 7532TIP3    H244012   5.271   4.112  14.365  1.2384  1.5432  0.5216
 7533TIP3   OH244013   2.722   3.544   5.888  0.2439  0.1633 -0.2730
 7533TIP3    H144014   2.739   3.467   5.832 -0.6277 -1.4048  1.5693
 7533TIP3    H244015   2.632   3.533   5.918  0.4432  1.3951  0.8165
 7534TIP3   OH244016   2.378   4.602   0.375  0.5433 -0.5632 -0.0416
 7534TIP3    H144017   2.286   4.588   0.353  0.7674 -1.4742 -0.4357
 7534TIP3    H244018   2.421   4.520   0.349  1.2936 -0.5241  1.0457
 7535TIP3   OH244019   5.386   3.555  11.319 -0.5798 -0.5857  0.1426
 7535TIP3    H144020   5.356   3.488  11.258 -0.3893  0.7031 -1.3936
 7535TIP3    H244021   5.306   3.589  11.360 -1.1600  1.6161 -2.6536
 7536TIP3   OH244022   2.797   4.257   2.022 -0.0111  0.4077  0.8722
 7536TIP3    H144023   2.722   4.202   2.045 -0.3100  0.0069 -1.0053
 7536TIP3    H244024   2.764   4.316   1.955  0.8071  1.6486  1.5355
 7537TIP3   OH244025   5.979   3.015   4.655 -0.0810 -0.0761  0.1066
 7537TIP3    H144026   5.972   3.101   4.615  0.6063  0.3912  0.9827
 7537TIP3    H244027   6.024   3.030   4.738  0.9010 -1.4018 -0.1621
 7538TIP3   OH244028   6.236   0.848  12.736  0.0165  0.0408 -0.1727
 7538TIP3    H144029   6.253   0.784  12.667 -0.6060  1.7963 -2.0020
 7538TIP3    H244030   6.170   0.805  12.792 -0.7186 -0.7501 -1.6126
 7539TIP3   OH244031   1.318   5.866   0.484  0.0544 -0.0778  0.0456
 7539TIP3    H144032   1.284   5.793   0.432  0.2753  0.2871 -0.6247
 7539TIP3    H244033   1.248   5.885   0.546  0.5483 -1.7521  1.1429
 7540TIP3   OH244034   5.156   6.619   0.828 -0.3359  0.7222 -0.1276
 7540TIP3    H144035   5.197   6.697   0.866 -0.2554 -0.3383  2.0958
 7540TIP3    H244036   5.222   6.550   0.840 -1.7670 -0.4474  1.2140
 7541TIP3   OH244037   6.018   2.131  15.257 -0.3500 -0.1418 -0.2203
 7541TIP3    H144038   5.987   2.045  15.228 -1.3924  0.2517 -0.2942
 7541TIP3    H244039   5.938   2.181  15.273  0.2424  1.3845 -1.8629
 7542TIP3   OH244040   5.440   4.967  11.957 -0.1366  0.3181  0.3766
 7542TIP3    H144041   5.411   5.038  12.015 -0.4542  0.2332  0.3242
 7542TIP3    H244042   5.363   4.946  11.904 -0.0244 -0.0203  0.3462
 7543TIP3   OH244043   4.537   1.744   4.293  0.2487  0.2914  0.1634
 7543TIP3    H144044   4.445   1.768   4.296  0.4702  1.1911  0.0393
 7543TIP3    H244045   4.552   1.694   4.374 -0.7754 -1.5083 -0.7304
 7544TIP3   OH244046   4.917   6.551  16.390 -0.2588  0.0069  0.4031
 7544TIP3    H144047   5.013   6.556  16.383 -0.2867  2.6052  1.2618
 7544TIP3    H244048   4.894   6.470  16.345  2.3345 -0.5702  0.0183
 7545TIP3   OH244049   0.144   5.033   5.411  0.0883 -0.7016 -0.0573
 7545TIP3    H144050   0.050   5.019   5.396 -0.1364 -1.0736  1.6170
 7545TIP3    H244051   0.156   5.018   5.504  1.8051 -0.5077 -0.2306
 7546TIP3   OH244052   1.461   3.499   2.265 -0.3434 -0.7091 -0.1087
 7546TIP3    H144053   1.366   3.501   2.273 -0.5047 -4.4084 -0.0858
 7546TIP3    H244054   1.492   3.570   2.322 -3.0859  0.8883 -0.5661
 7547TIP3   OH244055   0.535   3.803  10.710  0.0444  0.4115  0.2532
 7547TIP3    H144056   0.497   3.733  10.762  0.1197 -0.4146 -0.7923
 7547TIP3    H244057   0.614   3.765  10.672 -1.1363  0.3067 -2.1835
 7548TIP3   OH244058   6.045   3.848   0.897  0.2874 -0.1157 -0.0063
 7548TIP3    H144059   6.057   3.828   0.990  0.3131 -0.3635 -0.0630
 7548TIP3    H244060   6.130   3.828   0.857  0.1774 -0.3261 -0.1382
 7549TIP3   OH244061   1.075   2.881   3.721 -0.0245 -0.0562 -0.0460
 7549TIP3    H144062   1.085   2.827   3.800 -0.1468 -0.1295 -0.0802
 7549TIP3    H244063   1.122   2.962   3.741  1.3008 -0.6960 -0.4945
 7550TIP3   OH244064   2.693   4.103  15.664 -0.4598  0.2777 -0.4886
 7550TIP3    H144065   2.674   4.137  15.752  2.1003 -0.8559  0.5477
 7550TIP3    H244066   2.699   4.181  15.609  2.7869  1.4412  1.3548
 7551TIP3   OH244067   6.353   5.729  13.960 -0.3495  0.4638  0.0472
 7551TIP3    H144068   6.282   5.715  14.022 -0.3160  1.9332  0.4263
 7551TIP3    H244069   6.326   5.804  13.908  0.1108 -0.0923 -1.0065
 7552TIP3   OH244070   4.436   1.721   1.446 -0.2693 -0.3294 -0.3042
 7552TIP3    H144071   4.502   1.737   1.513 -1.3458  1.3513  0.3922
 7552TIP3    H244072   4.459   1.783   1.376 -1.0451  0.2036 -0.0907
 7553TIP3   OH244073   0.988   5.721   5.335  0.3657  0.3267  0.1871
 7553TIP3    H144074   0.957   5.712   5.245  1.2596  1.2024 -0.2163
 7553TIP3    H244075   0.913   5.755   5.383  0.5872  2.1920 -0.7296
 7554TIP3   OH244076   4.714   4.795   5.213  0.3921  0.4348  0.4556
 7554TIP3    H144077   4.746   4.867   5.267  1.9774  0.8918 -1.0714
 7554TIP3    H244078   4.666   4.837   5.142 -1.5372 -0.1593  1.3707
 7555TIP3   OH244079   6.675   4.044  15.040 -0.4246 -0.2303 -0.6153
 7555TIP3    H144080   6.634   3.978  14.983  2.3667 -3.3955  0.8377
 7555TIP3    H244081   6.685   3.999  15.124 -1.5433  3.2814  1.4714
 7556TIP3   OH244082   6.128   0.815  14.227  0.3968  0.5524 -0.1906
 7556TIP3    H144083   6.153   0.747  14.165  2.3853  0.3027  0.8523
 7556TIP3    H244084   6.067   0.771  14.287  3.2757 -0.9345  1.7381
 7557TIP3   OH244085   5.467   6.122   1.441  0.0633  0.6939  0.4157
 7557TIP3    H144086   5.499   6.033   1.434  0.0724  0.4395  3.1424
 7557TIP3    H244087   5.537   6.177   1.405  0.0272 -0.3591 -1.3184
 7558TIP3   OH244088   3.832   5.560  13.503 -0.0268 -0.2002 -0.3030
 7558TIP3    H144089   3.863   5.646  13.532 -0.1210 -0.6472  1.2053
 7558TIP3    H244090   3.786   5.576  13.421  0.2936  1.1297 -0.2245
 7559TIP3   OH244091   2.527   3.290  17.155  0.4872  0.8173 -0.0124
 7559TIP3    H144092   2.533   3.238  17.075  1.3676 -0.5186  0.8905
 7559TIP3    H244093   2.450   3.256  17.200 -0.8809  2.5709 -0.9510
 7560TIP3   OH244094   5.793   1.611   3.824  0.5078 -0.2522 -0.1873
 7560TIP3    H144095   5.839   1.568   3.896 -1.0167  0.1648  1.0600
 7560TIP3    H244096   5.703   1.579   3.830 -0.0924  1.2755 -0.6988
 7561TIP3   OH244097   0.215   2.522  16.817  0.0005 -0.2099  0.1959
 7561TIP3    H144098   0.224   2.456  16.886 -1.2682  0.7697  1.3470
 7561TIP3    H244099   0.126   2.555  16.828  0.5295  1.4985 -0.5412
 7562TIP3   OH244100   6.645   0.061  12.601  0.1375  0.1809  0.4805
 7562TIP3    H144101   6.684   0.078  12.515 -1.1170 -1.1784 -0.3737
 7562TIP3    H244102   6.715   0.018  12.651  0.4777 -0.1116 -0.2462
 7563TIP3   OH244103   3.300   5.992  10.849 -0.0738 -0.3817  0.4218
 7563TIP3    H144104   3.273   6.056  10.914 -1.9871 -0.6056 -0.1159
 7563TIP3    H244105   3.230   5.927  10.849  0.2101 -0.7261 -1.3648
 7564TIP3   OH244106   3.471   5.864   1.636 -0.3010  0.8258  0.0936
 7564TIP3    H144107   3.550   5.851   1.584  1.8398  0.1803  3.3612
 7564TIP3    H244108   3.455   5.958   1.634 -1.4943  0.6141 -3.3601
 7565TIP3   OH244109   5.439   1.190  14.921 -0.0120 -0.5861 -0.5037
 7565TIP3    H144110   5.486   1.224  14.997 -0.8648  0.5850 -0.4879
 7565TIP3    H244111   5.488   1.224  14.846 -1.4354  1.5895 -0.5039
 7566TIP3   OH244112   3.630   3.932  15.551  0.4928 -0.1807 -0.0783
 7566TIP3    H144113   3.600   3.908  15.463  0.9523 -0.6516 -0.1122
 7566TIP3    H244114   3.688   3.860  15.576  3.2294  1.6685 -0.8316
 7567TIP3   OH244115   3.335   1.265  12.578  0.3663  0.6466  0.2278
 7567TIP3    H144116   3.413   1.211  12.582  0.3016  0.5573  0.2918
 7567TIP3    H244117   3.352   1.328  12.508  0.3167  0.3528 -0.0483
 7568TIP3   OH244118   1.991   4.607  14.713  0.2069  0.1113  0.4123
 7568TIP3    H144119   2.025   4.617  14.802  1.2603 -0.3753  0.0693
 7568TIP3    H244120   2.051   4.546  14.670 -0.9888 -0.6019 -0.2738
 7569TIP3   OH244121   1.751   4.989   2.794  0.7742  0.4983  0.3762
 7569TIP3    H144122   1.795   5.072   2.775 -1.2579  1.1305 -1.7769
 7569TIP3    H244123   1.810   4.922   2.759  2.0630  1.0431  1.4441
 7570TIP3   OH244124   0.137   3.766  15.796 -0.2494  0.0063 -0.1593
 7570TIP3    H144125   0.226   3.799  15.801 -0.7071  1.4557 -1.3219
 7570TIP3    H244126   0.144   3.674  15.824  1.6707 -0.0463 -0.7364
 7571TIP3   OH244127   4.792   5.037  12.487 -0.3252 -0.0017  0.0921
 7571TIP3    H144128   4.777   5.111  12.428 -0.9359  0.0196  0.2652
 7571TIP3    H244129   4.760   4.961  12.438  0.3675 -0.1593 -0.1139
 7572TIP3   OH244130   6.441   4.188   0.239  0.1030  0.1165  0.1384
 7572TIP3    H144131   6.467   4.127   0.308 -0.5209  3.1234  3.1815
 7572TIP3    H244132   6.371   4.143   0.192 -1.2193 -1.0163  3.0852
 7573TIP3   OH244133   6.249   4.570  14.825 -0.4200 -0.1900  0.2814
 7573TIP3    H144134   6.330   4.587  14.875 -0.3854 -1.5316  0.6903
 7573TIP3    H244135   6.255   4.629  14.749  2.2917 -2.2381 -1.1814
 7574TIP3   OH244136   5.828   3.068   0.038  0.0095 -0.8598  0.6362
 7574TIP3    H144137   5.760   3.002   0.053 -0.8050  0.2560  1.8890
 7574TIP3    H244138   5.884   3.029  -0.030 -1.9209 -1.7545 -0.4826
 7575TIP3   OH244139   5.051   2.113   1.368 -0.4409 -0.1202 -0.2655
 7575TIP3    H144140   5.097   2.030   1.360  0.1605  0.3032 -1.3006
 7575TIP3    H244141   5.044   2.127   1.463  1.7339 -0.1029 -0.0795
 7576TIP3   OH244142   5.993   1.894  13.309  0.1553  0.3455  0.0981
 7576TIP3    H144143   6.024   1.833  13.242  0.5244 -1.1826  1.6282
 7576TIP3    H244144   6.070   1.909  13.365 -0.8355 -0.4706  1.7047
 7577TIP3   OH244145   3.859   0.744   0.126  0.0461  0.3551 -0.3442
 7577TIP3    H144146   3.829   0.833   0.140  0.9276  0.5984  0.0558
 7577TIP3    H244147   3.875   0.710   0.215 -1.4960 -0.6370 -0.4183
 7578TIP3   OH244148   3.503   3.975   5.814  0.2326 -0.4870  0.3674
 7578TIP3    H144149   3.500   3.948   5.906  0.8313  1.0958  0.8620
 7578TIP3    H244150   3.506   3.892   5.765 -1.3306 -1.3514  1.7098
 7579TIP3   OH244151   5.473   1.317   1.099  0.4787 -0.1684 -0.2323
 7579TIP3    H144152   5.568   1.320   1.088  0.1882  0.3670 -2.9029
 7579TIP3    H244153   5.451   1.403   1.135  0.9643 -0.1361 -0.0095
 7580TIP3   OH244154   4.523   4.172   4.764  0.7230  0.1572 -0.1188
 7580TIP3    H144155   4.576   4.193   4.687  0.5871 -1.9671 -0.8207
 7580TIP3    H244156   4.563   4.093   4.801 -0.3950  0.0233  0.8543
 7581TIP3   OH244157   2.696   5.858   4.005  0.0769 -0.1001  0.6411
 7581TIP3    H144158   2.639   5.929   4.033  0.5398  0.2960  0.5963
 7581TIP3    H244159   2.695   5.796   4.078  0.2388  0.2981  0.9856
 7582TIP3   OH244160   6.202   6.432   1.536 -0.2989 -0.0477 -0.5294
 7582TIP3    H144161   6.177   6.499   1.599  1.2130 -0.6000  0.7018
 7582TIP3    H244162   6.261   6.477   1.475 -0.5536  0.1166 -0.6557
 7583TIP3   OH244163   0.547   2.271   1.960 -0.0083 -0.7822  0.0676
 7583TIP3    H144164   0.464   2.258   1.915 -0.6427  0.7229  0.7628
 7583TIP3    H244165   0.538   2.357   2.002  1.0915 -1.5565  1.9231
 7584TIP3   OH244166   5.552   4.757  16.338  0.1957  0.1393  0.2829
 7584TIP3    H144167   5.470   4.777  16.293  1.4138  0.5531 -1.8482
 7584TIP3    H244168   5.572   4.667  16.313  0.3307  0.0001  0.8822
 7585TIP3   OH244169   1.075   5.639   2.957  0.4414 -0.3464  0.3761
 7585TIP3    H144170   0.995   5.622   3.007 -0.3893  2.8466  0.2285
 7585TIP3    H244171   1.056   5.603   2.870 -1.6683  2.1440 -0.2576
 7586TIP3   OH244172   4.298   5.489   6.153 -0.1844 -0.0336  0.4414
 7586TIP3    H144173   4.387   5.508   6.122 -0.4065  0.7370  0.2675
 7586TIP3    H244174   4.265   5.423   6.092 -0.3394  0.9070 -0.4984
 7587TIP3   OH244175   1.998   5.023  11.787 -0.1643  0.1175  0.0725
 7587TIP3    H144176   2.093   5.020  11.801  0.2224 -0.5741 -2.3656
 7587TIP3    H244177   1.969   4.933  11.800  0.4243 -0.8647 -4.3690
 7588TIP3   OH244178   2.528   3.979   0.131  0.4482  0.2508 -0.7740
 7588TIP3    H144179   2.505   4.009   0.043  0.2354 -0.3854 -0.9387
 7588TIP3    H244180   2.486   4.041   0.190  0.5274  0.6326 -1.1231
 7589TIP3   OH244181   6.460   3.394  11.899 -0.1595 -0.4307  0.2784
 7589TIP3    H144182   6.459   3.355  11.812 -0.2473 -0.8010  0.4480
 7589TIP3    H244183   6.472   3.488  11.882 -0.2837 -0.4876 -0.1345
 7590TIP3   OH244184   2.617   4.445   2.289 -0.4983  0.0474  0.1908
 7590TIP3    H144185   2.623   4.535   2.321 -1.3540  0.6285 -1.2130
 7590TIP3    H244186   2.532   4.415   2.319 -0.3003 -0.2214  0.4822
 7591TIP3   OH244187   2.323   1.485  12.041  0.2570  0.1383  0.5590
 7591TIP3    H144188   2.355   1.545  12.109 -1.9549 -0.3375  2.0521
 7591TIP3    H244189   2.292   1.408  12.089 -2.4289  0.2785 -0.8742
 7592TIP3   OH244190   5.837   5.222   5.039  0.0480 -0.0118  0.1281
 7592TIP3    H144191   5.905   5.177   4.989  1.3590  0.1496  1.7145
 7592TIP3    H244192   5.776   5.255   4.973  1.4754 -0.2253 -1.3222
 7593TIP3   OH244193   4.343   3.399   6.034 -0.1346  0.8030  0.2038
 7593TIP3    H144194   4.276   3.465   6.015 -0.5069 -0.0849 -1.6866
 7593TIP3    H244195   4.411   3.447   6.081 -0.5522  2.4947 -0.8714
 7594TIP3   OH244196   2.645   1.389   5.248 -0.4000  0.0628 -0.4311
 7594TIP3    H144197   2.552   1.382   5.272 -0.5473 -1.8576 -1.4612
 7594TIP3    H244198   2.691   1.392   5.332 -1.3879  0.9440  0.0870
 7595TIP3   OH244199   4.154   1.762  16.437 -0.0683  0.5336  0.5854
 7595TIP3    H144200   4.063   1.753  16.463  0.1089 -0.9462  0.7318
 7595TIP3    H244201   4.150   1.782  16.343 -0.5375 -0.5543  0.3534
 7596TIP3   OH244202   6.059   4.119  10.521  0.5475  0.0386  0.1457
 7596TIP3    H144203   6.101   4.118  10.607  0.9879  2.0275 -0.0245
 7596TIP3    H244204   6.028   4.209  10.510  0.6213 -0.1467 -1.8211
 7597TIP3   OH244205   5.871   1.878   0.653 -0.5567  1.1317  0.3295
 7597TIP3    H144206   5.864   1.799   0.706  2.1799  0.2029 -0.6446
 7597TIP3    H244207   5.781   1.897   0.627 -1.3206 -1.2853  1.0846
 7598TIP3   OH244208   3.636   3.172  14.029 -0.3610 -0.3873 -0.2102
 7598TIP3    H144209   3.656   3.262  14.004  0.1782 -0.5593 -0.4023
 7598TIP3    H244210   3.717   3.138  14.066 -0.4852 -0.8746 -0.3724
 7599TIP3   OH244211   5.741   1.417  13.585 -0.3831 -0.1062 -0.4117
 7599TIP3    H144212   5.819   1.434  13.531 -1.3991  0.6019 -1.6970
 7599TIP3    H244213   5.709   1.332  13.554  0.7469 -1.1330  1.1928
 7600TIP3   OH244214   1.506   5.370  11.823 -0.2897 -0.2536  0.2020
 7600TIP3    H144215   1.467   5.367  11.910 -0.7023 -0.5712  0.0069
 7600TIP3    H244216   1.544   5.283  11.810  2.0047  0.5566  1.0714
 7601TIP3   OH244217   5.990   4.785  14.743  0.3198 -0.3714 -0.3258
 7601TIP3    H144218   6.004   4.839  14.822  1.1288  0.5973 -1.1066
 7601TIP3    H244219   5.990   4.695  14.775  1.1692 -0.0131  0.7193
 7602TIP3   OH244220   3.916   2.336  13.858 -0.5911 -0.3846  0.0393
 7602TIP3    H144221   3.902   2.418  13.810 -2.2661  0.3443  1.6881
 7602TIP3    H244222   3.963   2.363  13.937 -0.4081 -1.1470  0.1942
 7603TIP3   OH244223   4.902   4.581   1.093  0.0818  0.2732 -0.3392
 7603TIP3    H144224   4.997   4.592   1.104  0.7074 -2.5215 -2.5583
 7603TIP3    H244225   4.883   4.622   1.009 -0.4856 -0.2132 -0.4490
 7604TIP3   OH244226   1.565   4.763  16.047  0.2384  0.5456 -0.0029
 7604TIP3    H144227   1.515   4.683  16.065  1.2219 -0.3233 -1.0656
 7604TIP3    H244228   1.503   4.834  16.064 -0.8487 -0.4565  0.3012
 7605TIP3   OH244229   2.513   1.728   5.979 -0.1922 -0.0087 -0.5818
 7605TIP3    H144230   2.490   1.738   5.886  1.1545 -0.1305 -0.9409
 7605TIP3    H244231   2.439   1.679   6.016 -0.9838  0.4832 -1.4725
 7606TIP3   OH244232   4.429   5.130   4.166  0.1052 -0.8696  0.5227
 7606TIP3    H144233   4.373   5.165   4.235  0.3054 -0.7697  0.6352
 7606TIP3    H244234   4.414   5.188   4.091  2.5869  1.2011  1.5680
 7607TIP3   OH244235   5.559   6.164   3.300 -0.1070  0.1704  0.5171
 7607TIP3    H144236   5.473   6.205   3.314 -0.0585  0.2852  0.4769
 7607TIP3    H244237   5.540   6.087   3.246 -0.5120 -1.1957  2.5639
 7608TIP3   OH244238   6.085   3.272   4.598 -0.1512  0.1492 -0.3637
 7608TIP3    H144239   6.138   3.297   4.674 -1.7597 -0.0761  0.8713
 7608TIP3    H244240   6.063   3.355   4.556 -0.3246  0.3727  0.1626
 7609TIP3   OH244241   0.298   4.275   1.686  0.0347 -0.3762  0.0074
 7609TIP3    H144242   0.309   4.302   1.595  0.9303 -0.0828  0.1970
 7609TIP3    H244243   0.242   4.197   1.682 -2.8960  1.6833 -0.5360
 7610TIP3   OH244244   4.663   1.541   6.339  0.2606  0.5309  0.5564
 7610TIP3    H144245   4.638   1.449   6.330  1.3610  0.2038  0.7698
 7610TIP3    H244246   4.616   1.570   6.417  3.6325 -1.2214  3.4391
 7611TIP3   OH244247   1.156   0.146   0.014 -0.2394  0.5400 -0.1632
 7611TIP3    H144248   1.218   0.147   0.087 -0.4100  3.5357  0.0020
 7611TIP3    H244249   1.070   0.150   0.056 -0.2839  5.3549 -0.4673
 7612TIP3   OH244250   0.790   5.750  16.642  0.7405 -0.0095 -0.2306
 7612TIP3    H144251   0.707   5.797  16.637  0.9139  0.1642 -1.8005
 7612TIP3    H244252   0.768   5.660  16.617  0.7759 -0.2979  0.7548
 7613TIP3   OH244253   0.794   6.231  12.357 -0.0451 -0.3738  0.1425
 7613TIP3    H144254   0.821   6.203  12.445  1.9004 -1.7534 -0.8651
 7613TIP3    H244255   0.749   6.154  12.320  0.1417 -0.1757 -0.4945
 7614TIP3   OH244256   6.198   3.306   3.534  0.5420  0.2802  0.5051
 7614TIP3    H144257   6.200   3.299   3.629 -0.7940 -0.5104  0.4862
 7614TIP3    H244258   6.247   3.386   3.515 -0.7956  1.4861  1.9852
 7615TIP3   OH244259   1.441   0.205   4.470  0.2644 -0.8450 -0.1250
 7615TIP3    H144260   1.513   0.143   4.478 -0.2684 -1.7466 -2.1909
 7615TIP3    H244261   1.368   0.164   4.518 -0.0796 -1.8284 -1.4627
 7616TIP3   OH244262   0.345   2.716   3.322 -0.0356  0.2711 -0.0108
 7616TIP3    H144263   0.426   2.766   3.309 -0.0077  0.5500  1.1737
 7616TIP3    H244264   0.366   2.656   3.394  0.3128 -2.2903 -2.1516
 7617TIP3   OH244265   6.443   0.824  12.028 -0.4417 -0.2687  0.3288
 7617TIP3    H144266   6.421   0.738  11.991 -0.3453 -0.4194  0.6125
 7617TIP3    H244267   6.414   0.818  12.119 -0.5109  0.0296  0.3254
 7618TIP3   OH244268   5.609   6.629   3.691  0.3786  0.4435 -0.3768
 7618TIP3    H144269   5.574   6.628   3.602  3.7087 -1.1786 -1.7450
 7618TIP3    H244270   5.627   6.721   3.709  0.8983  0.6415 -1.8885
 7619TIP3   OH244271   6.256   2.517   2.843  0.1814 -0.0359  0.2959
 7619TIP3    H144272   6.339   2.537   2.884  0.0579  1.1811 -0.0369
 7619TIP3    H244273   6.190   2.535   2.910  0.0977  0.2124  0.1457
 7620TIP3   OH244274   5.866   0.875   5.220 -0.1740 -0.0794  0.7933
 7620TIP3    H144275   5.786   0.916   5.186  0.0737  0.8113  1.2578
 7620TIP3    H244276   5.861   0.784   5.191 -1.4700 -0.0874  1.0124
 7621TIP3   OH244277   1.786   1.538   6.618  0.0089  0.8968 -0.2921
 7621TIP3    H144278   1.764   1.498   6.534  1.5501  1.3903 -0.9499
 7621TIP3    H244279   1.881   1.548   6.615  0.3159 -0.6816  2.2067
 7622TIP3   OH244280   5.393   6.061   5.024 -0.2995 -0.1888 -0.0791
 7622TIP3    H144281   5.390   6.038   4.931  1.1538 -1.9707  0.2816
 7622TIP3    H244282   5.318   6.119   5.037 -2.7159 -2.8901 -1.5438
 7623TIP3   OH244283   5.707   0.141   3.569 -0.1105 -0.6308  0.0407
 7623TIP3    H144284   5.668   0.116   3.486 -1.0537  0.3618  0.1777
 7623TIP3    H244285   5.799   0.115   3.561 -0.6521 -2.4516 -0.4921
 7624TIP3   OH244286   0.271   6.617  13.519  0.4466  0.1584 -0.5998
 7624TIP3    H144287   0.244   6.624  13.611 -3.2972 -1.5863 -1.4700
 7624TIP3    H244288   0.295   6.706  13.494 -1.8056  1.2915  1.1582
 7625TIP3   OH244289   5.347   5.514  16.456 -0.1535 -0.3154  0.2018
 7625TIP3    H144290   5.271   5.457  16.459 -0.3109 -0.1487 -0.4220
 7625TIP3    H244291   5.312   5.603  16.456  0.0371 -0.2362 -0.0423
 7626TIP3   OH244292   2.014   2.807   4.192  0.2441 -0.1698  0.1617
 7626TIP3    H144293   2.052   2.858   4.263 -0.7077  0.3066  0.3426
 7626TIP3    H244294   2.079   2.740   4.172  1.3272  0.8583  0.2105
 7627TIP3   OH244295   1.542   5.411   4.486 -0.0595 -0.2941 -0.0114
 7627TIP3    H144296   1.542   5.366   4.570  0.1054  0.1331  0.2169
 7627TIP3    H244297   1.502   5.349   4.425 -0.2163 -0.5856  0.3912
 7628TIP3   OH244298   5.445   2.692   4.858  0.2636  0.0415 -0.1122
 7628TIP3    H144299   5.427   2.598   4.862  0.9252 -0.0723  0.1020
 7628TIP3    H244300   5.417   2.718   4.770 -0.3991 -0.2534  0.0067
 7629TIP3   OH244301   5.535   0.506  13.228  0.2541 -0.2364  0.7873
 7629TIP3    H144302   5.545   0.431  13.287 -0.2575 -0.2670  0.8350
 7629TIP3    H244303   5.452   0.546  13.254  0.5703  0.3979  0.8196
 7630TIP3   OH244304   0.539   5.289   0.244 -0.0763 -0.1131 -0.4966
 7630TIP3    H144305   0.531   5.244   0.328  0.3965 -0.8876 -0.8645
 7630TIP3    H244306   0.451   5.287   0.207 -0.3048  0.3169  0.0292
 7631TIP3   OH244307   6.536   3.389  14.608 -0.4392  0.2451 -0.1846
 7631TIP3    H144308   6.531   3.316  14.546 -0.2390  1.2686 -1.4247
 7631TIP3    H244309   6.477   3.364  14.679 -0.9109 -0.8123 -0.9354
 7632TIP3   OH244310   0.598   4.022  11.619 -0.1054 -0.3992  0.2069
 7632TIP3    H144311   0.614   3.978  11.536  2.5628  0.2542  0.3409
 7632TIP3    H244312   0.581   3.951  11.681  0.6238 -1.0235 -0.3072
 7633TIP3   OH244313   5.184   3.766  14.893  0.2763  0.5690 -0.1635
 7633TIP3    H144314   5.214   3.700  14.956  1.9121  0.3079 -1.1861
 7633TIP3    H244315   5.193   3.724  14.808 -3.4793  0.3225 -0.5245
 7634TIP3   OH244316   0.037   6.680   3.198  0.0529 -0.2520  0.2619
 7634TIP3    H144317   0.068   6.590   3.203  0.6376 -0.0528  0.2535
 7634TIP3    H244318  -0.048   6.679   3.242 -0.9068 -1.2416 -1.5266
 7635TIP3   OH244319   3.009   4.863  16.789 -0.2570  0.0204  0.6174
 7635TIP3    H144320   2.997   4.917  16.711  0.5433 -0.2611  0.2909
 7635TIP3    H244321   2.924   4.864  16.833 -0.7316  0.1253 -0.2934
 7636TIP3   OH244322   3.457   6.231  13.718 -0.0407  0.3734  0.0175
 7636TIP3    H144323   3.419   6.289  13.784 -0.7222 -0.0271 -0.0283
 7636TIP3    H244324   3.453   6.281  13.637  0.6516  0.8039  0.2359
 7637TIP3   OH244325   5.033   1.082  14.011 -0.2621  0.9619 -0.1672
 7637TIP3    H144326   5.078   1.066  14.094  1.7910  1.0669 -1.2408
 7637TIP3    H244327   5.051   1.005  13.958 -1.6313  0.8618 -0.5008
 7638TIP3   OH244328   2.784   2.988   6.277  0.1209  0.5337  0.0507
 7638TIP3    H144329   2.784   3.032   6.362 -2.6572  0.8841 -0.0618
 7638TIP3    H244330   2.736   2.906   6.293  0.2999  0.2205 -0.9802
 7639TIP3   OH244331   4.636   4.541   0.704 -0.0915 -0.9959 -0.1344
 7639TIP3    H144332   4.612   4.449   0.705  1.3716 -1.3827  0.0016
 7639TIP3    H244333   4.707   4.547   0.640  2.1929 -0.5667  2.3818
 7640TIP3   OH244334   3.653   4.442   2.650  0.1030 -0.0770 -0.1939
 7640TIP3    H144335   3.736   4.399   2.630  1.2182  1.6572  0.6382
 7640TIP3    H244336   3.652   4.520   2.595 -0.6567  0.2738  0.3078
 7641TIP3   OH244337   2.451   5.040  15.397 -0.5070 -0.3757  0.0565
 7641TIP3    H144338   2.425   5.111  15.456 -2.6421 -0.1496 -1.0696
 7641TIP3    H244339   2.522   5.076  15.345  0.1700  0.0339  1.2545
 7642TIP3   OH244340   1.515   6.009  16.958  0.5854  0.1026 -0.3143
 7642TIP3    H144341   1.500   6.102  16.938  2.1450 -0.0396 -2.2155
 7642TIP3    H244342   1.561   6.010  17.042  0.9154  1.0735 -0.4980
 7643TIP3   OH244343   0.332   0.964  13.869 -0.0029  0.0438 -0.4289
 7643TIP3    H144344   0.303   0.890  13.922 -0.5173  0.5523  0.0127
 7643TIP3    H244345   0.346   0.927  13.782 -0.2954 -0.5633 -0.2214
 7644TIP3   OH244346   0.223   3.434  13.422 -0.4269  0.0265 -0.5540
 7644TIP3    H144347   0.232   3.406  13.330 -1.4675 -1.4160 -0.2347
 7644TIP3    H244348   0.191   3.356  13.467  0.5540  0.5936  1.1376
 7645TIP3   OH244349   1.682   5.110  12.652  0.0446 -0.3030 -0.1580
 7645TIP3    H144350   1.654   5.126  12.742 -0.2979  3.2174 -0.8270
 7645TIP3    H244351   1.648   5.023  12.632 -0.4703 -0.8633  2.8705
 7646TIP3   OH244352   0.906   2.109   3.465 -0.4411  0.0315 -0.6012
 7646TIP3    H144353   0.914   2.065   3.380  0.7452  0.2063 -0.5885
 7646TIP3    H244354   0.842   2.058   3.513  1.2099 -1.9502 -0.4381
 7647TIP3   OH244355   3.947   2.135  11.755  0.0802 -0.0246 -0.3585
 7647TIP3    H144356   3.915   2.212  11.709 -0.4526 -0.8257 -1.3537
 7647TIP3    H244357   4.001   2.089  11.690 -0.0166 -0.7487  0.0652
 7648TIP3   OH244358   6.472   4.551  12.969 -0.0008  0.7062 -0.1592
 7648TIP3    H144359   6.377   4.555  12.978 -0.0401 -2.5038  1.6253
 7648TIP3    H244360   6.506   4.580  13.054  0.6261  1.7916 -0.7720
 7649TIP3   OH244361   4.814   0.676   2.080  0.4716 -0.1139  0.2487
 7649TIP3    H144362   4.866   0.606   2.119  1.5355  0.1057 -0.7631
 7649TIP3    H244363   4.750   0.631   2.025  1.0812 -0.3069 -0.3092
 7650TIP3   OH244364   6.558   1.623  15.077 -0.4733  0.7040  0.7728
 7650TIP3    H144365   6.540   1.565  15.003  0.3527  1.6293 -0.1763
 7650TIP3    H244366   6.524   1.577  15.153 -2.0098  0.0519 -0.2826
 7651TIP3   OH244367   6.675   2.413  10.904  0.1331 -0.2420  0.3992
 7651TIP3    H144368   6.668   2.322  10.877  0.0115 -0.3347  0.7342
 7651TIP3    H244369   6.588   2.450  10.886  1.1244  0.6816 -2.8099
 7652TIP3   OH244370   1.135   1.940   1.336  0.3180 -0.4418  0.0447
 7652TIP3    H144371   1.047   1.953   1.299  0.2127  0.7537  0.7121
 7652TIP3    H244372   1.119   1.903   1.423  0.5294 -1.8472 -0.5042
 7653TIP3   OH244373   0.428   2.504  11.832  0.0926  0.8488  0.5181
 7653TIP3    H144374   0.432   2.411  11.808  1.7727  1.2272 -0.7906
 7653TIP3    H244375   0.467   2.549  11.758 -1.5098  2.6883  0.7784
 7654TIP3   OH244376   2.431   5.908   5.862 -0.2397 -0.6695  0.3627
 7654TIP3    H144377   2.364   5.841   5.870 -0.6242 -0.4905 -1.1756
 7654TIP3    H244378   2.388   5.981   5.819  1.0333 -0.7073 -1.0195
 7655TIP3   OH244379   5.462   0.824  16.026  0.3369  0.0197  0.1145
 7655TIP3    H144380   5.481   0.756  15.961  0.1086  0.3282 -0.2818
 7655TIP3    H244381   5.544   0.873  16.034  1.3155 -1.9026  2.3517
 7656TIP3   OH244382   1.517   4.558  16.707 -0.2512 -0.2087  0.2765
 7656TIP3    H144383   1.548   4.492  16.769  2.2422  0.9197  0.2869
 7656TIP3    H244384   1.588   4.569  16.645 -1.0377  1.7130 -0.3329
 7657TIP3   OH244385   6.121   5.596   6.251  0.2662 -0.0545  0.0825
 7657TIP3    H144386   6.058   5.662   6.280 -0.3231  0.8027 -2.9706
 7657TIP3    H244387   6.200   5.614   6.301 -0.3098  2.1238  0.2362
 7658TIP3   OH244388   0.024   0.873   3.047 -0.0523 -0.0885  0.1239
 7658TIP3    H144389   0.062   0.960   3.056  0.1228  0.1463 -2.3562
 7658TIP3    H244390  -0.065   0.881   3.081  0.2478  0.8194  0.7155
 7659TIP3   OH244391   3.217   2.010   3.297 -0.3145  0.1906  0.1236
 7659TIP3    H144392   3.196   1.922   3.329 -2.8603  0.4762 -0.6875
 7659TIP3    H244393   3.142   2.063   3.324  0.5816  1.8268 -0.5885
 7660TIP3   OH244394   5.045   4.397  11.983 -0.1855  0.1665  0.3240
 7660TIP3    H144395   5.049   4.460  11.911 -0.9844 -0.0503  0.0839
 7660TIP3    H244396   4.965   4.420  12.031  0.4065  0.3887  1.2176
 7661TIP3   OH244397   2.498   1.086  15.220  0.4703  0.1762 -0.0682
 7661TIP3    H144398   2.512   1.108  15.313 -0.6153 -1.6969  0.5798
 7661TIP3    H244399   2.442   1.155  15.187  0.5473  0.6576  0.7744
 7662TIP3   OH244400   1.334   5.150  14.079 -0.0516  0.2405 -0.3159
 7662TIP3    H144401   1.399   5.203  14.034  0.1763 -1.1601 -1.6935
 7662TIP3    H244402   1.251   5.195  14.064 -0.1658 -0.8547 -3.2696
 7663TIP3   OH244403   5.763   6.532  11.933  0.7142 -0.2321  0.1418
 7663TIP3    H144404   5.781   6.626  11.933  0.0254 -0.0773 -2.7765
 7663TIP3    H244405   5.680   6.524  11.980  1.3137  0.4565  1.3821
 7664TIP3   OH244406   4.777   5.889  11.220 -0.2066  0.0264  0.0951
 7664TIP3    H144407   4.840   5.835  11.267  1.1537  1.1651 -0.4137
 7664TIP3    H244408   4.750   5.834  11.146 -0.1976 -0.6567  0.5953
 7665TIP3   OH244409   3.808   2.238   3.564 -0.7691  0.0670 -0.1035
 7665TIP3    H144410   3.837   2.166   3.620  0.9110  1.1294  0.4344
 7665TIP3    H244411   3.887   2.265   3.517 -1.0186  2.5753  0.8535
 7666TIP3   OH244412   3.695   6.035   4.325 -0.2405  0.1307  0.4464
 7666TIP3    H144413   3.743   5.980   4.387 -0.1261  1.0641  1.2018
 7666TIP3    H244414   3.677   6.116   4.374 -2.2041 -0.0335  0.0430
 7667TIP3   OH244415   2.219   3.163   0.233  0.0655 -0.1472  0.7428
 7667TIP3    H144416   2.250   3.147   0.143 -1.4367 -1.7166  0.4611
 7667TIP3    H244417   2.290   3.131   0.289  0.4955 -0.3073  0.1127
 7668TIP3   OH244418   6.654   6.332  11.001  0.2203 -0.3154 -0.0976
 7668TIP3    H144419   6.684   6.282  10.925 -2.6237  0.2376 -1.6605
 7668TIP3    H244420   6.633   6.418  10.966 -0.7763  0.0749  1.4128
 7669TIP3   OH244421   2.812   5.918   5.020 -0.2130 -0.5526  0.2790
 7669TIP3    H144422   2.902   5.949   5.023 -0.3758 -0.0235 -0.2317
 7669TIP3    H244423   2.772   5.967   4.949 -1.0929 -0.2616  0.9614
 7670TIP3   OH244424   0.657   0.561  13.880 -0.0655 -0.0412 -0.4139
 7670TIP3    H144425   0.662   0.651  13.911 -0.2362  0.0188 -0.5580
 7670TIP3    H244426   0.679   0.507  13.957 -2.7619  0.0182  0.4562
 7671TIP3   OH244427   1.708   3.795  16.188 -0.1167 -0.2341 -0.7817
 7671TIP3    H144428   1.728   3.735  16.115 -2.4333  0.1595 -1.7841
 7671TIP3    H244429   1.647   3.859  16.151 -0.2336  0.8122  1.1473
 7672TIP3   OH244430   1.327   6.029  11.979 -0.2717 -0.0562  0.4997
 7672TIP3    H144431   1.273   5.975  11.921 -0.1396 -0.5410  0.8287
 7672TIP3    H244432   1.416   5.995  11.968 -0.3140 -0.4468  1.3183
 7673TIP3   OH244433   0.880   1.083   1.300 -0.2529 -0.2637  0.7439
 7673TIP3    H144434   0.885   0.992   1.326 -0.9868 -0.0237  1.7554
 7673TIP3    H244435   0.935   1.130   1.363 -0.6628  0.1146  0.8246
 7674TIP3   OH244436   4.886   5.326  16.719 -0.1520  0.0582  0.1034
 7674TIP3    H144437   4.949   5.257  16.742  0.9344  0.7272 -0.7802
 7674TIP3    H244438   4.883   5.382  16.796 -1.6375 -1.3768  1.1334
 7675TIP3   OH244439   0.550   2.617   4.364  0.2943  0.6095 -1.0915
 7675TIP3    H144440   0.581   2.599   4.276 -1.1946  0.4654 -1.5967
 7675TIP3    H244441   0.456   2.629   4.355  0.1987  1.1488  0.3935
 7676TIP3   OH244442   3.171   0.864   0.454 -0.3599  0.1460 -0.5302
 7676TIP3    H144443   3.156   0.940   0.398 -0.0289  0.2579 -0.4684
 7676TIP3    H244444   3.239   0.892   0.515  0.9990 -0.7338 -1.5914
 7677TIP3   OH244445   1.496   5.739  12.880 -0.9925 -0.2353 -0.3428
 7677TIP3    H144446   1.420   5.724  12.936 -1.4036 -0.5874 -0.9879
 7677TIP3    H244447   1.485   5.828  12.848 -1.6518 -0.6157 -1.2055
 7678TIP3   OH244448   0.515   2.622   5.580 -0.3777 -0.1810 -0.3867
 7678TIP3    H144449   0.459   2.545   5.583  0.6580 -0.9897 -1.4885
 7678TIP3    H244450   0.541   2.630   5.488  0.2147  0.9755 -0.1325
 7679TIP3   OH244451   3.559   6.091  15.985 -0.2279 -0.3999  0.5890
 7679TIP3    H144452   3.647   6.071  15.952  0.7956  1.3520  2.1920
 7679TIP3    H244453   3.541   6.021  16.048 -0.8799 -1.9479 -1.2670
 7680TIP3   OH244454   6.096   2.851  12.112 -0.2430  0.3019 -0.0698
 7680TIP3    H144455   6.145   2.897  12.043 -1.3715  0.2542 -0.9101
 7680TIP3    H244456   6.035   2.796  12.064 -1.5027  0.7786  0.9835
 7681TIP3   OH244457   3.317   1.865   2.411  0.0094  0.7693 -0.1908
 7681TIP3    H144458   3.307   1.862   2.506  2.2231  0.2898  0.0683
 7681TIP3    H244459   3.284   1.780   2.381  1.1573  0.1100  0.3671
 7682TIP3   OH244460   0.038   2.644  11.706  0.0954 -0.1050 -0.0975
 7682TIP3    H144461   0.133   2.652  11.718  0.2167 -1.6445  0.1117
 7682TIP3    H244462   0.010   2.585  11.777 -0.7213 -1.1390 -1.2640
 7683TIP3   OH244463   0.420   2.996  12.822  0.1358  0.0913 -0.5761
 7683TIP3    H144464   0.446   2.962  12.736 -0.0728 -1.3819 -0.0824
 7683TIP3    H244465   0.443   2.925  12.882 -0.9791  0.5603  0.4049
 7684TIP3   OH244466   0.189   5.921   1.922  0.3539 -0.0026  0.0967
 7684TIP3    H144467   0.172   5.840   1.874  2.2865  0.2467 -1.0596
 7684TIP3    H244468   0.255   5.897   1.986  0.2391  0.4508  0.3860
 7685TIP3   OH244469   1.376   4.597   0.943 -0.5492 -0.5151 -0.0848
 7685TIP3    H144470   1.465   4.628   0.928  0.0455 -1.5882  1.1397
 7685TIP3    H244471   1.361   4.609   1.037 -2.4808  1.6597 -0.6240
 7686TIP3   OH244472   3.944   5.592   5.296 -0.2836 -0.3542  0.2517
 7686TIP3    H144473   3.894   5.529   5.244  1.2840 -1.1912 -0.2634
 7686TIP3    H244474   3.893   5.602   5.377 -0.7401 -1.9969  0.1840
 7687TIP3   OH244475   4.613   1.663   5.463 -0.0173 -0.7564 -0.2112
 7687TIP3    H144476   4.561   1.628   5.391  0.8387  0.2982 -1.3631
 7687TIP3    H244477   4.551   1.673   5.535 -0.9568 -1.4908 -0.9010
 7688TIP3   OH244478   3.395   6.771  15.413  0.3195 -0.2868  0.7175
 7688TIP3    H144479   3.462   6.839  15.424  1.1776 -0.8171 -1.0989
 7688TIP3    H244480   3.330   6.790  15.481  1.5647  1.1373  1.5247
 7689TIP3   OH244481   2.816   5.377  11.215 -0.2209 -0.3032  0.1597
 7689TIP3    H144482   2.749   5.359  11.150  0.5019  1.3801 -1.0741
 7689TIP3    H244483   2.804   5.308  11.281 -3.7220  0.5049  0.4431
 7690TIP3   OH244484   3.685   6.256   4.563 -0.2574 -0.4513  0.1067
 7690TIP3    H144485   3.610   6.201   4.585  0.1953 -0.7331  0.9806
 7690TIP3    H244486   3.653   6.346   4.571  0.2933 -0.4691  3.6098
 7691TIP3   OH244487   3.443   2.212   3.344  0.1942 -0.0191  0.2775
 7691TIP3    H144488   3.392   2.291   3.326 -1.8653 -1.0870  1.2820
 7691TIP3    H244489   3.385   2.157   3.397  1.3557 -2.4614 -0.8929
 7692TIP3   OH244490   6.134   4.073  14.914 -0.2212 -0.8400 -0.3039
 7692TIP3    H144491   6.166   4.134  14.981 -0.6922  0.0952 -0.9178
 7692TIP3    H244492   6.209   4.060  14.856 -0.0873 -0.9360 -0.1095
 7693TIP3   OH244493   5.354   0.959   4.818 -0.1138  0.2132  0.3755
 7693TIP3    H144494   5.413   0.940   4.745 -1.2585 -0.0531 -0.4841
 7693TIP3    H244495   5.334   0.873   4.855  0.9192  0.3868  1.3826
 7694TIP3   OH244496   0.999   4.749  15.236  0.4818 -0.1016 -0.0502
 7694TIP3    H144497   1.084   4.779  15.269  0.6211  0.8107 -1.1793
 7694TIP3    H244498   0.960   4.700  15.308  2.2356 -1.0554  0.2832
 7695TIP3   OH244499   0.502   4.871  15.121 -0.1233 -0.4721 -0.8564
 7695TIP3    H144500   0.465   4.852  15.208  0.3541 -1.8195 -0.9359
 7695TIP3    H244501   0.444   4.938  15.085  1.5674  2.5971  1.8233
 7696TIP3   OH244502   2.512   2.409  11.575  0.0189  0.1035  0.0556
 7696TIP3    H144503   2.602   2.438  11.590 -0.4517  2.2382 -1.1090
 7696TIP3    H244504   2.512   2.317  11.602  2.0863  0.5720  1.7955
 7697TIP3   OH244505   5.913   3.716   0.105 -0.2499 -0.1438 -0.0274
 7697TIP3    H144506   5.973   3.645   0.126 -0.3091 -0.0470  0.4798
 7697TIP3    H244507   5.827   3.675   0.102 -0.3059 -0.0696  0.4351
 7698TIP3   OH244508   3.204   0.171   5.773  0.1570  0.4431  0.4915
 7698TIP3    H144509   3.157   0.160   5.856 -0.2683 -1.4552  0.0255
 7698TIP3    H244510   3.190   0.263   5.750 -0.0359  0.9038  2.3201
 7699TIP3   OH244511   6.237   0.103  15.818  0.2672  0.2190  0.3773
 7699TIP3    H144512   6.199   0.127  15.734  2.7009 -3.0612 -1.7646
 7699TIP3    H244513   6.301   0.172  15.836  2.1156 -0.7099 -2.2032
 7700TIP3   OH244514   2.423   6.362   5.828  0.2429  0.1727  0.0800
 7700TIP3    H144515   2.433   6.313   5.909  1.8189  1.0027  0.4171
 7700TIP3    H244516   2.482   6.437   5.838 -1.1888  1.4690 -0.9318
 7701TIP3   OH244517   6.666   4.906   3.210  0.5665 -0.8263  0.3337
 7701TIP3    H144518   6.745   4.894   3.263  0.3828  1.6512  1.2394
 7701TIP3    H244519   6.605   4.840   3.242  2.7424 -3.7466 -1.3784
 7702TIP3   OH244520   6.491   1.812  14.238 -0.0297 -0.1138  0.1149
 7702TIP3    H144521   6.455   1.841  14.322  0.0852  0.5790 -0.0724
 7702TIP3    H244522   6.528   1.726  14.256  1.1731  0.5920  1.0999
 7703TIP3   OH244523   5.841   3.057   2.975 -0.6115  0.3101 -0.2878
 7703TIP3    H144524   5.765   3.113   2.993 -0.4327  0.2813  0.5895
 7703TIP3    H244525   5.868   3.025   3.061 -0.2074 -0.4719 -0.7046
 7704TIP3   OH244526   0.348   2.680   2.831  0.3188 -0.1330 -0.1379
 7704TIP3    H144527   0.260   2.715   2.815 -0.5256 -1.1822  2.0652
 7704TIP3    H244528   0.352   2.602   2.775 -0.2784 -0.2782  0.0146
 7705TIP3   OH244529   2.765   4.444  12.288  0.6364 -0.1929 -0.0065
 7705TIP3    H144530   2.804   4.521  12.246 -0.6167 -0.5246 -1.8333
 7705TIP3    H244531   2.703   4.411  12.223  0.1516 -1.9278  1.3270
 7706TIP3   OH244532   2.293   5.954   3.692 -0.3642  0.6399 -0.1969
 7706TIP3    H144533   2.287   6.046   3.666 -0.2127  1.0473  1.1889
 7706TIP3    H244534   2.381   5.927   3.664  0.0128  1.2354  0.4192
 7707TIP3   OH244535   5.716   6.748   4.354 -0.7331 -0.1669 -0.0810
 7707TIP3    H144536   5.723   6.833   4.399 -0.7897  1.0643 -2.3041
 7707TIP3    H244537   5.630   6.752   4.311 -0.1819 -0.8027 -1.2592
 7708TIP3   OH244538   0.581   4.608  14.534  0.2183 -0.4445 -0.4067
 7708TIP3    H144539   0.563   4.531  14.589 -1.1985 -0.8733 -1.4284
 7708TIP3    H244540   0.532   4.679  14.575 -2.1012 -1.1047 -1.9114
 7709TIP3   OH244541   3.921   3.781   2.894 -0.3042 -0.2820 -0.4509
 7709TIP3    H144542   3.999   3.725   2.905 -0.4974 -0.3147  0.8484
 7709TIP3    H244543   3.890   3.795   2.983 -0.0554  2.1964 -0.7252
 7710TIP3   OH244544   6.033   3.894  16.738  0.4347 -0.6161 -0.0972
 7710TIP3    H144545   6.100   3.895  16.806 -0.9402  2.1373  1.2808
 7710TIP3    H244546   6.017   3.801  16.722  0.6914 -1.3244  3.4221
 7711TIP3   OH244547   1.331   5.515   0.329 -0.8969 -0.4526 -0.1201
 7711TIP3    H144548   1.366   5.444   0.275  0.7661  0.4845 -0.3218
 7711TIP3    H244549   1.297   5.578   0.266  1.9617  1.1164 -0.2027
 7712TIP3   OH244550   5.339   4.121  10.953 -0.2980  0.3261  0.4672
 7712TIP3    H144551   5.294   4.052  11.001 -0.6551 -0.3866 -0.8678
 7712TIP3    H244552   5.414   4.078  10.912  0.1179  0.9665  0.5402
 7713TIP3   OH244553   4.443   4.214   0.297  0.2428  0.0713  0.0609
 7713TIP3    H144554   4.482   4.270   0.364  1.0901  0.5031 -0.7890
 7713TIP3    H244555   4.507   4.143   0.284 -0.0797 -0.2035 -0.0398
 7714TIP3   OH244556   4.887   0.009  11.341  0.1036 -0.1103  0.2944
 7714TIP3    H144557   4.888  -0.037  11.257  0.2812  0.2543  0.0932
 7714TIP3    H244558   4.826   0.082  11.328 -1.0109 -0.9224  0.9631
 7715TIP3   OH244559   4.434   4.120   3.022 -0.6377 -0.8462  0.7222
 7715TIP3    H144560   4.526   4.146   3.030 -1.1884  1.0948  0.9763
 7715TIP3    H244561   4.437   4.025   3.012  1.5081 -0.6463 -1.0228
 7716TIP3   OH244562   5.865   6.745   4.065 -0.2413 -0.5716  0.0473
 7716TIP3    H144563   5.874   6.672   4.004 -0.4365  0.7226 -1.5530
 7716TIP3    H244564   5.819   6.707   4.140 -1.4820 -1.8047 -1.3009
 7717TIP3   OH244565   4.980   2.589  13.312  0.3250  0.2095 -0.2425
 7717TIP3    H144566   4.903   2.533  13.314  0.2815  0.2184 -1.3192
 7717TIP3    H244567   5.054   2.528  13.309  0.4476  0.1783  2.3126
 7718TIP3   OH244568   1.554   5.085  13.252  0.1581  0.3517  0.3299
 7718TIP3    H144569   1.624   5.054  13.195  0.3520  1.4646 -0.0492
 7718TIP3    H244570   1.505   5.006  13.276  2.1281 -0.5758  1.4048
 7719TIP3   OH244571   3.567   4.906   2.839 -0.2384 -0.2631  0.5581
 7719TIP3    H144572   3.648   4.920   2.789 -0.8426  2.5429  0.2557
 7719TIP3    H244573   3.503   4.877   2.773 -0.1191 -0.0185  0.3314
 7720TIP3   OH244574   0.538   4.929   3.152  0.1271  1.4154  0.6660
 7720TIP3    H144575   0.610   4.891   3.203 -0.5322  0.2146  0.7134
 7720TIP3    H244576   0.540   5.022   3.174  2.4797  1.6357 -0.3226
 7721TIP3   OH244577   5.173   4.577   5.398  0.4231 -0.1220  0.0690
 7721TIP3    H144578   5.224   4.641   5.349  0.0505  0.0691 -0.0685
 7721TIP3    H244579   5.239   4.524   5.443  0.7630 -0.2853 -0.6147
 7722TIP3   OH244580   1.521   6.127   6.490  0.5705  0.2570 -0.0073
 7722TIP3    H144581   1.607   6.097   6.462 -0.6009 -2.3691 -0.9113
 7722TIP3    H244582   1.460   6.089   6.426 -1.2815  2.0466  0.6160
 7723TIP3   OH244583   1.698   0.947   4.064  0.3945  0.5528  0.1369
 7723TIP3    H144584   1.763   0.910   4.004 -0.9999 -0.7137 -0.6387
 7723TIP3    H244585   1.696   1.040   4.044  0.1939  0.1922 -1.5797
 7724TIP3   OH244586   5.216   1.885   5.368  0.0536 -0.1279  0.4888
 7724TIP3    H144587   5.307   1.862   5.385  0.4273  0.5931 -0.5036
 7724TIP3    H244588   5.167   1.847   5.442  0.8423 -2.6346 -0.2392
 7725TIP3   OH244589   3.235   5.256  15.879 -0.0241 -1.2495  0.3410
 7725TIP3    H144590   3.302   5.202  15.837  0.0813 -1.4020  0.7002
 7725TIP3    H244591   3.232   5.223  15.969  0.5908 -0.1311  0.7763
 7726TIP3   OH244592   0.292   4.346   4.477  0.1021 -0.0149  0.1129
 7726TIP3    H144593   0.261   4.432   4.508  1.4956 -0.2071  2.1472
 7726TIP3    H244594   0.385   4.345   4.500  0.6486 -1.1244 -2.0877
 7727TIP3   OH244595   4.709   0.506   6.001 -0.3434 -0.0064 -0.4439
 7727TIP3    H144596   4.779   0.540   5.946 -0.7935  0.3832 -0.7742
 7727TIP3    H244597   4.734   0.415   6.018  0.0033 -0.0063 -0.9440
 7728TIP3   OH244598   1.239   5.688  13.643 -0.2769 -0.1915  0.0793
 7728TIP3    H144599   1.300   5.751  13.605 -0.3046 -0.3644 -0.2529
 7728TIP3    H244600   1.176   5.671  13.573 -0.3225 -0.5178  0.1985
 7729TIP3   OH244601   0.508   3.378  15.270  0.0653 -0.0614 -0.2859
 7729TIP3    H144602   0.449   3.394  15.196 -1.4560 -2.3649  0.3989
 7729TIP3    H244603   0.581   3.329  15.232 -1.7371 -3.1308  0.0628
 7730TIP3   OH244604   5.147   4.489  14.648 -0.9829 -0.0526 -0.0198
 7730TIP3    H144605   5.199   4.506  14.569 -0.3132 -2.8078 -0.2288
 7730TIP3    H244606   5.172   4.559  14.708  1.1844  0.0718 -0.9862
 7731TIP3   OH244607   5.400   5.321   5.291  0.4378 -0.3467  0.7581
 7731TIP3    H144608   5.471   5.264   5.320  2.2241  0.4943 -1.7710
 7731TIP3    H244609   5.444   5.392   5.244 -2.0834  0.1095 -1.0395
 7732TIP3   OH244610   1.977   3.910   3.448  0.0049  0.4786  0.6408
 7732TIP3    H144611   2.027   3.970   3.394 -0.7475  0.9249  0.4223
 7732TIP3    H244612   1.961   3.834   3.392 -1.7200  1.4027 -0.1701
 7733TIP3   OH244613   4.091   6.264  14.963  0.0139  0.5579  0.1350
 7733TIP3    H144614   4.184   6.250  14.946 -0.1758  0.8333 -1.1243
 7733TIP3    H244615   4.072   6.204  15.036  1.2543  0.7896  0.6812
 7734TIP3   OH244616   1.718   2.218  16.839  0.5756  0.3199  0.2136
 7734TIP3    H144617   1.628   2.240  16.814  0.7574  1.5015  0.5627
 7734TIP3    H244618   1.712   2.188  16.929  0.6489  1.2361  0.5245
 7735TIP3   OH244619   3.490   4.875  12.972 -0.4189 -0.3347 -0.5617
 7735TIP3    H144620   3.566   4.932  12.963  0.3490 -1.1753  0.4333
 7735TIP3    H244621   3.486   4.825  12.891  0.5069 -0.7825 -0.3294
 7736TIP3   OH244622   6.627   0.270   3.254 -0.3351  0.2833 -0.3902
 7736TIP3    H144623   6.640   0.177   3.275  1.7308  0.4580 -0.7438
 7736TIP3    H244624   6.532   0.282   3.253 -0.5849 -1.3129  1.8830
 7737TIP3   OH244625   6.755   3.964  16.610  0.5837 -0.3958  0.0205
 7737TIP3    H144626   6.768   3.945  16.517 -2.0413 -0.4361 -0.3958
 7737TIP3    H244627   6.751   4.060  16.614  1.3870 -0.3703  0.1966
 7738TIP3   OH244628   2.815   0.508   5.668  0.4989 -0.0128  0.1713
 7738TIP3    H144629   2.810   0.584   5.610 -1.1561 -0.0815  0.1939
 7738TIP3    H244630   2.743   0.452   5.641  2.1626 -1.9607 -0.3412
 7739TIP3   OH244631   1.216   5.201   1.113  0.3087 -0.8327  0.1311
 7739TIP3    H144632   1.215   5.170   1.023  0.3695 -0.2102 -0.0906
 7739TIP3    H244633   1.275   5.141   1.159  0.6579 -0.8616 -0.3512
 7740TIP3   OH244634   1.818   1.567  16.858  0.5464  0.2228 -0.1325
 7740TIP3    H144635   1.747   1.631  16.843  1.1273  1.0356  0.5576
 7740TIP3    H244636   1.863   1.562  16.773 -0.5687 -0.5943 -0.6883
 7741TIP3   OH244637   2.393   1.784   2.256  0.3969 -0.7770 -0.0549
 7741TIP3    H144638   2.340   1.835   2.195 -0.5117 -1.4010  0.2034
 7741TIP3    H244639   2.482   1.817   2.243  0.5890 -2.3772 -3.2584
 7742TIP3   OH244640   1.094   4.311  10.638 -0.1901  0.0173 -0.4334
 7742TIP3    H144641   1.049   4.235  10.601  1.0219 -0.4095 -1.0886
 7742TIP3    H244642   1.178   4.276  10.668  1.3573  1.5069 -2.8377
 7743TIP3   OH244643   2.038   3.076   3.575  0.5835 -0.4564 -0.2562
 7743TIP3    H144644   2.039   3.001   3.516 -1.9655 -0.7369  0.0046
 7743TIP3    H244645   1.971   3.134   3.538  0.2663  0.2006  1.3367
 7744TIP3   OH244646   1.014   3.186  13.481 -0.0802  0.0256  0.7603
 7744TIP3    H144647   1.065   3.259  13.515  2.6804 -1.5656  0.1504
 7744TIP3    H244648   1.054   3.166  13.396 -1.4149 -1.5546  0.4721
 7745TIP3   OH244649   0.999   6.697  15.044 -0.4983  0.0453 -0.2064
 7745TIP3    H144650   1.036   6.697  14.955  1.3297  1.8067  0.4967
 7745TIP3    H244651   0.949   6.779  15.048  1.4788  1.2417  1.1424
 7746TIP3   OH244652   1.314   4.171  14.560 -0.0079 -0.2966 -0.9414
 7746TIP3    H144653   1.262   4.180  14.639 -1.9804 -3.8582 -1.7578
 7746TIP3    H244654   1.404   4.184  14.589 -0.7712 -0.8091  1.7367
 7747TIP3   OH244655   1.087   4.777   1.152 -0.4817  0.3822 -0.3492
 7747TIP3    H144656   1.095   4.691   1.193  0.2665  0.9360  0.6673
 7747TIP3    H244657   0.993   4.787   1.137 -0.5778 -0.5873 -0.4220
 7748TIP3   OH244658   0.870   6.650  12.044 -0.7144  0.5832  0.5713
 7748TIP3    H144659   0.840   6.619  12.129  0.2574  0.5977  0.9122
 7748TIP3    H244660   0.877   6.571  11.990 -0.5133  0.4799  0.7500
 7749TIP3   OH244661   6.584   6.528   5.073 -0.1071 -0.3456 -0.1820
 7749TIP3    H144662   6.547   6.476   5.001 -1.0325 -0.0194  0.0575
 7749TIP3    H244663   6.508   6.564   5.118  0.4736 -0.7457  1.1196
 7750TIP3   OH244664   1.093   4.021  11.972  0.2233  0.1632  0.8115
 7750TIP3    H144665   1.010   3.981  11.948  0.7143  0.2205 -1.0338
 7750TIP3    H244666   1.091   4.108  11.931  2.3056 -0.8455 -1.5615
 7751TIP3   OH244667   1.262   1.556   2.559  0.6362  0.4849  0.1688
 7751TIP3    H144668   1.293   1.517   2.477  1.8858  2.5514 -0.3917
 7751TIP3    H244669   1.316   1.514   2.627  1.6323  0.8698 -0.3733
 7752TIP3   OH244670   6.041   2.613  14.631 -0.4391  0.8565 -0.1587
 7752TIP3    H144671   6.081   2.526  14.633 -0.6764  0.7120 -1.2713
 7752TIP3    H244672   6.114   2.673  14.645  0.3466  0.6395 -3.0397
 7753TIP3   OH244673   6.086   6.341  14.602  0.5577  0.1598  0.2314
 7753TIP3    H144674   6.180   6.341  14.620  0.4686  1.5352  0.7740
 7753TIP3    H244675   6.071   6.421  14.551 -0.1884 -0.4936 -0.5873
 7754TIP3   OH244676   1.057   0.242  14.940  0.1940 -0.4806  0.0018
 7754TIP3    H144677   1.111   0.198  14.875 -0.5532 -2.4178  0.6571
 7754TIP3    H244678   1.107   0.320  14.964  1.2056 -0.5667 -1.7130
 7755TIP3   OH244679   0.238   5.909  10.942  0.3711  0.2652  0.3262
 7755TIP3    H144680   0.220   5.838  11.004  2.5738  0.0017  0.6960
 7755TIP3    H244681   0.275   5.866  10.866  1.4618  0.9905  0.4383
 7756TIP3   OH244682   5.655   1.929   5.309  0.2404 -0.5258  0.6975
 7756TIP3    H144683   5.588   1.882   5.358 -0.4761 -0.8430 -0.5710
 7756TIP3    H244684   5.694   1.989   5.373 -1.2474 -0.3358  1.4317
 7757TIP3   OH244685   3.820   0.081  12.921  0.1127  0.3546 -0.0519
 7757TIP3    H144686   3.902   0.048  12.958 -0.1114  0.0596  0.1944
 7757TIP3    H244687   3.839   0.171  12.896  0.5870  0.2042 -0.2416
 7758TIP3   OH244688   3.187   1.666  14.264  0.5846  0.9504 -0.1153
 7758TIP3    H144689   3.140   1.627  14.190  1.6559 -0.0267 -0.2820
 7758TIP3    H244690   3.164   1.759  14.259 -1.1138  0.5489 -0.3545
 7759TIP3   OH244691   1.469   4.834   3.771 -0.3251 -0.3574 -0.0890
 7759TIP3    H144692   1.395   4.895   3.779  1.1044  1.3925  0.1534
 7759TIP3    H244693   1.455   4.770   3.841 -0.2981  1.4040  1.5705
 7760TIP3   OH244694   0.369   0.273   3.191 -0.5537  0.0472 -0.4394
 7760TIP3    H144695   0.405   0.312   3.271 -0.2551  0.1009 -0.6007
 7760TIP3    H244696   0.274   0.278   3.203 -0.5286  1.0650 -0.5692
 7761TIP3   OH244697   2.383   6.311  16.290 -0.1105  0.1847  0.0283
 7761TIP3    H144698   2.337   6.359  16.222 -0.4991 -2.5940 -1.7438
 7761TIP3    H244699   2.314   6.274  16.345  0.1128 -0.2484  0.0210
 7762TIP3   OH244700   0.386   4.012   4.246 -0.0827 -0.4165  0.3009
 7762TIP3    H144701   0.380   3.939   4.308 -0.9836 -0.0792  0.6137
 7762TIP3    H244702   0.304   4.061   4.258  0.1554  0.1839 -0.4842
 7763TIP3   OH244703   4.759   2.805   1.349 -0.3801  0.8058  0.4007
 7763TIP3    H144704   4.848   2.841   1.344 -0.1220  0.6043  2.8139
 7763TIP3    H244705   4.745   2.763   1.264  2.3685 -0.3910  0.4787
 7764TIP3   OH244706   0.984   4.034   3.276 -0.0657 -0.0250  0.0888
 7764TIP3    H144707   0.933   4.058   3.198  0.9052  1.8657  0.0038
 7764TIP3    H244708   0.928   3.972   3.323 -1.8297  0.8886 -0.7428
 7765TIP3   OH244709   2.576   6.242  12.530 -0.2160 -0.0647 -0.2495
 7765TIP3    H144710   2.575   6.324  12.482 -1.2230  0.3563  0.4935
 7765TIP3    H244711   2.484   6.220  12.544  0.0574 -0.2143  1.4193
 7766TIP3   OH244712   2.874   5.809  12.625  0.7724  0.1093 -0.3544
 7766TIP3    H144713   2.822   5.866  12.568 -1.1117 -1.6469 -0.4341
 7766TIP3    H244714   2.917   5.748  12.566  0.8550 -0.1013 -0.0770
 7767TIP3   OH244715   6.700   2.903   3.280 -0.2856 -0.3548 -0.2152
 7767TIP3    H144716   6.707   2.878   3.187  1.3324  1.6103 -0.6708
 7767TIP3    H244717   6.769   2.853   3.323  0.9872  1.0208 -0.6175
 7768TIP3   OH244718   5.483   2.626   4.360 -0.0725 -0.2979 -0.1158
 7768TIP3    H144719   5.482   2.572   4.281 -0.7851  1.4608 -1.3373
 7768TIP3    H244720   5.551   2.692   4.343 -0.7815  0.5716  0.3849
 7769TIP3   OH244721   0.660   5.884   2.065 -0.7428 -0.0693  0.2031
 7769TIP3    H144722   0.704   5.880   2.150  1.7498  2.0276 -0.9164
 7769TIP3    H244723   0.599   5.958   2.074  0.4430  0.9870 -0.1910
 7770TIP3   OH244724   1.333   0.196  13.391 -0.0643 -0.0592  0.0404
 7770TIP3    H144725   1.280   0.251  13.332 -1.4325 -0.7157  0.6392
 7770TIP3    H244726   1.270   0.137  13.432  1.4734 -2.6630 -1.2014
 7771TIP3   OH244727   5.908   0.031  12.288  0.6484  0.2422  0.3791
 7771TIP3    H144728   5.839   0.061  12.229 -0.6158 -0.9881  1.2094
 7771TIP3    H244729   5.983   0.015  12.231 -0.2260  0.1064 -0.7542
 7772TIP3   OH244730   2.572   4.098   2.067  0.5885  0.1311  0.1465
 7772TIP3    H144731   2.502   4.159   2.045  0.6639 -0.0507 -0.6274
 7772TIP3    H244732   2.586   4.048   1.986  2.0246  0.5835  0.1049
 7773TIP3   OH244733   1.940   0.573   4.580  0.3536 -0.9255  0.1309
 7773TIP3    H144734   2.014   0.616   4.624  0.3599  1.1206 -1.7781
 7773TIP3    H244735   1.974   0.551   4.493 -0.8249 -1.4020 -0.2204
 7774TIP3   OH244736   4.223   2.347   1.005 -0.1075 -0.2037 -0.2875
 7774TIP3    H144737   4.184   2.260   1.003 -1.0662  0.2434 -1.6364
 7774TIP3    H244738   4.281   2.345   1.081 -2.2027 -1.1187  1.3552
 7775TIP3   OH244739   6.274   5.918  16.464 -0.1235  0.0462  0.2193
 7775TIP3    H144740   6.321   5.958  16.537  2.9366 -0.3200 -1.4959
 7775TIP3    H244741   6.268   5.987  16.398 -1.4161 -0.1258  0.1381
 7776TIP3   OH244742   4.182   6.767   1.951 -0.6737  0.0630  0.3498
 7776TIP3    H144743   4.178   6.815   1.868 -3.4340  0.6707  0.7914
 7776TIP3    H244744   4.198   6.676   1.926 -1.1171  0.2992 -0.8222
 7777TIP3   OH244745   2.259   1.800   2.523 -0.1332 -0.6700  0.0617
 7777TIP3    H144746   2.241   1.859   2.449 -0.5193 -1.5918 -0.6008
 7777TIP3    H244747   2.342   1.831   2.559 -0.9945  1.0970  0.5574
 7778TIP3   OH244748   5.726   1.125  16.875  0.1588  0.5391 -0.2756
 7778TIP3    H144749   5.809   1.088  16.906  0.6423  1.4378 -0.4658
 7778TIP3    H244750   5.731   1.116  16.780  0.2232  0.9636 -0.3143
 7779TIP3   OH244751   1.746   4.752  12.892 -0.0896  0.4073  0.4204
 7779TIP3    H144752   1.794   4.696  12.831 -0.3309  1.0074 -0.3424
 7779TIP3    H244753   1.673   4.698  12.922  0.4422 -0.1393  0.7455
 7780TIP3   OH244754   6.032   3.600  16.192  0.2008  0.0962 -0.0490
 7780TIP3    H144755   6.047   3.694  16.182 -1.5107  0.3670 -0.3244
 7780TIP3    H244756   5.949   3.594  16.240 -0.3662 -1.2743 -1.1668
 7781TIP3   OH244757   3.168   4.011   5.044  0.0665 -0.0825  0.4681
 7781TIP3    H144758   3.087   3.998   4.994  0.0994  1.3453  0.0161
 7781TIP3    H244759   3.181   3.928   5.090 -0.5690 -1.0362 -1.0170
 7782TIP3   OH244760   2.104   6.298   0.249  0.3009  0.1234 -0.2205
 7782TIP3    H144761   2.014   6.298   0.216 -1.1352 -0.3242  3.4610
 7782TIP3    H244762   2.134   6.208   0.235 -1.1215 -0.6900  1.7079
 7783TIP3   OH244763   4.498   5.175   0.666  0.1933 -0.2087  0.5427
 7783TIP3    H144764   4.506   5.270   0.661  1.4373 -0.3544 -0.4607
 7783TIP3    H244765   4.573   5.147   0.718  0.4979 -0.7349 -0.1694
 7784TIP3   OH244766   6.601   4.934   2.304  0.1292 -1.0126  0.4557
 7784TIP3    H144767   6.677   4.939   2.246  1.1722 -3.0129  1.6019
 7784TIP3    H244768   6.636   4.900   2.386 -1.9933 -1.7810  1.0647
 7785TIP3   OH244769   0.318   1.928  15.644  0.1053  0.2449 -0.6273
 7785TIP3    H144770   0.368   1.874  15.583  0.0202 -0.3522 -0.1745
 7785TIP3    H244771   0.232   1.886  15.650  0.1830  0.1648  0.0605
 7786TIP3   OH244772   1.299   2.232   6.183 -0.3677 -0.2175 -0.1843
 7786TIP3    H144773   1.218   2.278   6.204 -0.0207 -1.0596  3.3134
 7786TIP3    H244774   1.271   2.147   6.150 -0.9079  0.1828 -0.7698
 7787TIP3   OH244775   4.002   0.311  11.138  0.0348  0.3056 -0.0603
 7787TIP3    H144776   3.980   0.218  11.143 -1.3129  0.7273  2.4856
 7787TIP3    H244777   4.090   0.313  11.100  0.1850 -2.0118  0.0990
 7788TIP3   OH244778   1.315   3.636   1.381 -0.9305  0.1861  0.8106
 7788TIP3    H144779   1.231   3.594   1.368  0.0551 -1.3252 -0.9361
 7788TIP3    H244780   1.378   3.564   1.388  0.2106  1.2745  2.2153
 7789TIP3   OH244781   0.628   6.584  14.690 -0.9498 -0.5842  0.1073
 7789TIP3    H144782   0.650   6.676  14.706 -0.1687 -0.8643  0.7417
 7789TIP3    H244783   0.711   6.538  14.703 -1.5225 -1.4719  0.6783
 7790TIP3   OH244784   4.793   4.972  16.777 -0.0969 -0.2656  0.2041
 7790TIP3    H144785   4.877   5.019  16.781  0.2439 -0.8961  0.5597
 7790TIP3    H244786   4.803   4.901  16.840 -1.2968  0.2838  1.0288
 7791TIP3   OH244787   1.638   3.897   3.569  0.3722  0.0750  0.5789
 7791TIP3    H144788   1.636   3.846   3.651 -1.1307  1.2248  1.2930
 7791TIP3    H244789   1.663   3.834   3.502  2.6856 -0.6674  2.0740
 7792TIP3   OH244790   3.036   2.325   1.793 -0.3039  0.1506  0.7036
 7792TIP3    H144791   2.963   2.276   1.831  0.7076 -1.0217  1.1681
 7792TIP3    H244792   3.061   2.386   1.863 -0.6102  0.3275  0.6636
 7793TIP3   OH244793   1.126   2.926  10.611 -0.4533  0.2857 -0.0947
 7793TIP3    H144794   1.131   3.014  10.573  1.0956  0.1931 -0.1349
 7793TIP3    H244795   1.050   2.886  10.568 -1.6866  1.8899  0.5527
 7794TIP3   OH244796   6.565   2.145   2.516 -0.1902 -0.0841  0.2966
 7794TIP3    H144797   6.492   2.093   2.552 -2.0623  1.3850 -1.2824
 7794TIP3    H244798   6.601   2.190   2.592  0.5073 -2.4876  1.4542
 7795TIP3   OH244799   2.317   1.727   3.306 -0.3466 -0.6416  0.6619
 7795TIP3    H144800   2.290   1.722   3.398 -1.1840 -0.4231  0.4371
 7795TIP3    H244801   2.245   1.774   3.263 -0.4582 -1.6620 -0.2916
 7796TIP3   OH244802   1.441   0.084   1.496 -0.0943 -0.1614  1.0643
 7796TIP3    H144803   1.496   0.161   1.500 -0.3805  0.0296  1.3818
 7796TIP3    H244804   1.485   0.020   1.551  1.5247 -1.1304 -1.2719
 7797TIP3   OH244805   3.635   1.365  17.151  0.0494  0.0342 -0.1449
 7797TIP3    H144806   3.631   1.401  17.062 -1.3301  1.4066  0.4380
 7797TIP3    H244807   3.545   1.339  17.170  0.2743  0.0294  0.9439
 7798TIP3   OH244808   5.973   0.461  15.091 -0.3129  0.1287 -0.7166
 7798TIP3    H144809   5.947   0.427  15.005  1.0439  0.2724 -1.1947
 7798TIP3    H244810   5.948   0.553  15.089 -1.2795 -0.1229 -0.5384
 7799TIP3   OH244811   5.704   2.465   1.541 -0.5193 -0.4364 -0.0926
 7799TIP3    H144812   5.623   2.441   1.497 -0.7445 -0.8859  0.5508
 7799TIP3    H244813   5.709   2.406   1.616  0.9655 -1.1775 -0.7431
 7800TIP3   OH244814   2.097   2.295  15.019  0.2607  0.1209 -1.0838
 7800TIP3    H144815   2.181   2.252  15.036  0.0042 -0.2200 -0.6648
 7800TIP3    H244816   2.046   2.279  15.098 -0.1821  0.3695 -1.3206
 7801TIP3   OH244817   2.568   4.391   5.431  0.7435  0.4108  0.2248
 7801TIP3    H144818   2.505   4.348   5.488  0.4962 -0.8270 -0.9568
 7801TIP3    H244819   2.519   4.460   5.387  0.4413  0.0529  0.0026
 7802TIP3   OH244820   4.760   6.244  16.708  0.6021  0.0683 -0.9801
 7802TIP3    H144821   4.723   6.229  16.621  2.6195  1.0280 -2.0332
 7802TIP3    H244822   4.855   6.247  16.694  0.9434  0.4774  1.2122
 7803TIP3   OH244823   6.785   5.104  10.466  0.3273 -0.1438  0.0117
 7803TIP3    H144824   6.725   5.075  10.398  0.0313 -0.7742  0.5349
 7803TIP3    H244825   6.854   5.037  10.467  1.3166  0.8528 -0.9447
 7804TIP3   OH244826   1.791   4.817   5.344  0.0333  0.3384 -0.7069
 7804TIP3    H144827   1.826   4.730   5.366  0.1476  0.4872 -0.3039
 7804TIP3    H244828   1.780   4.860   5.428  1.9056  1.4643 -1.0130
 7805TIP3   OH244829   3.889   5.760  13.836 -0.1397 -0.6131 -0.0521
 7805TIP3    H144830   3.979   5.733  13.816 -0.9151 -2.5915 -1.0106
 7805TIP3    H244831   3.894   5.854  13.849  1.7985 -0.4631 -1.7453
 7806TIP3   OH244832   2.885   1.367   5.126  0.2142  0.1686 -0.4325
 7806TIP3    H144833   2.795   1.353   5.155 -1.2862  1.9983 -3.9921
 7806TIP3    H244834   2.919   1.279   5.110 -0.2665 -0.6467  2.6993
 7807TIP3   OH244835   5.088   1.269  13.309 -0.0890 -0.1664  0.5777
 7807TIP3    H144836   5.164   1.235  13.356 -0.8210  0.5027  2.2665
 7807TIP3    H244837   5.027   1.295  13.377 -0.9365  1.3680 -0.7209
 7808TIP3   OH244838   1.244   0.113  12.057  0.7596 -0.2439 -0.3356
 7808TIP3    H144839   1.259   0.196  12.102  1.0654  0.0901 -1.0302
 7808TIP3    H244840   1.197   0.137  11.977  0.8370 -0.7368 -0.5342
 7809TIP3   OH244841   4.938   3.459   3.529  0.1734  0.1355  0.3396
 7809TIP3    H144842   4.907   3.398   3.596 -2.6344  2.3802  1.1915
 7809TIP3    H244843   4.971   3.534   3.578 -0.5232  1.1784 -0.7634
 7810TIP3   OH244844   0.085   2.618   4.430  0.0919  0.2751  0.0122
 7810TIP3    H144845   0.040   2.559   4.370  0.0984 -0.6129  0.8713
 7810TIP3    H244846   0.167   2.572   4.451  0.0148  0.4989  0.8230
 7811TIP3   OH244847   2.315   3.350   3.507  0.7297 -0.4769 -0.0362
 7811TIP3    H144848   2.359   3.427   3.471  2.5866 -0.5246  2.0685
 7811TIP3    H244849   2.385   3.295   3.541 -0.7223 -2.1848  0.2993
 7812TIP3   OH244850   0.649   4.591   4.534 -0.0655  0.0647 -0.0437
 7812TIP3    H144851   0.642   4.594   4.439  0.5894  2.1020 -0.0517
 7812TIP3    H244852   0.640   4.682   4.562  1.6045 -0.2630  1.6964
 7813TIP3   OH244853   6.469   0.380  14.019 -0.0610  0.5703 -0.1424
 7813TIP3    H144854   6.447   0.288  14.005  0.4208  0.4203  0.0815
 7813TIP3    H244855   6.390   0.418  14.059 -0.2954  0.2827 -0.3281
 7814TIP3   OH244856   4.338   2.231  16.067  0.4497  0.0703 -0.5397
 7814TIP3    H144857   4.333   2.136  16.061  0.0102 -0.0086  0.9010
 7814TIP3    H244858   4.419   2.248  16.115 -1.8473  0.1953  3.5336
 7815TIP3   OH244859   0.054   0.137  17.232 -0.0488 -0.1444  0.1944
 7815TIP3    H144860  -0.004   0.157  17.305  3.1020  0.1111  2.7702
 7815TIP3    H244861   0.060   0.041  17.232  1.1841 -0.0812  1.3345
 7816TIP3   OH244862   4.533   5.615   0.853 -0.9093 -0.0300  0.0113
 7816TIP3    H144863   4.559   5.592   0.764 -0.7383  1.3545 -0.3115
 7816TIP3    H244864   4.603   5.674   0.884 -0.5831 -1.0863  1.3313
 7817TIP3   OH244865   5.365   1.205  15.660 -0.3762  0.5536 -0.3947
 7817TIP3    H144866   5.301   1.161  15.604 -1.1985 -0.8726  1.5909
 7817TIP3    H244867   5.339   1.297  15.659 -0.4706  0.5267 -2.1982
 7818TIP3   OH244868   1.916   5.918  11.688  0.8107  0.2896 -0.5196
 7818TIP3    H144869   1.868   5.945  11.767  1.7755 -1.1096  0.5731
 7818TIP3    H244870   1.848   5.888  11.628  0.1087  0.8430 -0.0155
 7819TIP3   OH244871   6.684   0.089   4.821 -0.1475  0.3787  0.0040
 7819TIP3    H144872   6.686   0.070   4.727  0.9562  1.2084 -0.1532
 7819TIP3    H244873   6.736   0.169   4.830 -0.1254  0.2165  1.3459
 7820TIP3   OH244874   6.395   3.570  15.131 -0.2736 -0.2115  0.1060
 7820TIP3    H144875   6.471   3.523  15.098  0.6762  2.5429 -1.7374
 7820TIP3    H244876   6.325   3.548  15.069  0.7630  2.5950 -2.1388
 7821TIP3   OH244877   5.905   4.941  14.513  0.0357  0.3706  0.2899
 7821TIP3    H144878   5.948   4.910  14.593 -0.1301 -0.0836  0.2056
 7821TIP3    H244879   5.958   5.015  14.484  0.4865  0.1109  0.4438
 7822TIP3   OH244880   1.337   1.306   1.906 -0.1504 -0.1344 -0.0890
 7822TIP3    H144881   1.253   1.271   1.935 -0.1830 -1.6161 -1.8916
 7822TIP3    H244882   1.388   1.316   1.987 -2.2135  1.2807  1.0742
 7823TIP3   OH244883   0.127   4.321  17.055  0.4384  0.6466 -0.1155
 7823TIP3    H144884   0.222   4.326  17.056  0.5083 -0.6863  1.2380
 7823TIP3    H244885   0.098   4.387  17.118  0.4855  0.6525 -0.0997
 7824TIP3   OH244886   4.607   6.195  10.884 -0.8033 -0.0914 -0.1669
 7824TIP3    H144887   4.588   6.106  10.855 -1.0430 -0.2127  0.3602
 7824TIP3    H244888   4.659   6.185  10.963 -1.0513  0.2345  0.0407
 7825TIP3   OH244889   1.086   3.265  12.669 -0.2781 -0.3067 -0.0139
 7825TIP3    H144890   1.049   3.353  12.662 -1.5026 -0.7386  0.8290
 7825TIP3    H244891   1.014   3.206  12.647  1.0367 -1.0823 -2.5112
 7826TIP3   OH244892   6.394   2.931  16.276 -0.6710 -0.2282  0.2788
 7826TIP3    H144893   6.451   2.854  16.277  1.0156  0.9271 -1.8666
 7826TIP3    H244894   6.306   2.897  16.263 -0.1284 -1.8854  0.8749
 7827TIP3   OH244895   4.439   4.756  10.095  0.0169 -0.6979 -0.8075
 7827TIP3    H144896   4.348   4.787  10.097  0.2369 -0.1048  0.1186
 7827TIP3    H244897   4.491   4.831  10.122  0.6247 -1.5752  0.5122
 7828TIP3   OH244898   6.291   5.665   1.277 -0.1812  0.1353 -0.0661
 7828TIP3    H144899   6.339   5.615   1.210  1.4665  0.1166  1.1004
 7828TIP3    H244900   6.202   5.671   1.243 -0.0047 -2.1692 -1.0114
 7829TIP3   OH244901   1.915   4.634   3.942 -0.1293  0.0756 -0.8872
 7829TIP3    H144902   1.929   4.630   3.847 -0.2509 -0.2878 -0.8913
 7829TIP3    H244903   2.003   4.640   3.979 -0.0578 -0.2375 -1.0035
 7830TIP3   OH244904   1.281   4.438   5.462 -0.0698 -0.5862  0.0086
 7830TIP3    H144905   1.289   4.498   5.387 -1.4308 -0.2887  0.0900
 7830TIP3    H244906   1.351   4.465   5.521  1.1767 -0.9754 -1.2535
 7831TIP3   OH244907   3.862   1.917  13.170  0.2513  0.2937 -0.5979
 7831TIP3    H144908   3.782   1.962  13.145 -0.0780  0.8230  1.2982
 7831TIP3    H244909   3.833   1.847  13.228  1.0318 -0.4783 -1.1312
 7832TIP3   OH244910   3.860   0.699   0.391 -0.0060 -0.1069  0.0265
 7832TIP3    H144911   3.775   0.729   0.422 -0.7312 -0.1916 -1.8329
 7832TIP3    H244912   3.852   0.604   0.387 -0.1871 -0.0499 -1.1500
 7833TIP3   OH244913   3.876   6.406  16.037 -0.4631 -0.0775 -0.3635
 7833TIP3    H144914   3.803   6.396  15.976 -0.1326  1.8005 -1.1168
 7833TIP3    H244915   3.943   6.453  15.987  0.2866  0.4304  1.0842
 7834TIP3   OH244916   3.544   4.423  10.533 -0.0982 -0.5524  0.4669
 7834TIP3    H144917   3.595   4.355  10.490  0.6305  0.8051 -0.8447
 7834TIP3    H244918   3.455   4.411  10.501 -0.1169 -1.3351  0.8045
 7835TIP3   OH244919   0.511   1.939  12.438 -0.4484  0.2312 -0.5485
 7835TIP3    H144920   0.460   1.962  12.361 -0.7662  1.7643  0.0967
 7835TIP3    H244921   0.562   2.018  12.458 -1.7244  0.5136  1.8485
 7836TIP3   OH244922   5.277   2.735  11.636  0.0221 -0.3505  0.4413
 7836TIP3    H144923   5.249   2.666  11.576  0.6320 -0.8705  0.7445
 7836TIP3    H244924   5.367   2.754  11.610 -0.5397  1.2257 -0.4502
 7837TIP3   OH244925   5.231   5.221  12.834  0.4630  0.2095 -0.3693
 7837TIP3    H144926   5.295   5.209  12.765  0.2766 -2.0622 -0.1989
 7837TIP3    H244927   5.156   5.168  12.807  0.2137 -0.3372  1.3292
 7838TIP3   OH244928   2.767   4.778  14.594 -0.6529  0.0359  0.2820
 7838TIP3    H144929   2.675   4.751  14.602 -0.4055 -1.0567 -0.5472
 7838TIP3    H244930   2.801   4.727  14.521  0.3626  1.1700 -0.0504
 7839TIP3   OH244931   4.696   3.245  16.708 -0.1932  0.5150  0.1372
 7839TIP3    H144932   4.646   3.288  16.639 -1.4979 -1.2536 -0.0673
 7839TIP3    H244933   4.787   3.259  16.685 -0.6199  0.9967 -1.2780
 7840TIP3   OH244934   3.076   1.451   5.582 -0.4543 -0.4528  0.0349
 7840TIP3    H144935   3.072   1.393   5.506  2.2470 -1.2527  0.4583
 7840TIP3    H244936   3.157   1.427   5.628 -1.8515  0.2245  3.0097
 7841TIP3   OH244937   5.770   4.486   0.655  0.3064 -0.3985  0.2512
 7841TIP3    H144938   5.724   4.402   0.656 -0.8952  0.2512  0.0495
 7841TIP3    H244939   5.701   4.551   0.668  1.2312  0.5592  0.3896
 7842TIP3   OH244940   6.524   0.284   2.733 -0.2440  0.3556  0.3672
 7842TIP3    H144941   6.585   0.251   2.666 -0.7443  0.1850 -0.0127
 7842TIP3    H244942   6.471   0.208   2.756 -0.8747  0.7070  0.0734
 7843TIP3   OH244943   2.498   1.276  11.572 -0.5607 -0.0512 -0.2748
 7843TIP3    H144944   2.493   1.201  11.512  1.0551  0.7021 -1.3816
 7843TIP3    H244945   2.535   1.239  11.653 -0.3344 -0.5732 -0.6152
 7844TIP3   OH244946   1.493   6.129   3.484 -0.1906 -0.0442 -0.5333
 7844TIP3    H144947   1.428   6.070   3.445  1.2214 -1.7101 -0.4373
 7844TIP3    H244948   1.474   6.128   3.577 -0.3290 -0.1537 -0.5628
 7845TIP3   OH244949   2.009   4.162   6.139  0.0479  0.0173 -0.4368
 7845TIP3    H144950   1.915   4.154   6.125 -0.2360  1.7327  0.4134
 7845TIP3    H244951   2.029   4.097   6.206 -0.3070 -1.1579 -1.4356
 7846TIP3   OH244952   0.058   0.465  11.302 -0.2448 -0.2714 -0.0457
 7846TIP3    H144953   0.040   0.377  11.270 -0.0973 -1.4779  3.0426
 7846TIP3    H244954  -0.010   0.520  11.261 -1.0167 -1.9885 -1.1065
 7847TIP3   OH244955   2.146   3.504  13.596 -0.1157  0.1491 -0.2067
 7847TIP3    H144956   2.180   3.554  13.671 -0.2879  2.1824 -1.4272
 7847TIP3    H244957   2.052   3.523  13.597 -0.1285  0.1042 -0.8938
 7848TIP3   OH244958   1.792   5.514  14.999  0.5905  0.4426  0.0531
 7848TIP3    H144959   1.813   5.426  15.031  0.3494  0.8552  1.3994
 7848TIP3    H244960   1.732   5.500  14.926  0.6232 -0.5211  0.2093
 7849TIP3   OH244961   6.740   5.185  13.395  0.2450  0.2006 -0.4686
 7849TIP3    H144962   6.819   5.184  13.342  0.3186  2.3511 -0.4370
 7849TIP3    H244963   6.671   5.216  13.336 -0.2994 -0.3190 -0.1192
 7850TIP3   OH244964   0.494   1.131  11.120 -0.4202 -0.2718 -0.2789
 7850TIP3    H144965   0.472   1.119  11.027  0.3869 -1.6988 -0.3003
 7850TIP3    H244966   0.479   1.224  11.136 -0.6013 -0.0130 -1.8375
 7851TIP3   OH244967   4.470   3.711   3.986 -0.0104 -0.3379 -0.3119
 7851TIP3    H144968   4.418   3.668   4.054  0.1201  0.6608  0.4295
 7851TIP3    H244969   4.549   3.657   3.978  0.2594 -0.1259  0.7776
 7852TIP3   OH244970   4.068   4.719   1.241  0.0070  0.5341  0.7358
 7852TIP3    H144971   4.087   4.703   1.333 -1.0690 -0.8332  0.7354
 7852TIP3    H244972   4.091   4.638   1.197 -1.8512  0.3052  0.1654
 7853TIP3   OH244973   1.513   1.581  15.184 -0.1152 -0.0144  0.4724
 7853TIP3    H144974   1.578   1.546  15.122  0.5884  2.7941 -0.4322
 7853TIP3    H244975   1.438   1.604  15.130 -0.0239  1.1723  0.8347
 7854TIP3   OH244976   4.285   6.786   4.785 -0.4067 -0.2685  0.4300
 7854TIP3    H144977   4.208   6.734   4.809 -1.8574  1.7654  0.2962
 7854TIP3    H244978   4.265   6.819   4.697 -0.3552  2.0850  1.2914
 7855TIP3   OH244979   2.457   0.406   2.004  0.2617 -0.3431 -0.5833
 7855TIP3    H144980   2.429   0.375   2.090 -2.0666  0.1899 -1.1269
 7855TIP3    H244981   2.449   0.330   1.947  0.7490 -0.4082 -0.5681
 7856TIP3   OH244982   1.749   3.339   4.571 -0.0777  0.2551  0.3475
 7856TIP3    H144983   1.756   3.244   4.579  0.9200  0.2785 -0.2503
 7856TIP3    H244984   1.752   3.371   4.661  1.8059 -0.1344  0.4337
 7857TIP3   OH244985   5.253   0.588  16.923 -0.3150 -0.0605 -0.0671
 7857TIP3    H144986   5.320   0.537  16.878  0.7058  1.6492 -0.5041
 7857TIP3    H244987   5.253   0.554  17.013 -0.0871 -1.2384 -0.5008
 7858TIP3   OH244988   2.869   5.874   2.224  0.5243  0.1658 -0.1713
 7858TIP3    H144989   2.909   5.918   2.298 -2.3346  0.0623  1.5008
 7858TIP3    H244990   2.820   5.943   2.178  0.3041 -0.2465 -0.5687
 7859TIP3   OH244991   1.736   1.241   4.126  0.3967  0.3763  0.7722
 7859TIP3    H144992   1.683   1.307   4.170 -3.2719 -1.5024 -0.6136
 7859TIP3    H244993   1.738   1.269   4.034 -0.6871 -1.0735  0.2861
 7860TIP3   OH244994   0.996   2.741  16.477 -0.2478 -0.4194  0.0426
 7860TIP3    H144995   1.072   2.798  16.464 -0.5520  0.3488  1.4995
 7860TIP3    H244996   1.019   2.687  16.552 -1.8149  1.0293  1.6126
 7861TIP3   OH244997   4.170   6.246   3.564 -0.1963 -0.1425 -0.3717
 7861TIP3    H144998   4.076   6.226   3.565 -0.3868  0.5667 -2.3534
 7861TIP3    H244999   4.213   6.161   3.556 -0.5359 -0.7160  3.1557
 7862TIP3   OH245000   6.760   4.098   2.013  0.1858 -0.0354  0.7017
 7862TIP3    H145001   6.804   4.013   2.007 -0.7265 -0.6096  1.9333
 7862TIP3    H245002   6.807   4.144   2.083  1.9646  1.2872 -1.2778
 7863TIP3   OH245003   3.463   4.398  11.960  0.1454  0.3612 -0.5720
 7863TIP3    H145004   3.444   4.325  12.019 -1.7252  1.6492  0.4668
 7863TIP3    H245005   3.380   4.418  11.918  0.8027  1.4055 -1.4171
 7864TIP3   OH245006   0.005   0.615   4.811 -0.2425 -0.4327 -0.0158
 7864TIP3    H145007   0.050   0.629   4.728  1.3154  1.2928  1.0924
 7864TIP3    H245008   0.005   0.700   4.853 -1.8145 -1.1033  1.3725
 7865TIP3   OH245009   2.078   0.490   5.842 -0.8722 -0.0546 -0.2802
 7865TIP3    H145010   2.162   0.448   5.860 -0.6464 -0.2796 -1.8064
 7865TIP3    H245011   2.034   0.431   5.782 -3.0178 -0.9506  2.0683
 7866TIP3   OH245012   2.789   4.998   5.752 -0.8161 -0.2026  0.5972
 7866TIP3    H145013   2.826   5.005   5.840  1.4476 -1.4342 -0.2018
 7866TIP3    H245014   2.825   4.916   5.718 -0.4207  1.0057 -2.0320
 7867TIP3   OH245015   4.329   3.190  11.750  0.5128 -0.2258  0.0063
 7867TIP3    H145016   4.364   3.252  11.687  1.8133 -2.3706 -1.4474
 7867TIP3    H245017   4.380   3.206  11.830 -2.1314  3.4884  1.0737
 7868TIP3   OH245018   0.051   4.263   3.813  0.1145  0.2784 -0.4545
 7868TIP3    H145019   0.122   4.312   3.771  0.7347  1.5667  2.0075
 7868TIP3    H245020   0.082   4.172   3.814  0.3858  0.3412 -2.1219
 7869TIP3   OH245021   2.693   1.530  13.590  0.2402  0.0709 -0.0035
 7869TIP3    H145022   2.628   1.509  13.523  0.3126  1.4033 -0.4992
 7869TIP3    H245023   2.737   1.609  13.558  1.2594 -0.0993  0.9219
 7870TIP3   OH245024   3.552   4.256   0.177 -0.0093 -0.7643 -0.1283
 7870TIP3    H145025   3.563   4.341   0.220  0.4108 -0.8920  0.0156
 7870TIP3    H245026   3.514   4.199   0.244  1.7171 -1.2770  0.4210
 7871TIP3   OH245027   0.685   5.438  16.667 -0.1213 -0.5581 -0.0242
 7871TIP3    H145028   0.725   5.373  16.725 -0.5985 -1.1814 -0.3744
 7871TIP3    H245029   0.612   5.391  16.626 -0.3913  0.1657 -0.3851
 7872TIP3   OH245030   3.891   3.215  13.395  0.3050 -0.4256  0.1805
 7872TIP3    H145031   3.839   3.239  13.472  0.5443  0.5871  0.0336
 7872TIP3    H245032   3.848   3.261  13.323  0.5537 -0.7343 -0.1587
 7873TIP3   OH245033   0.390   2.887   1.610 -0.1362 -0.3346  0.6045
 7873TIP3    H145034   0.356   2.901   1.699 -0.1614 -1.2385  0.7455
 7873TIP3    H245035   0.354   2.802   1.584 -1.5883  0.7168 -0.9777
 7874TIP3   OH245036   0.704   3.895   3.087 -0.3227  0.1366  0.2524
 7874TIP3    H145037   0.616   3.860   3.073 -1.4588  3.4063 -1.2675
 7874TIP3    H245038   0.710   3.909   3.182 -1.0220 -1.1143  0.4862
 7875TIP3   OH245039   2.369   0.631   5.307 -0.9176 -0.1829 -0.0672
 7875TIP3    H145040   2.331   0.567   5.368 -0.7667 -0.4234 -0.2250
 7875TIP3    H245041   2.364   0.588   5.221 -0.2135 -0.2444 -0.0758
 7876TIP3   OH245042   6.564   2.200   3.535 -0.4206  0.1642 -0.4505
 7876TIP3    H145043   6.635   2.165   3.481 -1.4975 -1.3166 -0.9151
 7876TIP3    H245044   6.568   2.295   3.520  1.0670  0.0429 -0.9379
 7877TIP3   OH245045   0.860   2.924  12.890  0.0495  0.2588  0.1174
 7877TIP3    H145046   0.811   2.942  12.971  0.8202  0.0417  0.6332
 7877TIP3    H245047   0.937   2.980  12.896  0.2799 -0.0089 -0.3122
 7878TIP3   OH245048   1.706   5.022  12.991  0.1126  0.5738 -0.2320
 7878TIP3    H145049   1.768   5.094  12.986  1.1492 -0.2805  0.1385
 7878TIP3    H245050   1.744   4.954  12.935 -0.3867 -0.0324  0.1579
 7879TIP3   OH245051   0.657   1.527   5.552 -0.4181 -0.5843 -0.5061
 7879TIP3    H145052   0.693   1.597   5.497 -1.3562 -0.0004 -0.4038
 7879TIP3    H245053   0.577   1.565   5.588 -1.5571 -2.1330 -1.3669
 7880TIP3   OH245054   3.779   0.260  12.307  0.5846  0.3761 -0.5438
 7880TIP3    H145055   3.685   0.249  12.318  0.5963  1.1587  0.3721
 7880TIP3    H245056   3.798   0.220  12.222 -0.3671 -0.9483 -0.1509
 7881TIP3   OH245057   0.302   2.290  10.851 -0.2136 -0.5334  0.6234
 7881TIP3    H145058   0.359   2.238  10.908 -1.7930 -1.6513  1.2301
 7881TIP3    H245059   0.238   2.227  10.818 -0.2333  0.4151 -1.1822
 7882TIP3   OH245060   6.704   1.974   4.283  0.3001  0.1239  0.6007
 7882TIP3    H145061   6.778   1.931   4.325 -0.8495 -0.4794  2.0317
 7882TIP3    H245062   6.627   1.943   4.331 -0.7786  1.7167 -0.0499
 7883TIP3   OH245063   5.836   6.437  15.494 -0.2092  0.3024 -0.0249
 7883TIP3    H145064   5.913   6.381  15.495  0.8089  1.6914  1.6995
 7883TIP3    H245065   5.779   6.401  15.561 -0.1520  0.5242  0.1424
 7884TIP3   OH245066   5.068   6.711  14.985  0.0662 -0.3969 -0.3243
 7884TIP3    H145067   5.023   6.765  14.921 -2.7214 -2.5086 -0.2359
 7884TIP3    H245068   5.054   6.757  15.068  0.2935  0.2932 -0.6612
 7885TIP3   OH245069   2.121   3.637   4.469 -0.2236  0.4405 -0.6544
 7885TIP3    H145070   2.165   3.701   4.525 -0.1682 -0.9900  0.9743
 7885TIP3    H245071   2.029   3.645   4.491  0.0341 -1.7380  1.3853
 7886TIP3   OH245072   2.539   4.093   5.926 -0.1745 -0.2776 -0.2855
 7886TIP3    H145073   2.483   4.167   5.949  0.2898 -0.5519  1.8227
 7886TIP3    H245074   2.515   4.024   5.987  0.8747 -1.1646 -0.8494
 7887TIP3   OH245075   6.489   0.846   1.574 -0.3026 -0.3898 -0.7170
 7887TIP3    H145076   6.404   0.854   1.616  0.2767  1.4409  0.1603
 7887TIP3    H245077   6.552   0.859   1.645  0.7070 -1.3759 -1.4212
 7888TIP3   OH245078   3.415   0.955  17.138 -0.2998 -0.1973  0.3590
 7888TIP3    H145079   3.379   0.952  17.049  0.6337 -1.4516  0.0112
 7888TIP3    H245080   3.366   0.889  17.186 -1.4931  1.1718  1.0551
 7889TIP3   OH245081   2.846   2.173  12.816  0.4329  0.0246  0.1196
 7889TIP3    H145082   2.862   2.262  12.846 -0.2497  0.6954 -1.4567
 7889TIP3    H245083   2.751   2.166  12.808  0.4781 -0.8673  0.2722
 7890TIP3   OH245084   0.325   1.935  15.160 -0.2047  0.0857  0.4479
 7890TIP3    H145085   0.404   1.881  15.155 -0.0833  0.1832  1.1719
 7890TIP3    H245086   0.352   2.014  15.207 -1.0606 -0.5199  2.0068
 7891TIP3   OH245087   3.635   5.458  13.671  0.0711  0.4100 -0.1423
 7891TIP3    H145088   3.623   5.533  13.729  1.1529  1.3508 -1.1032
 7891TIP3    H245089   3.725   5.466  13.639  0.0044 -0.9556 -0.7397
 7892TIP3   OH245090   0.472   3.760   3.010  0.3427 -0.0913  0.5974
 7892TIP3    H145091   0.384   3.790   3.034 -0.1651  0.2856 -1.5948
 7892TIP3    H245092   0.489   3.687   3.069 -1.6897 -0.5156  0.7043
 7893TIP3   OH245093   1.168   5.666   1.380 -0.2709 -0.5984 -0.5195
 7893TIP3    H145094   1.202   5.581   1.408 -2.4525 -0.4706  2.8386
 7893TIP3    H245095   1.078   5.647   1.352 -0.8025  0.5868  0.3378
 7894TIP3   OH245096   0.769   0.531   1.213  0.0646 -0.1104 -0.8848
 7894TIP3    H145097   0.839   0.545   1.277  0.3187  1.0019 -1.3943
 7894TIP3    H245098   0.689   0.554   1.260  0.1322 -0.3837 -0.6285
 7895TIP3   OH245099   0.220   2.722  10.578 -0.1105 -0.7570 -0.2207
 7895TIP3    H145100   0.157   2.712  10.507  0.2679 -1.0612 -0.5142
 7895TIP3    H245101   0.208   2.643  10.631 -0.4560 -0.4873  0.1039
 7896TIP3   OH245102   6.401   5.387  15.667  0.3659 -0.2311  0.1172
 7896TIP3    H145103   6.394   5.482  15.677 -1.8596 -0.3978  0.5184
 7896TIP3    H245104   6.357   5.351  15.745  0.8900 -1.5908 -0.1873
 7897TIP3   OH245105   6.287   1.935   4.002  0.6715  0.4644  0.4917
 7897TIP3    H145106   6.264   1.944   3.909  4.3098  0.6139 -0.4918
 7897TIP3    H245107   6.302   2.025   4.032  0.9730  0.3109  0.8053
 7898TIP3   OH245108   0.383   4.148  15.300 -0.3311  0.3682 -0.3462
 7898TIP3    H145109   0.379   4.215  15.368 -0.1578 -0.2319  0.2561
 7898TIP3    H245110   0.453   4.090  15.328 -0.4569 -0.0416 -0.8896
 7899TIP3   OH245111   4.293   6.649  14.806  0.4627 -0.0726 -0.0479
 7899TIP3    H145112   4.348   6.644  14.884 -0.6884 -1.6328  0.6919
 7899TIP3    H245113   4.298   6.562  14.766 -2.3129 -0.6184  0.6582
 7900TIP3   OH245114   0.768   4.287  16.759  0.4629 -0.1860  0.0848
 7900TIP3    H145115   0.747   4.243  16.676 -0.4527 -0.9439  0.7123
 7900TIP3    H245116   0.713   4.365  16.759 -0.0829 -0.5730  0.3238
 7901TIP3   OH245117   5.908   4.976  11.489  0.0278  0.3605  0.2158
 7901TIP3    H145118   5.864   5.025  11.559  1.4608  0.5269  1.0108
 7901TIP3    H245119   5.940   4.897  11.532 -0.0386 -0.0595 -0.5041
 7902TIP3   OH245120   2.335   1.922  12.679  0.3876 -0.2713  0.6182
 7902TIP3    H145121   2.274   1.946  12.748  0.7450 -0.7923  1.1238
 7902TIP3    H245122   2.403   1.872  12.724  1.1561  0.2622  0.0558
 7903TIP3   OH245123   6.536   3.945  17.217  0.5046  0.0858  0.5795
 7903TIP3    H145124   6.566   3.974  17.304  0.8970  0.9052  0.1818
 7903TIP3    H245125   6.614   3.906  17.177  0.5501  0.4942  0.2686
 7904TIP3   OH245126   1.231   1.770  16.435 -0.0860 -0.7902 -0.4626
 7904TIP3    H145127   1.176   1.701  16.473  1.8798 -0.8737  2.3989
 7904TIP3    H245128   1.315   1.727  16.420  0.3443  0.3045 -1.2092
 7905TIP3   OH245129   1.213   5.985  11.562  0.8887 -0.7471 -0.2810
 7905TIP3    H145130   1.167   5.986  11.478 -0.6808 -2.0391  0.5530
 7905TIP3    H245131   1.181   6.062  11.608  0.7374 -0.7831 -0.3261
 7906TIP3   OH245132   0.566   4.474  13.464  0.3244  0.2095  0.1645
 7906TIP3    H145133   0.661   4.488  13.471  0.2065  0.8435  0.5216
 7906TIP3    H245134   0.549   4.472  13.370  0.8368 -0.8758  0.0889
 7907TIP3   OH245135   1.013   2.741   3.976  0.1769  0.3727 -0.0542
 7907TIP3    H145136   1.007   2.684   3.900 -0.2991 -0.7290  0.8007
 7907TIP3    H245137   0.934   2.724   4.026  0.0874  1.6911  0.2869
 7908TIP3   OH245138   1.096   0.500   1.278  0.1238 -0.2052  0.6315
 7908TIP3    H145139   1.129   0.416   1.245  1.6817  0.1650  1.1665
 7908TIP3    H245140   1.057   0.478   1.363 -0.8485 -0.6228  0.0820
 7909TIP3   OH245141   5.605   1.210  13.380  0.0106 -0.2513 -0.5487
 7909TIP3    H145142   5.608   1.137  13.319 -1.7981 -0.2257 -0.7054
 7909TIP3    H245143   5.696   1.226  13.405  0.4382 -2.3282 -0.7683
 7910TIP3   OH245144   5.806   2.080   2.788  0.3123 -0.1051  0.0182
 7910TIP3    H145145   5.778   2.083   2.696  1.5373 -0.3314 -0.3699
 7910TIP3    H245146   5.894   2.118   2.788  1.1112 -1.8884  0.7757
 7911TIP3   OH245147   0.494   0.951  12.243 -0.1565  0.2859 -0.7816
 7911TIP3    H145148   0.556   1.022  12.224  0.3368 -0.0976 -0.5943
 7911TIP3    H245149   0.408   0.989  12.223 -0.0321  1.4477  0.8320
 7912TIP3   OH245150   0.264   0.067   2.217 -0.0950 -0.1918 -0.6055
 7912TIP3    H145151   0.181   0.113   2.202  0.9525  1.0559 -2.7950
 7912TIP3    H245152   0.274   0.068   2.313 -1.0762  2.4378 -0.4713
 7913TIP3   OH245153   0.502   0.774  11.314 -0.2173 -0.2808 -0.0887
 7913TIP3    H145154   0.537   0.690  11.345 -0.9711 -1.0131 -1.2151
 7913TIP3    H245155   0.557   0.797  11.239  1.1122  1.1154  1.2715
 7914TIP3   OH245156   6.332   1.409  15.911 -0.2268  0.3149  0.1873
 7914TIP3    H145157   6.240   1.387  15.926 -0.3439 -1.0481 -2.1691
 7914TIP3    H245158   6.330   1.478  15.845  0.4218 -0.0748 -0.2570
 7915TIP3   OH245159   5.641   3.341   3.853  0.6421  0.3720  0.3099
 7915TIP3    H145160   5.573   3.285   3.815 -1.4689  3.8752 -1.3096
 7915TIP3    H245161   5.621   3.341   3.947 -0.9159  0.4488 -0.0030
 7916TIP3   OH245162   0.513   2.783  12.962 -0.0824  0.0772  0.7355
 7916TIP3    H145163   0.597   2.751  12.929 -0.3552  0.7578 -0.6826
 7916TIP3    H245164   0.454   2.709  12.953 -0.0603  0.1391  0.0035
 7917TIP3   OH245165   4.572   6.525  15.277 -0.2011  0.5192  0.2013
 7917TIP3    H145166   4.633   6.593  15.306  1.1020 -0.2058 -0.8256
 7917TIP3    H245167   4.508   6.519  15.348  2.5838 -0.7921  2.7117
 7918TIP3   OH245168   2.578   4.490   3.712 -0.2008  0.3171  0.1631
 7918TIP3    H145169   2.666   4.528   3.709 -0.3027  0.5351 -0.1002
 7918TIP3    H245170   2.566   4.465   3.803 -0.8502  2.5898  0.7317
 7919TIP3   OH245171   0.521   4.154  16.947  0.0891  0.1099  0.3983
 7919TIP3    H145172   0.525   4.186  16.857 -1.3358  0.5530  0.4803
 7919TIP3    H245173   0.581   4.080  16.949  0.8981  0.7218 -0.6502
 7920TIP3   OH245174   3.680   5.585   4.732 -0.1772 -0.0224  0.7977
 7920TIP3    H145175   3.775   5.586   4.747 -0.3732  0.4980  2.0497
 7920TIP3    H245176   3.668   5.643   4.658  0.3413  1.1174  1.5858
 7921TIP3   OH245177   0.792   5.260   3.942 -0.3389 -0.1439  0.5680
 7921TIP3    H145178   0.888   5.265   3.946 -0.3471  0.9532 -0.3996
 7921TIP3    H245179   0.771   5.175   3.981  0.9841 -0.0853  1.4307
 7922TIP3   OH245180   5.005   2.563   2.578  0.5186 -0.1004 -0.2685
 7922TIP3    H145181   4.938   2.528   2.520  0.0580  1.0227 -0.4225
 7922TIP3    H245182   4.968   2.555   2.666  0.8483 -0.9660 -0.2012
 7923TIP3   OH245183   2.658   6.497  14.721 -0.1133  0.1152  0.1743
 7923TIP3    H145184   2.637   6.560  14.652  2.6163 -0.9235 -1.7073
 7923TIP3    H245185   2.623   6.414  14.689 -0.3894 -0.0438  0.8808
 7924TIP3   OH245186   3.750   3.783   5.020  0.0020  0.8524 -0.0281
 7924TIP3    H145187   3.840   3.816   5.013 -0.4110  1.8631 -0.6838
 7924TIP3    H245188   3.707   3.814   4.940 -0.6910 -0.3787 -0.1450
 7925TIP3   OH245189   2.377   1.528  12.764  0.2553 -0.0537  0.4392
 7925TIP3    H145190   2.464   1.562  12.744  0.1296  1.7436  2.7299
 7925TIP3    H245191   2.323   1.553  12.689  1.6141 -0.8905 -0.8464
 7926TIP3   OH245192   3.481   5.359   5.103 -0.1742  0.2172  0.1192
 7926TIP3    H145193   3.473   5.349   5.008 -0.2522 -0.2614  0.1766
 7926TIP3    H245194   3.524   5.279   5.132  1.8016  1.3128  0.2438
 7927TIP3   OH245195   5.676   2.956  14.823  0.5739 -0.2454  0.0689
 7927TIP3    H145196   5.617   2.962  14.899  1.5529 -0.9310  0.9070
 7927TIP3    H245197   5.660   2.869  14.787  1.6723 -0.7713  0.8195
 7928TIP3   OH245198   0.040   2.965  16.289 -0.5837  0.0767  0.7224
 7928TIP3    H145199   0.014   2.894  16.231 -1.1805 -1.6299  2.9813
 7928TIP3    H245200  -0.004   3.043  16.254 -3.6355 -1.5409  0.7683
 7929TIP3   OH245201   5.680   4.319   0.257  0.3764  0.3382 -0.4727
 7929TIP3    H145202   5.642   4.349   0.340  0.1895 -0.2512 -0.3435
 7929TIP3    H245203   5.607   4.322   0.195  0.7207  1.6339 -0.8453
 7930TIP3   OH245204   5.021   2.703  16.822  0.4822 -0.0431  0.5403
 7930TIP3    H145205   5.042   2.688  16.730 -0.2867 -1.3324  0.5685
 7930TIP3    H245206   5.092   2.758  16.855  0.3100  1.1508 -1.0405
 7931TIP3   OH245207   3.674   2.995  16.175  0.0504  0.0143 -0.0038
 7931TIP3    H145208   3.674   2.940  16.096  0.1289 -0.2263  0.1610
 7931TIP3    H245209   3.648   3.081  16.144 -0.8416 -0.2984 -0.1484
 7932TIP3   OH245210   4.502   3.854   3.751  0.0528  0.2567 -0.1562
 7932TIP3    H145211   4.483   3.822   3.839 -4.6576 -0.4462 -1.2917
 7932TIP3    H245212   4.558   3.787   3.712  1.2708  0.0393  1.8989
 7933TIP3   OH245213   6.181   6.461   2.582 -0.3355  0.2669 -0.2063
 7933TIP3    H145214   6.235   6.473   2.661 -1.1832  0.4016  0.3566
 7933TIP3    H245215   6.107   6.408   2.611 -0.7404  0.4638 -0.8758
 7934TIP3   OH245216   0.577   5.534   1.749  0.4400 -0.1136  0.0863
 7934TIP3    H145217   0.572   5.575   1.663  0.1066 -1.8090 -0.7215
 7934TIP3    H245218   0.491   5.494   1.761  0.0492  1.1803  1.7664
 7935TIP3   OH245219   6.482   4.717   5.354 -0.1000  0.3130 -0.0652
 7935TIP3    H145220   6.548   4.700   5.422 -1.3734 -1.4082  0.7811
 7935TIP3    H245221   6.497   4.647   5.289 -0.2430  0.7044 -0.5177
 7936TIP3   OH245222   4.698   5.035  11.871 -0.5232  0.5197  0.3023
 7936TIP3    H145223   4.693   5.127  11.896  3.0564  1.1887 -1.1485
 7936TIP3    H245224   4.621   5.020  11.817 -1.4414  2.5081  1.0227
 7937TIP3   OH245225   3.729   6.229  13.686 -0.1883 -0.0325  0.0830
 7937TIP3    H145226   3.649   6.204  13.732 -0.1580  0.2686  0.2991
 7937TIP3    H245227   3.745   6.320  13.712 -0.6817  0.4524 -1.2146
 7938TIP3   OH245228   1.499   2.523   3.607  0.8144 -0.1518  0.3617
 7938TIP3    H145229   1.584   2.567   3.610 -0.3022  2.0741  0.4993
 7938TIP3    H245230   1.456   2.560   3.530 -0.9390  0.4917  1.6295
 7939TIP3   OH245231   5.482   3.758  13.274  0.1778 -0.1795  0.2402
 7939TIP3    H145232   5.426   3.788  13.345  0.9864 -0.9047  1.1882
 7939TIP3    H245233   5.571   3.762  13.310  0.2959 -4.2529  0.6270
 7940TIP3   OH245234   3.674   4.291  12.572 -0.4052  0.5704  0.0225
 7940TIP3    H145235   3.756   4.293  12.523 -1.5301 -1.4957 -2.0649
 7940TIP3    H245236   3.671   4.203  12.610 -1.7460  0.5092 -0.1777
 7941TIP3   OH245237   4.599   4.281   5.022  0.0657 -0.0217  0.1272
 7941TIP3    H145238   4.554   4.230   4.955  1.3653 -0.1181 -0.6930
 7941TIP3    H245239   4.584   4.372   4.997 -1.0543  0.0008  0.7993
 7942TIP3   OH245240   2.100   0.053   2.263 -0.5004  0.2443 -0.0567
 7942TIP3    H145241   2.006   0.066   2.278 -0.2046  0.7528  1.3856
 7942TIP3    H245242   2.105  -0.027   2.211 -1.6479 -0.6209  1.1485
 7943TIP3   OH245243   5.844   0.463   2.962  0.0793 -0.3769  0.1538
 7943TIP3    H145244   5.812   0.442   3.049  2.2875  3.1643  1.9195
 7943TIP3    H245245   5.772   0.510   2.920  0.4242  1.5648  1.6478
 7944TIP3   OH245246   6.289   2.453   4.312 -0.6786 -0.1558 -0.3799
 7944TIP3    H145247   6.370   2.502   4.305 -0.9344  0.3767  0.2298
 7944TIP3    H245248   6.282   2.432   4.406 -0.2708 -1.8854 -0.7211
 7945TIP3   OH245249   4.374   1.447  15.884  0.2289  0.1288  0.1341
 7945TIP3    H145250   4.281   1.452  15.859  0.4239  1.7200 -0.3341
 7945TIP3    H245251   4.374   1.462  15.979 -0.1058 -1.2853  0.3710
 7946TIP3   OH245252   0.022   0.848  15.545  0.2646 -0.4098  0.2582
 7946TIP3    H145253   0.076   0.927  15.542  1.8708 -1.5032 -0.1670
 7946TIP3    H245254   0.080   0.778  15.515 -1.5796 -1.5204 -0.7646
 7947TIP3   OH245255   5.609   3.636   3.442  0.0227  0.0217  0.2413
 7947TIP3    H145256   5.623   3.718   3.490  1.8012 -0.4980  0.6359
 7947TIP3    H245257   5.558   3.582   3.502 -0.5598  0.5752  0.2556
 7948TIP3   OH245258   0.266   4.800   1.096  0.3676 -0.1804 -0.8528
 7948TIP3    H145259   0.322   4.806   1.018  0.0863  1.0641 -0.9684
 7948TIP3    H245260   0.198   4.738   1.071  1.8286 -1.9277 -0.6171
 7949TIP3   OH245261   1.752   1.693   3.297  0.0047  0.2890 -0.0986
 7949TIP3    H145262   1.796   1.775   3.318  0.4509  0.0394 -0.0712
 7949TIP3    H245263   1.804   1.655   3.227  0.1656 -0.2872  0.3365
 7950TIP3   OH245264   3.016   5.048   0.733 -0.0043 -0.0020  0.2465
 7950TIP3    H145265   3.002   5.140   0.714 -2.8182 -0.7275 -1.4891
 7950TIP3    H245266   3.011   5.041   0.828 -0.4912  1.5290  0.3335
 7951TIP3   OH245267   6.778   3.193  12.710 -0.6780 -0.5693 -0.1168
 7951TIP3    H145268   6.779   3.102  12.737 -3.4712 -0.5640  0.1091
 7951TIP3    H245269   6.749   3.191  12.619  0.3447  0.0231 -0.4641
 7952TIP3   OH245270   3.353   2.655   0.141  0.8016 -0.1378  0.2977
 7952TIP3    H145271   3.375   2.729   0.198 -2.0103  1.2444 -0.3083
 7952TIP3    H245272   3.438   2.615   0.120  2.4278  2.8982  0.6887
 7953TIP3   OH245273   5.071   5.476  16.067  0.0105  0.3440  0.5098
 7953TIP3    H145274   5.024   5.559  16.060 -0.5763 -0.0244  0.0206
 7953TIP3    H245275   5.077   5.459  16.161 -2.5483 -0.5527  0.5472
 7954TIP3   OH245276   4.000   4.521   5.801  0.1633  0.0804  0.0974
 7954TIP3    H145277   4.026   4.453   5.863  0.1056 -0.1313 -0.1089
 7954TIP3    H245278   4.070   4.586   5.806 -0.6403  0.8490  1.5554
 7955TIP3   OH245279   6.723   0.543   0.084  0.2957 -0.8903  0.2290
 7955TIP3    H145280   6.687   0.538  -0.005 -0.2538  0.5887  0.3412
 7955TIP3    H245281   6.670   0.482   0.135  0.0595 -1.1262 -0.2889
 7956TIP3   OH245282   2.977   3.037   1.924 -0.6549 -0.6160 -0.0816
 7956TIP3    H145283   3.006   2.959   1.877 -0.7177  0.0932 -1.3160
 7956TIP3    H245284   2.978   3.107   1.858  1.1379  0.8273  1.4124
 7957TIP3   OH245285   5.376   6.572   2.815  0.1780 -0.0854  0.0704
 7957TIP3    H145286   5.413   6.572   2.903  0.8134  0.5263 -0.1909
 7957TIP3    H245287   5.410   6.652   2.775 -1.0307  0.2398 -0.3451
 7958TIP3   OH245288   3.151   1.982  16.036  0.5004  0.0723 -0.5161
 7958TIP3    H145289   3.245   1.994  16.024  0.2615  1.5750 -0.9556
 7958TIP3    H245290   3.139   1.980  16.131  0.8318  1.0549 -0.4529
 7959TIP3   OH245291   0.608   1.389   4.732  0.6850  0.4509 -0.0964
 7959TIP3    H145292   0.685   1.413   4.681  0.9749 -0.0863  0.0875
 7959TIP3    H245293   0.536   1.388   4.668  1.1616 -0.8592 -0.6427
 7960TIP3   OH245294   0.821   2.648   3.444 -0.0032 -0.1525 -0.3867
 7960TIP3    H145295   0.834   2.718   3.508 -1.5231  0.4609 -0.7149
 7960TIP3    H245296   0.833   2.692   3.359 -1.1112 -0.2416 -0.5987
 7961TIP3   OH245297   1.011   0.621   3.081 -0.5300 -0.2674 -0.1602
 7961TIP3    H145298   0.952   0.546   3.082 -0.8394 -0.0198  1.0104
 7961TIP3    H245299   0.953   0.697   3.071 -0.3867 -0.0499  0.6062
 7962TIP3   OH245300   5.266   1.246   0.836 -0.0120  0.3431  0.4563
 7962TIP3    H145301   5.249   1.152   0.845 -0.2196  0.1215 -1.8931
 7962TIP3    H245302   5.206   1.274   0.766  0.2641  2.1679  0.9296
 7963TIP3   OH245303   4.936   0.411   0.732  0.0432 -0.4079  0.2177
 7963TIP3    H145304   5.015   0.461   0.711 -0.2377 -0.4197 -0.8976
 7963TIP3    H245305   4.963   0.350   0.800  0.5991  0.6882  0.9994
 7964TIP3   OH245306   4.837   2.647   3.790  0.3239 -0.5846 -0.2126
 7964TIP3    H145307   4.915   2.695   3.762 -0.8693  1.5949  0.1125
 7964TIP3    H245308   4.863   2.604   3.871  0.8992  1.0021  0.4693
 7965TIP3   OH245309   6.325   4.283   3.194 -0.0956  0.5612  0.1720
 7965TIP3    H145310   6.406   4.328   3.171 -0.7186  0.8755 -1.4299
 7965TIP3    H245311   6.272   4.350   3.237  0.2700  0.4853  0.7584
 7966TIP3   OH245312   4.768   6.116   4.495  0.4571 -0.3068 -0.1451
 7966TIP3    H145313   4.805   6.201   4.470 -1.0021 -0.0537 -1.5594
 7966TIP3    H245314   4.694   6.139   4.551 -0.5475 -0.5893 -1.3365
 7967TIP3   OH245315   0.828   2.352   3.952 -0.5422 -0.3470 -0.2836
 7967TIP3    H145316   0.797   2.265   3.927 -0.7161 -0.4245  0.1992
 7967TIP3    H245317   0.797   2.364   4.042  1.4858 -0.7542  0.5039
 7968TIP3   OH245318   0.075   3.150   5.385  0.0741  0.1377 -0.6117
 7968TIP3    H145319   0.105   3.107   5.305 -0.8721  2.2747 -2.1659
 7968TIP3    H245320   0.107   3.094   5.456  0.9701 -1.7720 -2.4678
 7969TIP3   OH245321   0.306   0.471  14.100  0.0545 -0.2150 -0.1753
 7969TIP3    H145322   0.232   0.410  14.106  1.3168 -1.9302 -1.5986
 7969TIP3    H245323   0.373   0.433  14.156 -0.0166  1.2077  0.9118
 7970TIP3   OH245324   5.240   2.427   6.221 -0.2407  0.1088 -0.1206
 7970TIP3    H145325   5.282   2.489   6.163 -2.0444  0.4136 -1.1500
 7970TIP3    H245326   5.266   2.341   6.188  3.5364  0.2026  2.2461
 7971TIP3   OH245327   1.096   0.810  15.711 -0.5029 -0.2534  0.6433
 7971TIP3    H145328   1.085   0.716  15.728  0.8018 -0.3954  0.7693
 7971TIP3    H245329   1.122   0.814  15.619 -2.6163  0.1539  0.0238
 7972TIP3   OH245330   5.133   0.440   0.259 -0.4163 -0.0387  0.2467
 7972TIP3    H145331   5.156   0.525   0.294 -1.9322  0.4984 -0.0282
 7972TIP3    H245332   5.081   0.398   0.327 -0.8371 -0.1912 -0.1626
 7973TIP3   OH245333   0.961   1.252  16.809 -0.2350 -0.2467 -0.1167
 7973TIP3    H145334   1.003   1.337  16.821 -2.1290  0.5704  0.8862
 7973TIP3    H245335   1.034   1.190  16.805  1.0664  1.0668  2.0461
 7974TIP3   OH245336   4.258   1.597  12.292  0.1715 -0.2441  0.2272
 7974TIP3    H145337   4.166   1.598  12.318 -0.0579 -0.8436 -0.5776
 7974TIP3    H245338   4.299   1.664  12.348 -1.2683  1.9882 -1.3161
 7975TIP3   OH245339   2.049   6.756  13.519 -0.5543  0.6008  0.5333
 7975TIP3    H145340   2.120   6.692  13.514 -1.2835 -0.2845  1.2258
 7975TIP3    H245341   2.011   6.758  13.432 -0.0742  0.6233  0.3226
 7976TIP3   OH245342   2.600   6.033   2.883  0.8023  0.1149  0.0225
 7976TIP3    H145343   2.546   6.044   2.961  1.6720 -0.6531  0.7513
 7976TIP3    H245344   2.594   6.117   2.837 -1.7981 -0.2999 -0.4507
 7977TIP3   OH245345   3.017   3.817   0.689  0.7127  0.4405  0.2855
 7977TIP3    H145346   3.055   3.900   0.659  0.1547  0.5961  0.0006
 7977TIP3    H245347   3.013   3.826   0.785 -0.6610  1.3245  0.1613
 7978TIP3   OH245348   3.199   2.450   0.991 -0.2148  0.3681  0.3920
 7978TIP3    H145349   3.211   2.414   0.903 -1.3510 -3.0926  1.5355
 7978TIP3    H245350   3.287   2.456   1.028  0.0185 -1.8290  0.2933
 7979TIP3   OH245351   0.123   2.528   2.996 -0.1311  0.1935 -0.1617
 7979TIP3    H145352   0.068   2.460   2.956  2.8006 -2.1275 -0.4195
 7979TIP3    H245353   0.141   2.589   2.925 -0.3373 -0.3855 -0.7218
 7980TIP3   OH245354   0.971   5.198   0.707  0.2292 -0.5272  0.1645
 7980TIP3    H145355   1.064   5.202   0.731  0.3193 -0.4888 -0.1782
 7980TIP3    H245356   0.972   5.182   0.612 -0.0946  1.1317 -0.1438
 7981TIP3   OH245357   3.787   0.557  14.605  0.4173 -0.2956  0.1566
 7981TIP3    H145358   3.853   0.491  14.583  0.9329  0.2325  0.1016
 7981TIP3    H245359   3.836   0.627  14.648 -0.2864 -0.4126  1.1782
 7982TIP3   OH245360   2.285   4.946   4.503 -0.1739 -0.0311  0.3832
 7982TIP3    H145361   2.227   5.013   4.539  0.3492  0.0332  1.1287
 7982TIP3    H245362   2.365   4.954   4.555  0.4852 -0.1450 -0.6115
 7983TIP3   OH245363   1.699   1.163   3.859  0.0538 -0.2052 -0.5592
 7983TIP3    H145364   1.784   1.176   3.816 -0.0942 -4.0668 -2.2721
 7983TIP3    H245365   1.635   1.189   3.793 -0.1304  0.8008  0.0087
 7984TIP3   OH245366   2.546   5.319   0.216  0.3701 -0.3523  0.2703
 7984TIP3    H145367   2.535   5.392   0.155 -0.3940 -0.1709  0.6158
 7984TIP3    H245368   2.506   5.244   0.172 -0.7855 -0.0701  0.8221
 7985TIP3   OH245369   3.635   6.043  12.288 -0.3321  0.2368 -0.2019
 7985TIP3    H145370   3.707   5.993  12.250 -0.4845  1.3495 -1.9877
 7985TIP3    H245371   3.666   6.133  12.291 -0.2381  0.1485  2.5777
 7986TIP3   OH245372   2.153   1.518  11.208 -0.4957 -0.1724 -0.0761
 7986TIP3    H145373   2.100   1.477  11.276  0.2468 -1.7819 -0.4419
 7986TIP3    H245374   2.100   1.512  11.128 -1.5272  2.0578  0.4091
 7987TIP3   OH245375   2.332   0.129   6.273 -0.1069 -0.1970  0.4905
 7987TIP3    H145376   2.366   0.115   6.361 -1.1583 -0.3009  0.8907
 7987TIP3    H245377   2.237   0.130   6.284 -0.2297  0.3824 -0.5551
 7988TIP3   OH245378   5.392   2.773  11.899 -0.2675 -0.0645 -0.7634
 7988TIP3    H145379   5.482   2.743  11.896 -0.4916 -0.7569 -0.7300
 7988TIP3    H245380   5.351   2.735  11.821 -0.2922  1.0294 -1.2845
 7989TIP3   OH245381   0.316   3.981  17.027 -0.7660  0.1913  0.6869
 7989TIP3    H145382   0.290   3.954  16.939  0.9447 -0.7491  0.4453
 7989TIP3    H245383   0.366   4.062  17.013  1.7775 -1.3739  0.5000
 7990TIP3   OH245384   4.523   1.542   0.313  0.7309 -0.7120 -0.0579
 7990TIP3    H145385   4.569   1.598   0.376  0.4170 -1.8587  1.2143
 7990TIP3    H245386   4.459   1.600   0.271  0.1045 -0.2182  1.5583
 7991TIP3   OH245387   0.003   0.184  11.176  0.0226  0.0721  0.1375
 7991TIP3    H145388   0.086   0.138  11.187  1.1232  1.8715 -0.3996
 7991TIP3    H245389  -0.052   0.125  11.124  0.4411 -1.7243  1.6712
 7992TIP3   OH245390   4.941   3.304   0.131 -0.0622  0.4133  0.0333
 7992TIP3    H145391   4.885   3.363   0.182 -0.7511  0.4985 -0.8097
 7992TIP3    H245392   4.922   3.217   0.166  0.2984  0.5890  0.6784
 7993TIP3   OH245393   3.830   5.248  12.343  0.0188  0.0230  0.0691
 7993TIP3    H145394   3.919   5.217  12.357 -0.4306 -1.4851 -0.3350
 7993TIP3    H245395   3.828   5.278  12.252  0.1502  0.2127  0.1289
 7994TIP3   OH245396   2.362   6.492   6.090  0.5478 -0.5575 -0.0772
 7994TIP3    H145397   2.377   6.476   6.183 -0.1000  0.6780  0.2511
 7994TIP3    H245398   2.444   6.531   6.059  1.0343 -1.6580 -0.2042
 7995TIP3   OH245399   5.426   5.132  16.058 -0.2225 -0.1639  0.6794
 7995TIP3    H145400   5.337   5.165  16.066 -0.2124 -0.5214  2.2794
 7995TIP3    H245401   5.461   5.177  15.980 -1.8654 -0.2250 -0.0997
 7996TIP3   OH245402   2.703   2.223   4.772  0.2599  0.0530 -0.0552
 7996TIP3    H145403   2.677   2.304   4.728  1.3684 -0.4805 -1.7648
 7996TIP3    H245404   2.689   2.240   4.865 -1.0629  1.6222 -0.5241
 7997TIP3   OH245405   6.395   3.654  10.928 -0.9539  0.0820 -0.2507
 7997TIP3    H145406   6.380   3.744  10.897 -1.0046  0.1901  0.0926
 7997TIP3    H245407   6.344   3.600  10.867  1.5241  0.0356 -2.3747
 7998TIP3   OH245408   5.931   3.488  14.153  0.4159  0.3533 -0.4916
 7998TIP3    H145409   5.861   3.455  14.210  0.9790 -1.2204 -0.6914
 7998TIP3    H245410   5.949   3.416  14.093  0.9771  1.4016 -1.5969
 7999TIP3   OH245411   1.206   0.443   2.133 -0.4203  0.4385 -0.0091
 7999TIP3    H145412   1.123   0.471   2.093 -0.0000  2.1354  0.2711
 7999TIP3    H245413   1.212   0.350   2.113 -1.9038  0.5245 -0.9210
 8000TIP3   OH245414   4.225   2.453   3.561  0.1465  0.6221 -0.1673
 8000TIP3    H145415   4.201   2.360   3.557  0.8631  0.4236  0.1651
 8000TIP3    H245416   4.177   2.487   3.636  0.8016  0.2510  0.4237
 8001TIP3   OH245417   6.639   3.805  13.586  0.4366 -0.0694  0.1669
 8001TIP3    H145418   6.669   3.891  13.617 -1.7347  0.7472  0.0765
 8001TIP3    H245419   6.719   3.763  13.554  1.5450  1.9292  0.1683
 8002TIP3   OH245420   0.967   2.506  14.930  0.1493  0.1444  0.2221
 8002TIP3    H145421   1.016   2.549  14.859  1.7513 -0.5599  0.8650
 8002TIP3    H245422   1.008   2.539  15.010  1.0791 -2.1524  0.7371
 8003TIP3   OH245423   2.798   6.540   2.367 -0.2731  0.5211  0.1058
 8003TIP3    H145424   2.774   6.631   2.346  0.8359  0.8392  0.1825
 8003TIP3    H245425   2.884   6.528   2.327  0.3142  0.0233  1.4897
 8004TIP3   OH245426   2.821   6.071   4.719 -0.1417  0.5547 -0.1460
 8004TIP3    H145427   2.884   6.141   4.737  0.7618 -0.3615  0.3719
 8004TIP3    H245428   2.808   6.074   4.624  0.9252  0.5728 -0.3002
 8005TIP3   OH245429   1.954   4.302  11.682  0.0805  0.4830  0.4040
 8005TIP3    H145430   2.041   4.301  11.642 -0.4078 -0.7121 -0.6816
 8005TIP3    H245431   1.934   4.210  11.698 -0.5217  0.8218  1.7078
 8006TIP3   OH245432   0.597   1.190   2.208 -0.8322  0.0175  0.5986
 8006TIP3    H145433   0.537   1.119   2.187 -0.0186 -0.2389 -0.9404
 8006TIP3    H245434   0.561   1.266   2.162  0.1264 -0.1917 -0.5246
 8007TIP3   OH245435   1.092   4.714   4.750  0.2549  0.3038 -0.9644
 8007TIP3    H145436   1.039   4.794   4.753 -0.3840 -0.1731  1.0109
 8007TIP3    H245437   1.053   4.657   4.816  2.8157 -0.3026  0.0772
 8008TIP3   OH245438   3.809   3.423  12.324  0.3381 -0.1094  0.0103
 8008TIP3    H145439   3.815   3.335  12.287  1.9719  0.5159 -1.2727
 8008TIP3    H245440   3.717   3.447  12.313 -0.1177 -1.6453  0.3680
 8009TIP3   OH245441   2.252   6.331   3.182 -0.1396  0.2638  0.0787
 8009TIP3    H145442   2.243   6.244   3.220  0.7073  0.2431  0.2537
 8009TIP3    H245443   2.342   6.356   3.202 -0.4158  1.2305  0.1457
 8010TIP3   OH245444   3.346   6.650  16.684 -0.9570 -0.0131 -0.1835
 8010TIP3    H145445   3.418   6.690  16.734 -0.6521  0.1852 -0.7803
 8010TIP3    H245446   3.374   6.656  16.593 -0.5344 -2.3229 -0.2287
 8011TIP3   OH245447   3.401   3.506   5.570 -0.2342 -0.1303  0.0656
 8011TIP3    H145448   3.400   3.426   5.622 -0.8677  0.8818  1.6429
 8011TIP3    H245449   3.312   3.541   5.576  0.7943  2.3068  1.9986
 8012TIP3   OH245450   4.653   1.024   0.966 -0.1660  0.2100 -0.7961
 8012TIP3    H145451   4.636   1.069   0.883  0.9429  2.4773  0.1750
 8012TIP3    H245452   4.688   1.092   1.024  1.3310 -1.8655  0.8044
 8013TIP3   OH245453   0.807   6.378  14.978 -0.7566  0.3328 -0.0658
 8013TIP3    H145454   0.751   6.390  15.054  0.3520 -1.6305  1.0975
 8013TIP3    H245455   0.896   6.378  15.012 -0.2569 -0.9364 -1.2841
 8014TIP3   OH245456   5.871   2.646  15.241  0.3180 -0.4398  0.2600
 8014TIP3    H145457   5.916   2.667  15.159  0.4109 -0.9080  0.1949
 8014TIP3    H245458   5.924   2.687  15.308  0.9617 -1.1801  0.2023
 8015TIP3   OH245459   1.625   5.593   0.439  0.0056  0.0120 -0.0850
 8015TIP3    H145460   1.700   5.625   0.487 -0.6262  1.5961 -0.1226
 8015TIP3    H245461   1.615   5.654   0.365 -1.2713 -0.1918 -0.1038
 8016TIP3   OH245462   0.312   4.068   1.228  0.1209  0.4574  0.1535
 8016TIP3    H145463   0.350   4.017   1.156  1.1682  0.1978  0.8888
 8016TIP3    H245464   0.247   4.009   1.267 -0.9555  0.8542 -1.0192
 8017TIP3   OH245465   2.755   0.972  14.647 -0.2728 -0.1103 -0.2554
 8017TIP3    H145466   2.772   0.915  14.722 -3.1867 -1.4249 -0.5481
 8017TIP3    H245467   2.807   1.050  14.665  1.1658 -1.4787  1.8038
 8018TIP3   OH245468   3.020   4.944  14.458  0.1507  0.5824  0.5833
 8018TIP3    H145469   2.945   4.888  14.439  0.6561  0.9903 -2.9551
 8018TIP3    H245470   2.983   5.017  14.509 -1.2475 -0.7978  1.5965
 8019TIP3   OH245471   6.626   5.547  11.100 -0.4779  0.1176  0.3550
 8019TIP3    H145472   6.538   5.585  11.098 -0.2891  0.5519  0.2184
 8019TIP3    H245473   6.648   5.534  11.008 -0.3535  0.1198  0.3842
 8020TIP3   OH245474   6.128   2.028  12.501  0.0741  0.3394 -0.1458
 8020TIP3    H145475   6.123   2.120  12.529  1.4047 -0.1399  1.7841
 8020TIP3    H245476   6.041   2.009  12.466 -0.0804  2.4708 -1.0308
 8021TIP3   OH245477   5.828   4.024  16.609 -0.1750  0.0781  0.6964
 8021TIP3    H145478   5.876   4.086  16.554 -0.7556 -0.9282 -0.9782
 8021TIP3    H245479   5.896   3.973  16.653  0.3189 -0.9333 -1.1950
 8022TIP3   OH245480   5.844   0.056  13.673 -0.4864 -0.0185  0.0075
 8022TIP3    H145481   5.861   0.121  13.741 -2.7000 -0.6575  1.2408
 8022TIP3    H245482   5.911  -0.011  13.685  0.4202  0.9211  0.1891
 8023TIP3   OH245483   2.426   1.841  16.148 -0.1849 -0.2297  0.1831
 8023TIP3    H145484   2.407   1.753  16.181  0.6284 -0.6379 -0.4246
 8023TIP3    H245485   2.380   1.845  16.064 -0.2451 -0.0557  0.2220
 8024TIP3   OH245486   6.660   6.033   3.517  0.0141 -0.5124 -0.3011
 8024TIP3    H145487   6.741   5.994   3.484  0.1653 -0.5735  0.1457
 8024TIP3    H245488   6.593   5.968   3.498  0.1772 -0.7513 -0.0600
 8025TIP3   OH245489   3.937   1.193  15.579  0.0942 -0.0995 -0.1347
 8025TIP3    H145490   3.875   1.140  15.630 -0.7522  0.5776 -0.4355
 8025TIP3    H245491   4.022   1.175  15.618 -0.4161 -0.3421  0.8852
 8026TIP3   OH245492   4.188   0.481  11.940  0.0987 -0.4415  0.2734
 8026TIP3    H145493   4.246   0.471  12.016  0.7902  0.4300 -0.1268
 8026TIP3    H245494   4.235   0.542  11.883 -1.3641  0.4989  0.0701
 8027TIP3   OH245495   0.396   2.133   5.419 -0.6669 -0.1507  0.1480
 8027TIP3    H145496   0.333   2.153   5.488 -1.5229 -0.7928 -0.4405
 8027TIP3    H245497   0.343   2.115   5.342  0.2563 -0.1904 -0.4882
 8028TIP3   OH245498   6.227   6.382  17.143 -0.4914 -0.1518 -0.1295
 8028TIP3    H145499   6.289   6.405  17.212  2.8283  0.6545 -3.2447
 8028TIP3    H245500   6.211   6.289  17.154 -0.8775  0.1813  2.3502
 8029TIP3   OH245501   4.123   6.037   6.366 -0.3709  0.5392  0.1416
 8029TIP3    H145502   4.217   6.016   6.364 -0.6836 -0.9876  0.7413
 8029TIP3    H245503   4.089   5.984   6.438 -1.9151  0.1810 -0.8392
 8030TIP3   OH245504   4.784   6.625  15.125 -0.0753 -0.3784  0.4564
 8030TIP3    H145505   4.789   6.593  15.215  0.5199  0.9480  0.8991
 8030TIP3    H245506   4.731   6.705  15.131 -1.1036 -0.9552 -0.5645
 8031TIP3   OH245507   2.686   1.837   4.410 -0.1190  0.5235 -0.0718
 8031TIP3    H145508   2.687   1.858   4.503 -0.8535  1.5212 -0.2801
 8031TIP3    H245509   2.624   1.898   4.372  0.5242  0.4414 -1.2982
 8032TIP3   OH245510   0.287   2.360  13.395 -0.3492 -0.0665  0.2169
 8032TIP3    H145511   0.313   2.276  13.433 -1.7288 -0.6973 -0.1934
 8032TIP3    H245512   0.220   2.392  13.455  0.4806  0.9610  0.6088
 8033TIP3   OH245513   2.130   0.446   1.199 -0.2860  0.3082  0.3283
 8033TIP3    H145514   2.142   0.471   1.107 -0.4589 -1.9703 -0.3519
 8033TIP3    H245515   2.210   0.477   1.242  0.1920  0.6420 -0.7684
 8034TIP3   OH245516   5.773   3.178   5.133  0.0309 -0.1214  0.2421
 8034TIP3    H145517   5.751   3.143   5.047 -1.0410 -0.8610  0.8039
 8034TIP3    H245518   5.744   3.269   5.130 -1.4069 -0.5557  0.3140
 8035TIP3   OH245519   1.530   4.385   2.478 -0.0443 -0.0550  0.2381
 8035TIP3    H145520   1.585   4.332   2.420 -0.3525  1.1326 -1.1466
 8035TIP3    H245521   1.591   4.434   2.532  0.2495 -1.7027  1.4744
 8036TIP3   OH245522   4.590   2.577   1.383  0.2919  0.3223 -0.2331
 8036TIP3    H145523   4.671   2.529   1.368  0.6707  0.6530  0.6654
 8036TIP3    H245524   4.618   2.668   1.394 -0.3370  0.6386 -1.1841
 8037TIP3   OH245525   0.325   1.741   4.213  0.0097  0.4395  0.3147
 8037TIP3    H145526   0.400   1.762   4.270  2.0356 -2.7640 -1.0313
 8037TIP3    H245527   0.347   1.782   4.130 -0.6758  1.1084  0.4596
 8038TIP3   OH245528   6.591   5.323   2.447  0.0800 -0.0787  0.1897
 8038TIP3    H145529   6.544   5.294   2.526 -1.2836  1.7237  0.0857
 8038TIP3    H245530   6.523   5.328   2.380  1.4296 -2.7356 -1.4620
 8039TIP3   OH245531   0.461   1.582   4.630 -0.1304 -0.3182  0.0333
 8039TIP3    H145532   0.499   1.629   4.704 -0.6315 -0.6114  0.4845
 8039TIP3    H245533   0.481   1.636   4.554 -1.4756  1.0875  0.6464
 8040TIP3   OH245534   6.423   0.212   1.573 -0.6317  0.0747 -0.6495
 8040TIP3    H145535   6.503   0.230   1.524 -1.9904  0.3309 -2.8222
 8040TIP3    H245536   6.411   0.289   1.629  1.4313 -0.6329  0.8437
 8041TIP3   OH245537   6.318   4.844  12.700  0.6166 -0.4192 -0.1458
 8041TIP3    H145538   6.361   4.856  12.616 -0.5072  0.5506 -0.5923
 8041TIP3    H245539   6.228   4.821  12.679  0.0289  0.9223  0.7675
 8042TIP3   OH245540   1.966   1.226  15.947  0.4065 -0.4652  0.0097
 8042TIP3    H145541   2.047   1.216  15.897  0.9696  0.1680  0.7798
 8042TIP3    H245542   1.979   1.173  16.025  1.2682  1.9196  1.5388
 8043TIP3   OH245543   5.904   2.786   6.472  0.0759 -0.2857  0.6607
 8043TIP3    H145544   5.811   2.804   6.486 -0.3407 -0.0391 -2.1175
 8043TIP3    H245545   5.949   2.865   6.504 -0.6165 -0.5777  2.3956
 8044TIP3   OH245546   3.499   5.936  13.697  0.5813 -0.6802 -0.3935
 8044TIP3    H145547   3.407   5.942  13.722  0.2532 -0.9537 -1.4835
 8044TIP3    H245548   3.527   6.027  13.685  0.4597 -0.5968 -0.0289
 8045TIP3   OH245549   1.573   4.210  15.045  0.2631  0.1386  0.1491
 8045TIP3    H145550   1.630   4.266  15.097 -0.8093  1.2038  0.2117
 8045TIP3    H245551   1.620   4.197  14.963  2.1964 -1.9773  1.5388
 8046TIP3   OH245552   0.629   1.663  17.123 -0.0244  0.0860 -0.6630
 8046TIP3    H145553   0.680   1.642  17.202 -0.2514  1.2090 -0.2019
 8046TIP3    H245554   0.548   1.612  17.132 -1.1967  2.1642  1.1487
 8047TIP3   OH245555   3.334   1.253  15.752  0.0419 -0.1089 -0.3953
 8047TIP3    H145556   3.376   1.178  15.794 -0.7072  0.0685  0.7020
 8047TIP3    H245557   3.240   1.240  15.769 -0.0924  1.0560 -0.2189
 8048TIP3   OH245558   4.711   3.172   6.825 -0.2350 -0.1659 -0.6638
 8048TIP3    H145559   4.626   3.217   6.827  0.4748  1.1715 -0.1039
 8048TIP3    H245560   4.714   3.121   6.906 -0.3655  0.0519 -0.5215
 8049TIP3   OH245561   2.954   5.925   1.387 -0.4053  0.0787 -0.5540
 8049TIP3    H145562   2.939   6.014   1.420 -0.3542 -0.5534  1.2388
 8049TIP3    H245563   3.048   5.911   1.400 -0.5318 -0.4648 -0.2297
 8050TIP3   OH245564   0.443   3.580  13.344  0.2310  0.7836  0.4513
 8050TIP3    H145565   0.526   3.535  13.354 -0.5936 -1.2862 -1.5638
 8050TIP3    H245566   0.379   3.521  13.384 -0.6281  0.9671 -0.6354
 8051TIP3   OH245567   0.580   3.610  14.064 -0.6791 -0.7400  0.8596
 8051TIP3    H145568   0.526   3.598  14.142 -2.1279 -1.7059 -0.2730
 8051TIP3    H245569   0.549   3.691  14.025 -0.0174 -0.3044  1.2421
 8052TIP3   OH245570   5.090   3.640   0.244 -0.3698  0.4321 -0.1727
 8052TIP3    H145571   5.093   3.696   0.321  1.1986  0.9875 -0.6080
 8052TIP3    H245572   5.168   3.584   0.252 -0.7012 -0.1439 -0.8702
 8053TIP3   OH245573   3.205   4.162  11.115  0.0000  0.1780  0.5467
 8053TIP3    H145574   3.194   4.182  11.022  1.5903  0.4075  0.3920
 8053TIP3    H245575   3.298   4.140  11.124 -0.1491  0.1380  2.0731
 8054TIP3   OH245576   3.027   1.338   0.240 -0.3718  0.1951  0.3856
 8054TIP3    H145577   3.100   1.365   0.297  1.1359  1.1089 -1.9203
 8054TIP3    H245578   2.950   1.378   0.279  0.9623  2.6281  0.5765
 8055TIP3   OH245579   5.752   0.076   1.308 -0.3187  0.0183 -0.1881
 8055TIP3    H145580   5.821   0.023   1.347  1.6545  2.4692 -0.2104
 8055TIP3    H245581   5.703   0.110   1.383 -1.2559 -1.3550 -0.1574
 8056TIP3   OH245582   6.751   4.625  14.554 -0.8944  0.6059 -0.4105
 8056TIP3    H145583   6.785   4.590  14.471 -0.4735  0.4185 -0.1583
 8056TIP3    H245584   6.657   4.607  14.550 -0.4502 -2.1529  0.4799
 8057TIP3   OH245585   5.422   4.345   0.129 -0.4028  0.2003 -0.1288
 8057TIP3    H145586   5.405   4.394   0.049 -1.3507  0.4166  0.1965
 8057TIP3    H245587   5.360   4.272   0.127 -1.6400  1.1749  1.2261
 8058TIP3   OH245588   1.989   0.888   4.247 -0.5388  0.4008 -0.3652
 8058TIP3    H145589   1.940   0.969   4.263 -0.1171  0.5516  0.2139
 8058TIP3    H245590   2.035   0.903   4.165 -0.4969  0.7418 -0.2833
 8059TIP3   OH245591   4.057   1.178   3.911 -0.3272 -0.2504  0.3259
 8059TIP3    H145592   4.122   1.133   3.965  0.2371  0.1883  0.0116
 8059TIP3    H245593   4.105   1.250   3.870 -0.6367 -0.8774 -1.1566
 8060TIP3   OH245594   0.759   4.191   0.849 -0.1308 -0.1811  0.0000
 8060TIP3    H145595   0.822   4.209   0.779 -0.0503  0.5020  0.2536
 8060TIP3    H245596   0.776   4.099   0.872  0.3673 -0.1796 -0.3434
 8061TIP3   OH245597   4.517   5.274   2.248 -0.1621 -0.4516 -0.0508
 8061TIP3    H145598   4.569   5.224   2.311 -1.7312 -1.3057  0.5878
 8061TIP3    H245599   4.476   5.343   2.301 -0.0506 -0.0686 -0.4667
 8062TIP3   OH245600   2.606   2.288   3.186  0.5802 -0.0637 -0.7849
 8062TIP3    H145601   2.685   2.321   3.229  0.2872  2.9423 -2.4939
 8062TIP3    H245602   2.534   2.328   3.234  0.0649 -2.0470  0.1576
 8063TIP3   OH245603   4.701   0.127  14.635  0.3051 -0.2118  0.2101
 8063TIP3    H145604   4.614   0.090  14.647  0.2343  0.5774  2.2279
 8063TIP3    H245605   4.688   0.221  14.635  1.2040 -0.0765  0.8872
 8064TIP3   OH245606   0.373   3.748  11.583 -0.2109 -0.4049  0.0284
 8064TIP3    H145607   0.299   3.802  11.610 -0.3270 -0.8329  0.5797
 8064TIP3    H245608   0.368   3.745  11.488 -0.2902  0.4360  0.0063
 8065TIP3   OH245609   2.631   3.929  16.422 -0.2996  0.2173 -0.0324
 8065TIP3    H145610   2.724   3.919  16.442 -0.1314  0.6944 -0.5918
 8065TIP3    H245611   2.587   3.915  16.506  0.4142  2.2703  0.7150
 8066TIP3   OH245612   2.014   4.882   0.304  0.6199  0.5496 -0.0449
 8066TIP3    H145613   2.100   4.839   0.304  0.6788  0.6208 -2.1963
 8066TIP3    H245614   2.034   4.975   0.319  1.1722  0.9294 -2.7900
 8067TIP3   OH245615   0.249   3.820  12.113 -0.1706 -0.2540 -0.5188
 8067TIP3    H145616   0.296   3.851  12.036 -0.3683 -0.7891 -0.8553
 8067TIP3    H245617   0.294   3.739  12.138  0.2751  0.2372  0.2894
 8068TIP3   OH245618   6.312   0.689  16.133 -0.1527  0.3721  0.2525
 8068TIP3    H145619   6.222   0.682  16.164  0.3594  1.2961  2.0272
 8068TIP3    H245620   6.306   0.749  16.058 -1.3913 -1.8315 -1.4659
 8069TIP3   OH245621   6.015   3.605  15.441  0.1563  0.2987  0.6993
 8069TIP3    H145622   6.021   3.601  15.345 -0.6493 -1.5692  0.6977
 8069TIP3    H245623   6.067   3.682  15.465  2.0156 -0.3287 -1.1018
 8070TIP3   OH245624   0.724   3.224   0.188  0.1748 -0.1925 -0.1037
 8070TIP3    H145625   0.763   3.306   0.221  0.4799  0.3258 -1.7005
 8070TIP3    H245626   0.777   3.202   0.111  0.7593 -2.4705  0.9030
 8071TIP3   OH245627   1.017   5.528  16.126  0.3083 -0.1216 -0.1320
 8071TIP3    H145628   1.087   5.587  16.097  0.4837 -0.3655 -0.2065
 8071TIP3    H245629   1.060   5.470  16.190  0.3853 -0.8463 -0.8395
 8072TIP3   OH245630   1.482   2.052  11.914  0.5655  0.3396 -0.1160
 8072TIP3    H145631   1.422   2.055  11.988  0.2646 -0.1859 -0.3342
 8072TIP3    H245632   1.479   2.140  11.877 -1.1276 -0.0214 -0.9437
 8073TIP3   OH245633   6.285   0.938  15.931  0.3967  0.2851  0.0492
 8073TIP3    H145634   6.380   0.933  15.926  0.4590  0.8674  0.6919
 8073TIP3    H245635   6.255   0.912  15.843  1.1255 -0.3227 -0.0243
 8074TIP3   OH245636   2.736   0.821   2.553 -0.2014  0.1941  0.1648
 8074TIP3    H145637   2.825   0.786   2.550 -0.1660  0.3135 -0.3736
 8074TIP3    H245638   2.745   0.906   2.596 -0.3207 -0.5366  1.6728
 8075TIP3   OH245639   2.672   3.688  10.692 -0.1618 -0.2990  0.3136
 8075TIP3    H145640   2.588   3.692  10.739 -0.0219  0.3471  0.5172
 8075TIP3    H245641   2.656   3.735  10.611 -0.2748 -1.0365 -0.0982
 8076TIP3   OH245642   0.994   1.363  12.896  0.4929 -0.5182  0.4343
 8076TIP3    H145643   1.063   1.426  12.916  0.0065 -0.1853  1.0997
 8076TIP3    H245644   0.913   1.406  12.926  0.2616 -1.8360  1.7450
 8077TIP3   OH245645   1.715   5.063  11.140 -0.0400  0.0638 -0.1722
 8077TIP3    H145646   1.770   5.022  11.074 -0.2645  1.7906 -1.4611
 8077TIP3    H245647   1.628   5.065  11.101 -0.4752 -0.1772  0.7617
 8078TIP3   OH245648   2.787   0.772   5.574 -0.1573 -0.1801 -0.1634
 8078TIP3    H145649   2.693   0.768   5.559 -0.3608  0.0469  1.0482
 8078TIP3    H245650   2.825   0.757   5.487 -1.2718 -2.3740 -0.3131
 8079TIP3   OH245651   4.617   1.089  16.029  0.4583  0.0479  0.5065
 8079TIP3    H145652   4.629   1.009  15.978  2.5040 -0.7720  2.1693
 8079TIP3    H245653   4.704   1.106  16.067 -0.1255  2.6511  0.7647
 8080TIP3   OH245654   5.151   0.541  17.226  0.3635 -0.5302  0.0677
 8080TIP3    H145655   5.194   0.625  17.243 -0.6746  0.1356 -0.5628
 8080TIP3    H245656   5.115   0.515  17.311 -0.2111  0.1717  0.0408
 8081TIP3   OH245657   2.988   0.504  15.112  0.4811 -0.0168 -0.4554
 8081TIP3    H145658   2.949   0.443  15.174  0.6389 -0.4381 -0.7695
 8081TIP3    H245659   3.074   0.468  15.093  1.5664  1.5750  1.2113
 8082TIP3   OH245660   2.712   6.397   4.632  0.4032 -0.0150  0.1434
 8082TIP3    H145661   2.688   6.323   4.576 -0.4870  0.0929  0.3744
 8082TIP3    H245662   2.639   6.458   4.623 -0.6130 -0.7650  2.7793
 8083TIP3   OH245663   6.101   1.811   1.740  0.3888 -0.2569 -0.4314
 8083TIP3    H145664   6.120   1.717   1.743 -0.7492 -0.4359  1.2120
 8083TIP3    H245665   6.006   1.817   1.741  0.4137  0.8968 -1.8912
 8084TIP3   OH245666   1.983   5.072  13.928 -0.7635  0.3510 -0.5336
 8084TIP3    H145667   2.078   5.066  13.932 -0.8275 -1.0884 -0.8411
 8084TIP3    H245668   1.963   5.076  13.834 -1.0450 -0.2193 -0.5010
 8085TIP3   OH245669   6.427   6.485  13.142 -0.0867 -0.8852 -0.4311
 8085TIP3    H145670   6.393   6.411  13.193  0.5047 -0.1265  1.0977
 8085TIP3    H245671   6.450   6.551  13.208 -0.3881  0.5736 -1.7578
 8086TIP3   OH245672   6.296   5.273   1.426 -0.0279 -0.5043 -0.8049
 8086TIP3    H145673   6.234   5.257   1.355 -0.5200  1.4243 -0.8540
 8086TIP3    H245674   6.357   5.338   1.390  0.2962 -0.2448  0.1980
 8087TIP3   OH245675   5.499   6.534  15.198 -0.4488  0.1350 -0.8484
 8087TIP3    H145676   5.464   6.568  15.116 -2.1581  1.4318  0.3766
 8087TIP3    H245677   5.586   6.574  15.205 -0.9873  1.4032 -1.2001
 8088TIP3   OH245678   6.264   0.147  13.924 -0.0277 -0.1337 -0.2199
 8088TIP3    H145679   6.179   0.149  13.882  0.5814  1.5595 -1.4446
 8088TIP3    H245680   6.247   0.114  14.012 -1.8412 -0.3778 -0.6493
 8089TIP3   OH245681   1.380   6.632   0.122  0.7155 -0.1320  0.5023
 8089TIP3    H145682   1.332   6.630   0.039  0.9023 -0.9726  0.4138
 8089TIP3    H245683   1.399   6.725   0.136  0.2798  0.0639 -0.1606
 8090TIP3   OH245684   5.542   5.420  13.749 -0.3764  0.2745  0.0587
 8090TIP3    H145685   5.595   5.385  13.678 -2.1027 -0.4436 -0.9200
 8090TIP3    H245686   5.505   5.342  13.791  0.0040  0.7302  1.2401
 8091TIP3   OH245687   6.401   2.143   1.875 -0.5510 -0.2839  0.1135
 8091TIP3    H145688   6.431   2.110   1.790  1.2077  0.1988  0.5274
 8091TIP3    H245689   6.311   2.111   1.882  0.1689 -2.6540 -0.7374
 8092TIP3   OH245690   2.111   6.460   1.617  0.5427  0.7667  0.1567
 8092TIP3    H145691   2.152   6.388   1.570  1.1008 -0.8579  3.0486
 8092TIP3    H245692   2.183   6.501   1.665 -0.3868  1.0449  1.3133
 8093TIP3   OH245693   2.700   6.614  11.223 -0.0088 -0.1795  0.1736
 8093TIP3    H145694   2.653   6.555  11.164  0.6426  0.3898 -0.9308
 8093TIP3    H245695   2.793   6.594  11.208  0.2525  1.8861 -1.0069
 8094TIP3   OH245696   1.182   1.028   2.811  0.2414  0.5360  0.2005
 8094TIP3    H145697   1.197   1.061   2.899  1.0621  1.2152 -0.1908
 8094TIP3    H245698   1.254   0.968   2.794 -0.0889  0.1619  0.1120
 8095TIP3   OH245699   0.698   6.636   2.851 -0.3126 -0.1051  0.2860
 8095TIP3    H145700   0.716   6.730   2.843  1.6961 -0.3749  1.3126
 8095TIP3    H245701   0.611   6.625   2.811  0.3816  1.8124 -1.8676
 8096TIP3   OH245702   6.694   6.768   0.169 -0.4450  0.0765 -0.0067
 8096TIP3    H145703   6.637   6.778   0.093 -0.7502  2.7658  0.5201
 8096TIP3    H245704   6.658   6.692   0.216 -1.2130 -0.6208 -1.6837
 8097TIP3   OH245705   3.754   2.823   3.081  0.3292 -0.6186  0.3649
 8097TIP3    H145706   3.679   2.787   3.034  0.2157  0.6743 -0.4663
 8097TIP3    H245707   3.737   2.800   3.173 -0.8563 -0.7431  0.1268
 8098TIP3   OH245708   4.848   4.370  12.732 -0.2449 -0.0637 -0.4473
 8098TIP3    H145709   4.919   4.427  12.761 -1.5378  0.7748  1.1118
 8098TIP3    H245710   4.837   4.306  12.802 -0.7769 -0.4399 -0.8636
 8099TIP3   OH245711   4.963   2.473   0.300 -0.5520 -0.0547 -0.0419
 8099TIP3    H145712   4.973   2.522   0.381  1.3587 -1.2943  0.4812
 8099TIP3    H245713   4.945   2.383   0.327  2.9281 -1.0704 -0.9442
 8100TIP3   OH245714   3.729   5.511   5.158  0.1969  0.0587  0.1717
 8100TIP3    H145715   3.732   5.447   5.086 -0.4636 -0.4559  0.6088
 8100TIP3    H245716   3.646   5.494   5.202  0.5697  0.4311  1.0145
 8101TIP3   OH245717   6.145   4.198  10.758 -0.3754 -0.0462 -0.3928
 8101TIP3    H145718   6.061   4.176  10.799 -0.8107  1.0420 -0.6893
 8101TIP3    H245719   6.210   4.171  10.822 -0.8998 -1.9223 -0.6294
 8102TIP3   OH245720   5.249   0.680  12.581  0.1605 -0.2514 -0.2261
 8102TIP3    H145721   5.321   0.694  12.519  0.3620 -2.7257 -0.5762
 8102TIP3    H245722   5.173   0.662  12.526  0.1277 -1.4927  0.2174
 8103TIP3   OH245723   1.391   4.110   4.750 -0.0796 -0.0234 -0.0593
 8103TIP3    H145724   1.474   4.151   4.724 -0.9733  2.0223  0.2662
 8103TIP3    H245725   1.388   4.120   4.845 -0.4838 -0.5525 -0.0131
 8104TIP3   OH245726   6.234   5.941   1.542  0.0691  0.3529  0.4117
 8104TIP3    H145727   6.293   5.982   1.478 -0.8666  1.5957  0.3200
 8104TIP3    H245728   6.230   6.003   1.614 -0.1982 -0.2662  0.9319
 8105TIP3   OH245729   6.643   5.554  12.885 -0.0844  0.4132  0.6730
 8105TIP3    H145730   6.646   5.459  12.875  2.1597  0.7090 -1.9561
 8105TIP3    H245731   6.685   5.570  12.969 -1.5826 -0.9600  1.7280
 8106TIP3   OH245732   6.382   6.413  14.596 -0.2202 -0.0961  0.5264
 8106TIP3    H145733   6.396   6.323  14.565  0.4381  0.9373 -2.3431
 8106TIP3    H245734   6.470   6.448  14.611 -0.4287  0.4579  0.4765
 8107TIP3   OH245735   5.037   0.122  12.939 -0.1653 -0.4855  0.0374
 8107TIP3    H145736   5.124   0.136  12.900 -0.5272  1.5778 -0.0981
 8107TIP3    H245737   5.017   0.204  12.983 -0.8173 -1.9512  2.5989
 8108TIP3   OH245738   5.582   5.204   4.629 -0.2365  0.2127 -0.6652
 8108TIP3    H145739   5.581   5.155   4.711  0.5504  0.2941 -0.6041
 8108TIP3    H245740   5.672   5.196   4.597 -0.8391 -0.7889 -2.1119
 8109TIP3   OH245741   5.138   4.082   4.610  0.3436 -0.3602  0.1025
 8109TIP3    H145742   5.091   4.057   4.531  0.1276 -3.1148  1.0589
 8109TIP3    H245743   5.123   4.176   4.619 -2.4634 -0.6541 -1.2499
 8110TIP3   OH245744   5.832   6.509   3.506  0.0290  0.1076  0.2361
 8110TIP3    H145745   5.765   6.530   3.570  0.0635 -0.4051  0.4385
 8110TIP3    H245746   5.788   6.454   3.441 -0.1119  0.9597 -0.4079
 8111TIP3   OH245747   5.758   2.138  13.331  0.2805  0.6658  0.0652
 8111TIP3    H145748   5.805   2.063  13.294  0.6217  0.3621  1.0956
 8111TIP3    H245749   5.744   2.197  13.257  0.3784 -0.2294 -0.6696
 8112TIP3   OH245750   1.868   3.156  16.548  0.5992  0.0856 -1.0295
 8112TIP3    H145751   1.921   3.102  16.490  1.4129 -0.7973  0.5165
 8112TIP3    H245752   1.779   3.147  16.515  0.4206 -3.6963  0.2829
 8113TIP3   OH245753   1.652   6.081   0.210  0.3783  0.0767 -1.0513
 8113TIP3    H145754   1.689   5.994   0.196  0.3701  0.5053 -4.0233
 8113TIP3    H245755   1.622   6.080   0.301  0.3755 -3.0216 -1.0392
 8114TIP3   OH245756   3.938   6.129   5.262 -0.2236  0.2008 -0.3943
 8114TIP3    H145757   3.843   6.127   5.276  0.0427 -1.5276  1.4388
 8114TIP3    H245758   3.960   6.040   5.236  1.1020  0.1396  0.8508
 8115TIP3   OH245759   2.705   4.015  14.239  0.1712 -0.0601  0.1467
 8115TIP3    H145760   2.762   4.089  14.258 -0.9691  0.9930 -0.4926
 8115TIP3    H245761   2.661   3.996  14.322  0.6624 -0.2136  0.3762
 8116TIP3   OH245762   1.440   2.175  12.323 -0.7115  0.4707  0.6999
 8116TIP3    H145763   1.533   2.151  12.330 -0.5276  0.8868 -0.1862
 8116TIP3    H245764   1.401   2.103  12.273 -0.9853  0.0121  1.5681
 8117TIP3   OH245765   5.977   5.593   1.793  0.6590 -0.0919 -0.5846
 8117TIP3    H145766   6.004   5.678   1.828  1.1419 -0.4232 -0.1485
 8117TIP3    H245767   5.928   5.614   1.714  1.6188  0.5597 -1.0209
 8118TIP3   OH245768   2.462   2.336   0.774 -0.6705  0.7065  0.5410
 8118TIP3    H145769   2.429   2.289   0.697  0.2830 -0.5357  0.8691
 8118TIP3    H245770   2.547   2.295   0.792 -0.1483  2.0847  1.2795
 8119TIP3   OH245771   3.784   4.018   0.784 -0.6148 -0.2316 -0.1953
 8119TIP3    H145772   3.810   3.962   0.710  1.6199  0.5164 -0.0263
 8119TIP3    H245773   3.840   4.095   0.776 -1.6100  0.6557  1.2604
 8120TIP3   OH245774   3.135   4.790  15.429 -0.5453 -0.4849 -0.2100
 8120TIP3    H145775   3.207   4.840  15.468 -2.3774  0.5639  1.9465
 8120TIP3    H245776   3.128   4.712  15.485  0.3746 -1.7359 -1.7925
 8121TIP3   OH245777   1.054   0.192   5.754  0.0069  0.1365  0.3024
 8121TIP3    H145778   1.138   0.147   5.755  0.5576  1.1260 -0.5721
 8121TIP3    H245779   1.044   0.228   5.842  1.4518  1.7706 -0.2009
 8122TIP3   OH245780   1.349   6.532   3.057  0.5350  0.1309  0.1321
 8122TIP3    H145781   1.366   6.487   3.140  1.3599 -1.5331 -0.8941
 8122TIP3    H245782   1.296   6.608   3.080  0.4861 -0.4959  2.1339
 8123TIP3   OH245783   4.722   0.211   3.304 -0.0050 -0.0083  0.7146
 8123TIP3    H145784   4.668   0.268   3.249  1.2757  0.2695 -0.2682
 8123TIP3    H245785   4.733   0.131   3.253 -0.8518 -0.7002  1.6122
 8124TIP3   OH245786   2.232   5.895  15.315 -0.4994 -0.1239 -0.2684
 8124TIP3    H145787   2.296   5.893  15.386 -0.4844 -2.5744 -0.3226
 8124TIP3    H245788   2.279   5.937  15.243  0.8068 -1.1797 -0.0584
 8125TIP3   OH245789   1.533   5.715   3.024  0.0987 -0.5819  0.6044
 8125TIP3    H145790   1.592   5.790   3.027  0.4734 -0.8401 -0.0281
 8125TIP3    H245791   1.518   5.700   2.931 -0.2648 -1.0629  0.7359
 8126TIP3   OH245792   0.296   1.462  14.574 -0.1832 -0.1515 -0.2069
 8126TIP3    H145793   0.345   1.380  14.573 -1.4145 -0.9319  1.7349
 8126TIP3    H245794   0.245   1.460  14.493 -1.1034 -1.8536  0.4003
 8127TIP3   OH245795   1.173   2.285  11.208  0.4157  0.0473  0.6168
 8127TIP3    H145796   1.137   2.369  11.178  1.6634  0.2338 -0.3798
 8127TIP3    H245797   1.126   2.219  11.159  0.4807  0.2298  0.3097
 8128TIP3   OH245798   0.318   3.218  11.014  0.1249 -0.2275 -0.0247
 8128TIP3    H145799   0.381   3.240  10.946  0.5285  0.6179  0.6019
 8128TIP3    H245800   0.305   3.301  11.061 -0.8941 -0.5735  0.2984
 8129TIP3   OH245801   2.770   0.124  15.081  0.2528 -0.0980  0.0820
 8129TIP3    H145802   2.782   0.041  15.034  1.7310 -0.3558  0.8986
 8129TIP3    H245803   2.858   0.155  15.098 -0.2995  1.7349 -0.3401
 8130TIP3   OH245804   0.532   0.006  12.363  0.2515 -0.4743 -0.5048
 8130TIP3    H145805   0.470  -0.011  12.434  1.2373  3.0720  1.3178
 8130TIP3    H245806   0.616   0.019  12.407  1.3589 -0.4658 -2.5550
 8131TIP3   OH245807   0.498   1.615  11.695 -0.2953 -0.4448  0.3039
 8131TIP3    H145808   0.422   1.556  11.693  0.9394 -2.1444  2.0297
 8131TIP3    H245809   0.573   1.559  11.675  0.9204  0.5023  2.0966
 8132TIP3   OH245810   1.866   5.891  16.818  0.4168  0.1325  0.5975
 8132TIP3    H145811   1.834   5.968  16.864  0.3538 -0.3789  1.4229
 8132TIP3    H245812   1.796   5.826  16.829 -0.2674  0.4739 -1.4821
 8133TIP3   OH245813   2.413   1.462   5.059 -0.3624  0.1652 -0.2447
 8133TIP3    H145814   2.497   1.453   5.014 -0.7866  1.9866 -1.4330
 8133TIP3    H245815   2.367   1.380   5.042  0.9812 -0.6618  0.0452
 8134TIP3   OH245816   4.573   0.655   1.503  0.4184 -0.2742 -0.1573
 8134TIP3    H145817   4.504   0.624   1.561  0.5928  1.3864  0.9715
 8134TIP3    H245818   4.614   0.727   1.551  1.8010 -0.1164 -1.5453
 8135TIP3   OH245819   3.011   3.691   3.725 -0.2200  1.2480  0.2044
 8135TIP3    H145820   3.034   3.599   3.713  1.2637  1.7683 -1.0158
 8135TIP3    H245821   2.917   3.690   3.745 -0.2840 -0.4966 -0.1355
 8136TIP3   OH245822   2.303   0.632   2.881 -0.1528 -0.0480 -0.0194
 8136TIP3    H145823   2.337   0.655   2.967  0.8499  0.5807 -0.5818
 8136TIP3    H245824   2.293   0.536   2.884  0.6657 -0.1207  0.5080
 8137TIP3   OH245825   5.978   1.424  15.303 -0.0910 -0.2214  0.0043
 8137TIP3    H145826   6.010   1.466  15.382 -1.5837  0.0855  0.4697
 8137TIP3    H245827   6.042   1.446  15.236  0.5052  0.6123  0.8387
 8138TIP3   OH245828   5.078   5.370   2.043 -0.1448  0.9536  0.1557
 8138TIP3    H145829   5.095   5.302   1.978  1.7715  2.7064 -1.2496
 8138TIP3    H245830   4.986   5.392   2.031 -0.1674  0.2718 -1.0198
 8139TIP3   OH245831   0.759   1.459   0.979  0.0026  0.0531  0.2763
 8139TIP3    H145832   0.706   1.480   0.902 -0.0643 -0.1251  0.2755
 8139TIP3    H245833   0.783   1.545   1.015  2.4730  0.2205 -1.5947
 8140TIP3   OH245834   6.405   0.109   3.632 -0.1965 -0.4000 -0.3869
 8140TIP3    H145835   6.368   0.059   3.561 -0.0119 -2.6587  1.0631
 8140TIP3    H245836   6.439   0.044   3.693  2.1366  1.5023  0.4684
 8141TIP3   OH245837   2.787   6.559  13.855 -0.2891 -0.6690  0.2346
 8141TIP3    H145838   2.707   6.533  13.808 -0.5143  1.0764 -0.4002
 8141TIP3    H245839   2.857   6.508  13.814 -0.9773 -1.6493  0.2755
 8142TIP3   OH245840   3.681   5.114   4.072  0.0003  0.6709  0.1855
 8142TIP3    H145841   3.730   5.033   4.062 -1.1660  0.1214 -1.3160
 8142TIP3    H245842   3.720   5.157   4.148  0.9932 -1.0281  0.6577
 8143TIP3   OH245843   2.231   4.120  13.267  0.3940  0.6303 -0.1553
 8143TIP3    H145844   2.177   4.080  13.199 -1.0434 -1.2541  2.0371
 8143TIP3    H245845   2.320   4.114  13.233 -0.2091 -1.0040 -1.5362
 8144TIP3   OH245846   0.031   0.001   1.415  0.4612  0.3828 -0.6244
 8144TIP3    H145847   0.119   0.032   1.395 -0.3959  1.8671 -2.2325
 8144TIP3    H245848   0.038  -0.094   1.408  1.6641  0.5415 -1.9889
 8145TIP3   OH245849   1.182   3.982   0.486  0.0939  0.0918  0.1632
 8145TIP3    H145850   1.238   3.939   0.552 -0.7165  1.2608  1.6578
 8145TIP3    H245851   1.212   3.947   0.403  1.7598 -0.7692  1.0897
 8146TIP3   OH245852   2.313   3.995   0.932 -0.2171 -0.1174 -0.7693
 8146TIP3    H145853   2.240   3.950   0.891 -1.3174  0.9846 -0.0373
 8146TIP3    H245854   2.369   4.022   0.859 -1.3011  0.3542 -1.4425
 8147TIP3   OH245855   0.752   2.401   4.202 -0.5575  0.4206  0.1234
 8147TIP3    H145856   0.780   2.492   4.208  1.2108 -0.1905  2.1797
 8147TIP3    H245857   0.756   2.369   4.293 -1.0525 -1.7204 -0.5691
 8148TIP3   OH245858   0.471   2.867   1.148  0.0758 -0.9917 -0.5913
 8148TIP3    H145859   0.459   2.946   1.095 -0.3352 -1.3893 -1.0877
 8148TIP3    H245860   0.413   2.802   1.109 -0.0348 -1.3690  0.1785
 8149TIP3   OH245861   6.613   6.247  12.113 -0.0120  0.8497  0.4163
 8149TIP3    H145862   6.556   6.209  12.180 -0.8897  0.4544 -0.5433
 8149TIP3    H245863   6.701   6.220  12.138 -0.4571 -0.2886  0.7664
 8150TIP3   OH245864   3.225   0.503  14.820  0.2508 -0.6475 -0.1669
 8150TIP3    H145865   3.296   0.564  14.840  0.6991 -1.4989  0.9064
 8150TIP3    H245866   3.146   0.557  14.821  0.8022  0.1894 -0.7529
 8151TIP3   OH245867   4.519   2.158   2.241  0.2294 -0.0464 -0.0748
 8151TIP3    H145868   4.490   2.091   2.303  0.9372 -0.1220  0.1813
 8151TIP3    H245869   4.532   2.112   2.159  0.2961 -0.1468 -0.0082
 8152TIP3   OH245870   5.121   5.337   3.730 -0.3086 -0.4100  0.2116
 8152TIP3    H145871   5.062   5.355   3.657  1.7696 -0.8990 -1.6002
 8152TIP3    H245872   5.066   5.349   3.808 -1.7531  3.1785 -1.2672
 8153TIP3   OH245873   2.489   1.088  12.842  0.6510 -0.0964  0.1504
 8153TIP3    H145874   2.525   1.154  12.901  2.7223 -1.8374  0.8866
 8153TIP3    H245875   2.456   1.019  12.900  0.1655 -0.5557 -0.6555
 8154TIP3   OH245876   0.555   5.016  14.511  0.3670  0.0018  0.8219
 8154TIP3    H145877   0.525   5.043  14.424  0.2577 -1.9047  0.2530
 8154TIP3    H245878   0.532   5.090  14.567 -1.4357  0.4129 -0.4001
 8155TIP3   OH245879   6.016   3.718  11.335  0.1191 -0.3190  0.8296
 8155TIP3    H145880   6.025   3.741  11.427  3.2311 -1.6068  0.9021
 8155TIP3    H245881   6.066   3.785  11.288 -1.7821  0.5652  0.0340
 8156TIP3   OH245882   0.846   3.474  15.139  0.2604  0.3163  0.2290
 8156TIP3    H145883   0.769   3.419  15.147  0.2167  0.4527  0.7196
 8156TIP3    H245884   0.909   3.421  15.090  0.4615 -0.4183  1.2754
 8157TIP3   OH245885   5.154   1.258   2.692 -0.5586 -0.0449  0.7238
 8157TIP3    H145886   5.151   1.290   2.782  1.4829  0.1301  0.7576
 8157TIP3    H245887   5.191   1.331   2.642 -0.5679 -0.5609 -0.0556
 8158TIP3   OH245888   6.657   3.327   2.056  0.4027  0.0355  0.1384
 8158TIP3    H145889   6.657   3.332   2.151 -0.1401  0.5757  0.1120
 8158TIP3    H245890   6.657   3.419   2.027  1.5763 -0.1175 -0.3838
 8159TIP3   OH245891   4.557   6.333   1.126 -0.1756 -0.1130 -0.8618
 8159TIP3    H145892   4.545   6.240   1.144 -1.3486  0.3064  0.6627
 8159TIP3    H245893   4.486   6.376   1.175 -1.5080  1.3557 -3.9530
 8160TIP3   OH245894   2.808   4.514   0.313 -0.2076  0.4505 -0.2867
 8160TIP3    H145895   2.761   4.597   0.319 -1.0563 -0.1415  1.6256
 8160TIP3    H245896   2.850   4.516   0.227 -2.9565  1.4296 -1.6753
 8161TIP3   OH245897   1.038   1.803  15.074 -0.9241 -0.1340 -0.0454
 8161TIP3    H145898   1.102   1.774  15.139 -2.2864 -2.1034  0.4575
 8161TIP3    H245899   1.063   1.758  14.993 -1.5306 -0.7579  0.1058
 8162TIP3   OH245900   0.629   1.050  13.769 -0.2844  0.2793 -0.8473
 8162TIP3    H145901   0.638   1.141  13.799  0.5634 -0.4923  1.3646
 8162TIP3    H245902   0.550   1.018  13.813 -0.5054 -0.1047 -1.5174
 8163TIP3   OH245903   0.597   4.299   0.089  0.3189 -0.1651 -0.2816
 8163TIP3    H145904   0.539   4.361   0.044 -0.8066  0.0013  1.3258
 8163TIP3    H245905   0.544   4.267   0.162  0.7426 -3.3278 -1.2814
 8164TIP3   OH245906   2.580   2.602   2.030 -0.2567 -0.2117  0.1898
 8164TIP3    H145907   2.573   2.548   2.109  0.3015  0.7336  0.9096
 8164TIP3    H245908   2.540   2.686   2.055  0.5217  0.3225 -0.3084
 8165TIP3   OH245909   5.547   5.665  13.558  0.2279 -0.2214  0.0299
 8165TIP3    H145910   5.452   5.654  13.550  0.0031  0.9974  0.9249
 8165TIP3    H245911   5.558   5.725  13.632  1.6487  0.7838 -0.9897
 8166TIP3   OH245912   6.311   6.762   3.149  0.0267  0.1493  0.1803
 8166TIP3    H145913   6.262   6.760   3.067 -0.9174  0.7615  0.7195
 8166TIP3    H245914   6.391   6.713   3.130 -0.1440  0.3480 -1.1256
 8167TIP3   OH245915   0.673   4.520   5.943 -0.3054 -0.0473 -0.2272
 8167TIP3    H145916   0.614   4.591   5.969  0.9898 -0.5385  4.3737
 8167TIP3    H245917   0.757   4.563   5.930 -0.1093 -0.3754 -0.0323
 8168TIP3   OH245918   3.194   5.725   4.777  0.1946  0.0742 -0.1428
 8168TIP3    H145919   3.115   5.701   4.727 -1.1571  1.4775  1.2511
 8168TIP3    H245920   3.221   5.809   4.738  0.3265  0.1595  0.1376
 8169TIP3   OH245921   3.620   0.848   0.438 -0.3936 -0.0535  0.1685
 8169TIP3    H145922   3.599   0.907   0.365 -0.5587  1.1078  1.1423
 8169TIP3    H245923   3.596   0.898   0.516  0.6818 -0.9192  1.0601
 8170TIP3   OH245924   1.018   4.268   0.701  0.1329  0.2887  0.4763
 8170TIP3    H145925   0.971   4.337   0.655  1.3993  1.1212  0.4082
 8170TIP3    H245926   1.062   4.313   0.774  0.4663 -0.5415  0.8020
 8171TIP3   OH245927   6.452   3.733  12.355 -0.1463 -0.1280 -0.4697
 8171TIP3    H145928   6.527   3.682  12.324 -0.0456 -1.8688  2.4656
 8171TIP3    H245929   6.378   3.701  12.302  0.6782 -0.3241 -1.5164
 8172TIP3   OH245930   0.669   5.377   1.306  0.0321  0.0520  0.4438
 8172TIP3    H145931   0.618   5.296   1.308  1.3603 -0.8630 -0.8163
 8172TIP3    H245932   0.760   5.347   1.302  0.6076  1.6291  1.2369
 8173TIP3   OH245933   1.324   4.095  11.421  0.2340  0.2364 -0.2076
 8173TIP3    H145934   1.258   4.082  11.353  0.9537  0.4461 -0.9536
 8173TIP3    H245935   1.292   4.044  11.496 -2.7851  3.3751  0.8125
 8174TIP3   OH245936   0.589   0.540   0.322 -0.1783  0.3302 -0.1781
 8174TIP3    H145937   0.651   0.479   0.281  1.4774  1.1760  0.9717
 8174TIP3    H245938   0.589   0.616   0.264 -2.2161 -0.7300 -1.5935
 8175TIP3   OH245939   1.654   2.868  11.916 -0.3194 -0.3162 -0.3300
 8175TIP3    H145940   1.585   2.827  11.969 -1.2907  0.0475 -1.3027
 8175TIP3    H245941   1.733   2.820  11.939 -0.5850  0.2411  1.9479
 8176TIP3   OH245942   4.770   2.757   4.470  0.0915 -0.0661  0.0800
 8176TIP3    H145943   4.781   2.755   4.375  2.8293 -2.5708  0.3701
 8176TIP3    H245944   4.718   2.836   4.487  0.7122  1.1619 -3.3533
 8177TIP3   OH245945   2.570   3.083  15.967  0.4890 -0.6224  0.0941
 8177TIP3    H145946   2.541   3.170  15.995  0.1485 -1.3034  1.8561
 8177TIP3    H245947   2.489   3.037  15.942  0.7752 -0.0431 -2.0582
 8178TIP3   OH245948   6.479   4.366   4.115  0.1565  0.6271 -0.6369
 8178TIP3    H145949   6.539   4.406   4.051  0.4470 -0.4424 -1.0342
 8178TIP3    H245950   6.392   4.394   4.086  0.3627  1.0157 -0.8903
 8179TIP3   OH245951   3.015   4.532   4.893 -0.1557  0.0968  0.3438
 8179TIP3    H145952   3.024   4.441   4.924  1.3534  0.0561 -0.1750
 8179TIP3    H245953   2.973   4.524   4.808  1.1498 -0.2231 -0.2849
 8180TIP3   OH245954   4.542   1.511   1.851  0.3749 -0.3895 -0.1589
 8180TIP3    H145955   4.543   1.491   1.945  1.1628 -1.2968 -0.3614
 8180TIP3    H245956   4.570   1.602   1.846  1.1232 -0.5816  0.4331
 8181TIP3   OH245957   5.334   1.397   3.735  0.5229 -0.3252 -0.3042
 8181TIP3    H145958   5.275   1.321   3.732  0.0978  0.0159 -0.7580
 8181TIP3    H245959   5.287   1.465   3.687  0.4708  0.5298  0.9466
 8182TIP3   OH245960   6.727   3.504   1.401  0.1222  0.6311  0.4778
 8182TIP3    H145961   6.735   3.410   1.413  0.5392  0.7857  1.4501
 8182TIP3    H245962   6.757   3.520   1.311 -1.6904 -0.3753 -0.3306
 8183TIP3   OH245963   0.168   5.269  10.583  0.2911 -0.3791  0.2898
 8183TIP3    H145964   0.099   5.205  10.563  0.5823 -0.5151 -0.3010
 8183TIP3    H245965   0.240   5.217  10.618  0.4075 -0.3357  0.1140
 8184TIP3   OH245966   2.751   0.676  17.110  0.0259  0.1787 -0.5643
 8184TIP3    H145967   2.717   0.606  17.054 -2.3890 -0.6874  1.9135
 8184TIP3    H245968   2.793   0.630  17.183  1.6631  1.3176 -0.7547
 8185TIP3   OH245969   6.518   1.878  15.348 -0.2299  0.1068  0.5622
 8185TIP3    H145970   6.540   1.965  15.315 -1.4227  0.3130  0.2680
 8185TIP3    H245971   6.452   1.845  15.286 -1.5235 -0.0407  1.9753
 8186TIP3   OH245972   3.901   3.414   5.544  0.3286 -0.8062 -0.1066
 8186TIP3    H145973   3.816   3.457   5.555  0.2445 -0.7142 -1.1305
 8186TIP3    H245974   3.962   3.485   5.527  0.2244 -1.0561 -1.5896
 8187TIP3   OH245975   0.230   0.467  11.797  0.2933  0.3469 -0.6634
 8187TIP3    H145976   0.197   0.527  11.863 -1.7359  2.4526 -3.4464
 8187TIP3    H245977   0.301   0.516  11.754  0.7221 -0.4805 -0.9013
 8188TIP3   OH245978   4.471   5.546   1.209 -0.2984 -0.1689  0.0082
 8188TIP3    H145979   4.469   5.640   1.229 -1.7658  0.2865 -2.0427
 8188TIP3    H245980   4.378   5.522   1.201  0.1020 -1.5890 -0.4248
 8189TIP3   OH245981   5.530   4.024  11.245 -0.3825  0.3104  0.1922
 8189TIP3    H145982   5.622   4.009  11.226 -0.4230 -0.1562  0.3768
 8189TIP3    H245983   5.485   3.945  11.215 -0.8148  0.8469 -0.5953
 8190TIP3   OH245984   4.536   4.149   1.723  0.5752 -0.4327 -0.3153
 8190TIP3    H145985   4.515   4.224   1.668  2.8347  0.1308 -0.4226
 8190TIP3    H245986   4.475   4.155   1.796 -0.4866  0.4496 -1.2577
 8191TIP3   OH245987   4.434   3.833   3.075  0.1029 -0.2000 -0.2164
 8191TIP3    H145988   4.363   3.787   3.031  0.8705 -0.3433 -1.3433
 8191TIP3    H245989   4.483   3.764   3.121  1.0587 -0.4863 -1.6317
 8192TIP3   OH245990   2.306   6.499   1.824  0.0350 -0.4254 -0.0043
 8192TIP3    H145991   2.274   6.544   1.903  2.5444  2.5468 -0.5490
 8192TIP3    H245992   2.325   6.410   1.853 -1.1913 -0.0085  2.1949
 8193TIP3   OH245993   6.352   0.606  11.914 -0.3894 -0.5703  0.6364
 8193TIP3    H145994   6.282   0.624  11.852 -0.2322 -1.7402  0.0924
 8193TIP3    H245995   6.397   0.530  11.877  1.4669  0.4583  0.7205
 8194TIP3   OH245996   2.405   4.176   0.291 -0.3370 -0.8076 -0.6445
 8194TIP3    H145997   2.336   4.154   0.229  0.3799 -1.0402 -1.3612
 8194TIP3    H245998   2.362   4.171   0.377 -1.4004 -0.1860 -1.1323
 8195TIP3   OH245999   0.173   2.258  12.939  0.1095  0.1883 -0.0149
 8195TIP3    H146000   0.260   2.282  12.908  0.5003  0.9187  1.6262
 8195TIP3    H246001   0.118   2.262  12.860  0.9528  2.6276 -0.5212
 8196TIP3   OH246002   3.119   4.518  14.497  0.4391  0.1654  0.2148
 8196TIP3    H146003   3.062   4.504  14.572  0.3980  1.0141  0.3408
 8196TIP3    H246004   3.060   4.514  14.421  0.2861  0.5597  0.3128
 8197TIP3   OH246005   5.972   0.395  15.607  0.2372  0.1324 -0.2030
 8197TIP3    H146006   5.919   0.474  15.607  0.9654  0.6231 -0.8061
 8197TIP3    H246007   6.034   0.407  15.679 -0.4706 -0.4529  0.5172
 8198TIP3   OH246008   5.913   4.500  12.285 -0.0104 -0.0077 -0.0061
 8198TIP3    H146009   5.829   4.523  12.245  0.2130  0.1281 -0.3999
 8198TIP3    H246010   5.897   4.506  12.379 -0.3275  0.4463 -0.0855
 8199TIP3   OH246011   1.838   1.364  13.243  1.1622  0.0435 -0.2896
 8199TIP3    H146012   1.783   1.413  13.181  0.3203  0.0823  0.4771
 8199TIP3    H246013   1.823   1.407  13.327  2.5337  0.1768 -0.1019
 8200TIP3   OH246014   5.551   1.251  14.669 -0.0921  0.8486  0.3268
 8200TIP3    H146015   5.618   1.182  14.672 -0.3591  0.6312  2.0133
 8200TIP3    H246016   5.586   1.316  14.609  0.2459 -0.6745 -1.1750
 8201TIP3   OH246017   5.697   6.009  13.990  0.0075 -0.4619 -0.5521
 8201TIP3    H146018   5.677   6.092  13.947  0.2247  1.0156  2.1223
 8201TIP3    H246019   5.614   5.962  13.992  0.0264 -0.6562 -2.7025
 8202TIP3   OH246020   2.508   0.474   4.489 -0.1524  0.2010  0.4353
 8202TIP3    H146021   2.452   0.403   4.519  0.4431  0.5143  2.4014
 8202TIP3    H246022   2.597   0.441   4.502  0.1273  0.5533 -0.5339
 8203TIP3   OH246023   2.647   5.421  12.746 -0.2671  0.5019 -0.1521
 8203TIP3    H146024   2.721   5.370  12.713 -0.0896  0.7634 -0.1607
 8203TIP3    H246025   2.687   5.488  12.801 -0.6545 -1.1305  2.1931
 8204TIP3   OH246026   1.072   6.235  10.491  0.2853 -0.1333 -0.2437
 8204TIP3    H146027   1.012   6.300  10.529 -0.5864 -0.9095 -0.2919
 8204TIP3    H246028   1.017   6.182  10.433  1.1663 -0.3800 -0.8646
 8205TIP3   OH246029   2.565   3.785  12.385 -0.2437 -0.3641  0.6919
 8205TIP3    H146030   2.547   3.774  12.479  0.7159  1.4186  1.1129
 8205TIP3    H246031   2.568   3.880  12.372 -2.7920 -0.5412 -1.6536
 8206TIP3   OH246032   5.662   3.316   2.967  0.2271  0.0441 -0.2128
 8206TIP3    H146033   5.602   3.319   2.893  0.0503 -0.8877 -0.1165
 8206TIP3    H246034   5.736   3.369   2.939  0.5518 -0.9989 -1.4200
 8207TIP3   OH246035   2.178   6.257  13.646 -0.1401 -0.3168  0.2713
 8207TIP3    H146036   2.195   6.348  13.622 -1.0641  0.4689  2.3633
 8207TIP3    H246037   2.259   6.226  13.685  0.1140 -0.3266 -0.2677
 8208TIP3   OH246038   3.885   0.357   2.033 -0.1461 -0.6459 -0.0176
 8208TIP3    H146039   3.791   0.349   2.016 -0.5471  0.1283  1.7091
 8208TIP3    H246040   3.926   0.311   1.960 -1.8109  0.3476 -1.6565
 8209TIP3   OH246041   4.288   6.619   3.800 -0.5821 -0.2048 -0.3856
 8209TIP3    H146042   4.382   6.602   3.802 -0.8990 -2.1703 -0.6810
 8209TIP3    H246043   4.278   6.708   3.833  1.3967  0.1048 -0.5839
 8210TIP3   OH246044   2.780   0.731  14.282  0.0657  0.4399  0.0478
 8210TIP3    H146045   2.845   0.664  14.299  0.4390  0.4840 -1.1591
 8210TIP3    H246046   2.827   0.800  14.235 -0.8461  0.4322 -0.9199
 8211TIP3   OH246047   4.136   6.582   0.170  0.0161 -0.2251  0.4863
 8211TIP3    H146048   4.110   6.593   0.261  0.3362 -0.5291  0.6136
 8211TIP3    H246049   4.199   6.510   0.171 -3.2940 -3.2873 -0.5150
 8212TIP3   OH246050   5.683   0.214   0.471  0.3668 -0.2506 -0.2951
 8212TIP3    H146051   5.706   0.148   0.406  1.0649 -0.4858  0.1876
 8212TIP3    H246052   5.602   0.253   0.437  1.6803  0.8836 -2.2476
 8213TIP3   OH246053   5.835   0.341   0.129  0.3841 -0.1472 -0.0620
 8213TIP3    H146054   5.848   0.384   0.044  1.0896  0.0846  0.1621
 8213TIP3    H246055   5.784   0.404   0.180 -1.0734 -0.7710 -0.7047
 8214TIP3   OH246056   0.181   4.428  13.239 -0.4250 -0.4747 -0.2559
 8214TIP3    H146057   0.276   4.435  13.229 -0.4667  2.6926  0.9984
 8214TIP3    H246058   0.162   4.335  13.224  3.0455 -1.4535  0.9237
 8215TIP3   OH246059   4.167   6.634  12.918 -0.0843  0.4868 -1.3089
 8215TIP3    H146060   4.143   6.681  12.838 -0.7570  2.8179  0.2105
 8215TIP3    H246061   4.085   6.592  12.946 -0.4883  1.7433 -0.5292
 8216TIP3   OH246062   4.954   6.542   0.649 -0.1319 -0.0936 -0.0172
 8216TIP3    H146063   5.013   6.478   0.610  0.4839  0.4604 -0.0050
 8216TIP3    H246064   5.004   6.579   0.722  0.1628  1.6200 -1.0644
 8217TIP3   OH246065   0.991   1.115  13.564  0.4520 -0.7018  0.7429
 8217TIP3    H146066   1.085   1.106  13.574  0.4639 -0.6003  0.7259
 8217TIP3    H246067   0.980   1.175  13.490  0.4031  0.6896  1.8410
 8218TIP3   OH246068   2.295   2.468  12.199  0.6465 -0.2055 -0.0001
 8218TIP3    H146069   2.250   2.525  12.137 -0.7876  1.7122  2.6706
 8218TIP3    H246070   2.230   2.403  12.224  1.3195 -1.1713 -0.7227
 8219TIP3   OH246071   4.829   4.554  14.876  0.6165 -0.3064 -0.0696
 8219TIP3    H146072   4.738   4.568  14.903  0.7756 -1.7583  1.2702
 8219TIP3    H246073   4.823   4.497  14.799  0.4276 -1.1937  0.5983
 8220TIP3   OH246074   5.652   2.407  12.904  0.1629 -0.1911 -0.1964
 8220TIP3    H146075   5.691   2.327  12.868 -1.5898 -0.9479 -0.4834
 8220TIP3    H246076   5.609   2.448  12.829  0.7335  0.8392  0.0342
 8221TIP3   OH246077   1.488   1.207   0.784  0.5297 -0.3950 -0.0851
 8221TIP3    H146078   1.476   1.302   0.789 -1.0328 -0.6017  0.2802
 8221TIP3    H246079   1.441   1.174   0.860  0.3187 -1.5421 -0.7157
 8222TIP3   OH246080   5.830   1.718  13.755 -0.1513  0.7772  0.4804
 8222TIP3    H146081   5.872   1.803  13.768 -1.0021  1.4059 -0.8144
 8222TIP3    H246082   5.740   1.732  13.786 -0.0143  0.0572  1.2071
 8223TIP3   OH246083   5.129   5.510   1.036  0.1554  0.4489  0.5372
 8223TIP3    H146084   5.134   5.546   1.124  1.2987 -0.2991  0.7877
 8223TIP3    H246085   5.171   5.424   1.043  0.6695  0.5798 -0.8362
 8224TIP3   OH246086   6.000   0.405   3.392 -0.2585  0.3116  0.2223
 8224TIP3    H146087   5.907   0.395   3.374 -0.4468 -0.2899  1.4837
 8224TIP3    H246088   6.039   0.322   3.363 -0.1641  0.4230  0.0286
 8225TIP3   OH246089   4.144   4.800  11.714  0.2476  0.3783  0.0337
 8225TIP3    H146090   4.145   4.834  11.804  0.1215 -1.8373  0.9087
 8225TIP3    H246091   4.051   4.781  11.697  0.3952 -0.1026 -0.2198
 8226TIP3   OH246092   2.263   2.257   3.674 -0.0374  0.0262 -0.8877
 8226TIP3    H146093   2.255   2.199   3.750 -1.2981  1.4432  0.0789
 8226TIP3    H246094   2.210   2.214   3.606 -0.0739 -0.5096 -0.5291
 8227TIP3   OH246095   5.053   2.342  15.065 -0.1145  0.0410  0.2986
 8227TIP3    H146096   5.072   2.362  14.974  0.3534  0.0843  0.4040
 8227TIP3    H246097   5.067   2.248  15.074 -1.9583 -0.2940 -0.1107
 8228TIP3   OH246098   6.063   6.080  15.280 -0.3148 -0.0375 -0.5334
 8228TIP3    H146099   6.066   6.140  15.355  1.1080  0.6774 -1.1282
 8228TIP3    H246100   6.035   6.136  15.207 -1.6938 -0.7286 -0.5411
 8229TIP3   OH246101   4.294   6.075  13.156 -0.2291  0.5527  0.1557
 8229TIP3    H146102   4.331   6.013  13.094  1.2757  0.9859  0.5936
 8229TIP3    H246103   4.201   6.078  13.135  0.3482  1.1713 -2.4911
 8230TIP3   OH246104   0.050   2.593  16.475  0.7388 -0.1303 -0.3164
 8230TIP3    H146105  -0.035   2.550  16.476  1.4783 -1.6247  1.1024
 8230TIP3    H246106   0.063   2.624  16.564  0.5583  2.3982 -1.1410
 8231TIP3   OH246107   1.982   0.489  15.373 -0.1421 -0.0919 -0.1217
 8231TIP3    H146108   1.943   0.426  15.435 -0.1536 -1.3848 -1.4140
 8231TIP3    H246109   2.067   0.511  15.412 -0.4804 -0.2896  0.7461
 8232TIP3   OH246110   1.789   2.740  15.841  0.4619 -0.0824 -0.6526
 8232TIP3    H146111   1.877   2.714  15.813  0.7364  1.9777 -1.8398
 8232TIP3    H246112   1.754   2.663  15.887  2.5793 -1.1906 -0.8340
 8233TIP3   OH246113   3.643   2.029  13.028  0.5528 -1.0340 -0.1432
 8233TIP3    H146114   3.634   1.972  12.952 -1.1335 -0.3611 -0.4642
 8233TIP3    H246115   3.568   2.007  13.083 -0.1447  0.8817 -0.2908
 8234TIP3   OH246116   6.240   6.078   0.786 -0.5703 -0.4199  0.2744
 8234TIP3    H146117   6.273   6.046   0.701 -2.0695  0.3170 -0.6067
 8234TIP3    H246118   6.318   6.109   0.831  0.2467 -0.7405 -0.8711
 8235TIP3   OH246119   4.653   4.933   2.098  0.3605  0.0559  0.1472
 8235TIP3    H146120   4.632   4.847   2.135  1.7689 -0.8925 -1.2127
 8235TIP3    H246121   4.670   4.988   2.175 -2.1833 -0.4082  1.0989
 8236TIP3   OH246122   2.505   4.701   2.977  0.0849  0.4362  0.1488
 8236TIP3    H146123   2.498   4.630   3.042 -2.3084 -1.4921 -2.1091
 8236TIP3    H246124   2.417   4.709   2.941  0.2148  4.8423  0.5140
 8237TIP3   OH246125   3.355   0.525  12.541  0.0206 -0.8108 -0.1120
 8237TIP3    H146126   3.301   0.581  12.598 -1.3208 -0.3376 -1.8008
 8237TIP3    H246127   3.315   0.438  12.548  0.7508 -1.0774  0.7932
 8238TIP3   OH246128   6.447   0.967   1.323 -0.1272 -0.3439  0.3691
 8238TIP3    H146129   6.432   0.929   1.409 -1.0645  0.6091  0.6297
 8238TIP3    H246130   6.542   0.970   1.314  0.0073 -4.1969 -0.3101
 8239TIP3   OH246131   3.653   5.716   1.391  0.0202 -1.1574 -0.1293
 8239TIP3    H146132   3.719   5.686   1.454 -0.2163 -1.7038 -0.1394
 8239TIP3    H246133   3.645   5.810   1.408  0.6470 -1.1287  0.0169
 8240TIP3   OH246134   6.323   1.478  10.627  0.1000  0.5816  0.2586
 8240TIP3    H146135   6.279   1.514  10.704 -1.2503  1.2581 -0.8071
 8240TIP3    H246136   6.415   1.469  10.654 -0.3772  0.6934  1.9755
 8241TIP3   OH246137   6.240   6.166  15.764  0.8542 -0.2555 -0.2022
 8241TIP3    H146138   6.147   6.175  15.747  0.9140 -1.1772 -1.1013
 8241TIP3    H246139   6.280   6.241  15.719  0.5139  0.4323  0.6252
 8242TIP3   OH246140   3.899   5.872  12.248 -0.4413  0.4691  0.4883
 8242TIP3    H146141   3.928   5.957  12.216 -1.0509 -0.5546 -3.0244
 8242TIP3    H246142   3.934   5.810  12.184  0.0978 -1.9747  3.0323
 8243TIP3   OH246143   2.678   5.225   4.828 -0.6296 -0.0010  0.2965
 8243TIP3    H146144   2.754   5.280   4.845 -1.7001  2.2228 -1.7926
 8243TIP3    H246145   2.603   5.282   4.842 -1.7909 -1.1663 -1.0540
 8244TIP3   OH246146   4.935   0.546   5.477  0.5943 -0.0728  0.0032
 8244TIP3    H146147   4.853   0.595   5.479  0.7994  0.3491 -1.5898
 8244TIP3    H246148   4.973   0.561   5.564  0.2179  1.8351 -0.1346
 8245TIP3   OH246149   5.011   1.007   4.063 -0.4707  0.5223 -0.3479
 8245TIP3    H146150   4.999   0.933   4.004  1.1030  1.3914 -1.7932
 8245TIP3    H246151   5.020   1.083   4.005  1.5206  1.3243  0.9820
 8246TIP3   OH246152   3.694   0.544  12.680 -0.0817  0.0852 -0.2621
 8246TIP3    H146153   3.674   0.461  12.636  1.2394  2.0072 -4.7259
 8246TIP3    H246154   3.775   0.527  12.728 -0.4078 -1.4749 -0.2375
 8247TIP3   OH246155   2.053   4.714  11.491  0.0300 -0.1177 -0.2175
 8247TIP3    H146156   2.036   4.652  11.420  0.4805 -0.8372  0.3003
 8247TIP3    H246157   2.148   4.727  11.489 -0.1125  0.9788 -0.6645
 8248TIP3   OH246158   0.054   5.014  13.141 -0.4584 -0.3033  0.3008
 8248TIP3    H146159  -0.037   4.987  13.152 -0.8857  1.6794  2.0696
 8248TIP3    H246160   0.047   5.106  13.114  0.9964 -0.4954 -0.7227
 8249TIP3   OH246161   4.972   4.147  11.577 -0.1343 -0.2744  0.3392
 8249TIP3    H146162   5.059   4.173  11.608  0.0463 -1.7567  1.1322
 8249TIP3    H246163   4.911   4.199  11.629  0.2934  1.7061 -1.1154
 8250TIP3   OH246164   2.357   2.862  14.412 -0.1601  0.0547  0.5205
 8250TIP3    H146165   2.316   2.776  14.415  0.1785 -0.0971  0.9503
 8250TIP3    H246166   2.413   2.860  14.335 -0.3980 -0.0000  0.3502
 8251TIP3   OH246167   1.806   0.167   4.908 -0.1152  0.3531 -0.3048
 8251TIP3    H146168   1.719   0.204   4.892 -0.1345  0.4659  0.0569
 8251TIP3    H246169   1.867   0.234   4.879 -0.1435  1.3241  1.7993
 8252TIP3   OH246170   4.027   1.082   6.257 -0.2167 -0.5245 -0.6448
 8252TIP3    H146171   4.105   1.060   6.306 -0.9033 -1.0542  0.2194
 8252TIP3    H246172   4.001   1.001   6.214 -1.1183 -0.7215  0.2467
 8253TIP3   OH246173   1.159   6.367   5.202  0.1071  0.3537  0.7042
 8253TIP3    H146174   1.221   6.435   5.174 -0.1728 -0.0063 -0.8254
 8253TIP3    H246175   1.077   6.414   5.217  0.4731  0.6753  1.7450
 8254TIP3   OH246176   4.179   3.586   1.243  0.1909 -0.3651  0.2002
 8254TIP3    H146177   4.143   3.538   1.318  1.2264  0.2974  1.1530
 8254TIP3    H246178   4.185   3.521   1.174 -1.7006 -0.7527  0.3910
 8255TIP3   OH246179   3.983   1.926   2.546 -0.2581  0.1347  0.0340
 8255TIP3    H146180   4.004   2.017   2.566 -2.0834  0.8654 -1.2456
 8255TIP3    H246181   3.991   1.881   2.630 -2.8484  2.2018  1.4753
 8256TIP3   OH246182   6.715   3.680  16.644  0.5468  0.7202  0.2336
 8256TIP3    H146183   6.732   3.771  16.621 -0.8837  1.3492  1.6083
 8256TIP3    H246184   6.760   3.668  16.728  0.9406  0.0709 -0.0606
 8257TIP3   OH246185   1.218   1.135   6.759  0.0857  0.1648 -0.1138
 8257TIP3    H146186   1.237   1.226   6.779  1.0779  0.0589 -0.5535
 8257TIP3    H246187   1.184   1.099   6.841 -0.7124  1.0247 -0.0547
 8258TIP3   OH246188   1.934   0.037  16.574 -0.5254 -0.5450 -0.5534
 8258TIP3    H146189   1.871   0.082  16.630 -0.5980 -0.3349 -0.8069
 8258TIP3    H246190   1.910   0.062  16.485  0.3518  0.0996 -0.6188
 8259TIP3   OH246191   0.002   4.152   3.100 -0.1316  0.2479 -0.4800
 8259TIP3    H146192  -0.029   4.141   3.010 -1.6918 -2.4840  0.3379
 8259TIP3    H246193  -0.078   4.161   3.152  0.6601 -0.7156  0.9333
 8260TIP3   OH246194   2.141   6.647   2.830  0.3866  0.1059 -0.0241
 8260TIP3    H146195   2.142   6.708   2.757  0.7786  0.0466 -0.0691
 8260TIP3    H246196   2.052   6.653   2.865 -0.0071 -0.3517 -0.9216
 8261TIP3   OH246197   6.185   1.080  16.608  0.3398 -0.1962 -0.0340
 8261TIP3    H146198   6.192   1.115  16.697 -0.0614 -1.1153  0.3673
 8261TIP3    H246199   6.102   1.113  16.575  0.2980 -0.1870  0.0818
 8262TIP3   OH246200   4.271   0.960   6.398 -0.1666  0.9749 -0.3241
 8262TIP3    H146201   4.332   1.006   6.341 -0.3089  2.8371  1.0031
 8262TIP3    H246202   4.307   0.969   6.486 -0.3567 -1.2193  0.0249
 8263TIP3   OH246203   6.044   5.911   3.732  0.1568  0.2013 -0.3079
 8263TIP3    H146204   6.079   5.854   3.800  0.3076  0.6519 -0.0095
 8263TIP3    H246205   6.100   5.989   3.734 -1.2958  1.2381  0.6530
 8264TIP3   OH246206   0.721   4.608   2.680  0.1277 -0.1423  0.0666
 8264TIP3    H146207   0.667   4.650   2.747  0.8323 -0.4117  0.8163
 8264TIP3    H246208   0.766   4.537   2.727 -0.7696 -1.4997 -1.0973
 8265TIP3   OH246209   3.569   4.468   1.056  0.7992  0.1069 -0.1699
 8265TIP3    H146210   3.512   4.510   0.991 -0.7679 -1.8513 -0.0984
 8265TIP3    H246211   3.585   4.536   1.121 -0.9905  0.8615 -0.4897
 8266TIP3   OH246212   6.611   6.548  12.120 -0.4577  0.1460 -0.0492
 8266TIP3    H146213   6.647   6.509  12.040  0.3546 -0.2331  0.4886
 8266TIP3    H246214   6.610   6.476  12.184 -2.5390  0.0579 -0.1561
 8267TIP3   OH246215   3.797   5.776   1.094  0.1495 -0.1402  0.5785
 8267TIP3    H146216   3.865   5.732   1.145  0.8227 -0.9423 -0.9829
 8267TIP3    H246217   3.805   5.868   1.119  1.3778 -0.3172  0.9096
 8268TIP3   OH246218   0.387   0.564   1.054 -0.2556 -0.1894 -0.4717
 8268TIP3    H146219   0.327   0.505   1.101  0.5948  0.0117  0.8784
 8268TIP3    H246220   0.354   0.564   0.964  0.0577 -3.1663 -0.6407
 8269TIP3   OH246221   1.563   3.940   0.166 -0.0609  0.1767  0.0381
 8269TIP3    H146222   1.569   4.036   0.171  2.3193  0.0608  0.0365
 8269TIP3    H246223   1.556   3.921   0.073  0.5873  0.2866 -0.0307
 8270TIP3   OH246224   3.868   0.129  12.073 -0.1367 -0.0580  0.6101
 8270TIP3    H146225   3.960   0.125  12.048 -0.0773 -1.4354  1.0265
 8270TIP3    H246226   3.822   0.144  11.991  0.3223 -1.1260  0.1562
 8271TIP3   OH246227   6.128   2.452   6.043  0.0626  0.3047 -0.4790
 8271TIP3    H146228   6.214   2.462   6.084 -0.1486  2.4633 -0.4947
 8271TIP3    H246229   6.079   2.394   6.102  1.8370 -1.7599 -0.9921
 8272TIP3   OH246230   2.358   5.139  13.942  0.1782  0.7564  0.5649
 8272TIP3    H146231   2.313   5.219  13.969  1.0419  0.9175  1.5129
 8272TIP3    H246232   2.384   5.097  14.024  4.3907  2.1244  0.0445
 8273TIP3   OH246233   4.119   6.309  16.669  0.5561 -0.3276 -0.2833
 8273TIP3    H146234   4.176   6.244  16.627  0.0749 -0.3841 -0.8592
 8273TIP3    H246235   4.033   6.294  16.629  0.2944  0.2130  0.0796
 8274TIP3   OH246236   3.574   4.957   3.703 -0.3012 -0.2357 -0.4136
 8274TIP3    H146237   3.492   5.005   3.687  0.1667  1.0930  1.0273
 8274TIP3    H246238   3.550   4.887   3.763 -0.5139 -0.2897 -0.5613
 8275TIP3   OH246239   0.963   0.757   2.588 -0.6109 -0.0189 -0.4520
 8275TIP3    H146240   0.958   0.812   2.510 -0.8583 -1.6871 -1.6321
 8275TIP3    H246241   0.947   0.818   2.661 -0.6647  1.5001 -1.6972
 8276TIP3   OH246242   3.677   1.711   2.590  0.3242  0.1810 -0.5356
 8276TIP3    H146243   3.679   1.790   2.644 -2.9959 -0.1004  0.1456
 8276TIP3    H246244   3.734   1.649   2.636 -0.6900  0.6837  1.4814
 8277TIP3   OH246245   3.484   4.195  13.007 -0.4652 -0.6580 -0.2415
 8277TIP3    H146246   3.467   4.241  12.925  2.1193  0.4896 -0.1789
 8277TIP3    H246247   3.486   4.265  13.073 -0.2406 -1.3132  0.4506
 8278TIP3   OH246248   1.344   1.498  12.675  0.5596 -0.4542 -0.0720
 8278TIP3    H146249   1.421   1.526  12.725 -0.3010  1.2043  0.3677
 8278TIP3    H246250   1.344   1.554  12.598 -0.0387 -0.6762 -0.2333
 8279TIP3   OH246251   2.647   5.915   3.255 -0.0890 -0.2677 -0.1402
 8279TIP3    H146252   2.606   5.835   3.224  0.5830 -0.3478 -0.8293
 8279TIP3    H246253   2.741   5.895   3.258 -0.1729 -0.5138  2.6412
 8280TIP3   OH246254   1.224   2.325  17.091  0.6894  0.3978  0.7358
 8280TIP3    H146255   1.174   2.380  17.150  1.3262 -0.5464  2.1843
 8280TIP3    H246256   1.234   2.242  17.138 -0.9285 -1.2462 -1.7156
 8281TIP3   OH246257   0.926   2.577  15.668 -0.2260  0.0270  0.4166
 8281TIP3    H146258   0.893   2.663  15.693  0.3767 -0.1108  1.7719
 8281TIP3    H246259   0.932   2.529  15.751  1.2819 -0.6689 -0.0759
 8282TIP3   OH246260   0.585   2.515   1.682  0.1246 -0.4500  0.5286
 8282TIP3    H146261   0.678   2.536   1.688 -0.1298  0.8755  0.0675
 8282TIP3    H246262   0.546   2.559   1.758 -0.1796 -0.6097  0.4649
 8283TIP3   OH246263   6.717   3.861  10.861 -0.0180 -0.0407 -0.5837
 8283TIP3    H146264   6.670   3.840  10.780 -1.2505  0.0814  0.0963
 8283TIP3    H246265   6.791   3.915  10.832 -0.0751 -0.5269 -1.6970
 8284TIP3   OH246266   3.635   6.488  10.269  0.2368 -0.1278 -0.4090
 8284TIP3    H146267   3.689   6.537  10.331 -1.1745  0.7699  0.1323
 8284TIP3    H246268   3.689   6.412  10.245  1.3770  0.2866  0.7824
 8285TIP3   OH246269   2.068   6.564  12.124  0.2086 -0.1184  0.0151
 8285TIP3    H146270   1.989   6.566  12.070  0.9622  4.8951 -1.1426
 8285TIP3    H246271   2.035   6.565  12.214 -1.0388 -0.3827 -0.4283
 8286TIP3   OH246272   0.379   5.715  14.761  0.2023 -0.3346  0.0068
 8286TIP3    H146273   0.319   5.641  14.752  0.0954 -0.2156 -0.2806
 8286TIP3    H246274   0.463   5.675  14.781  0.1272 -0.5315 -0.0655
 8287TIP3   OH246275   0.289   1.279  16.996  0.6638 -0.1779  0.2251
 8287TIP3    H146276   0.270   1.254  16.906 -1.7133  1.1946  0.2880
 8287TIP3    H246277   0.261   1.204  17.048  0.1934 -0.2037 -0.0616
 8288TIP3   OH246278   1.792   4.468   3.506 -0.3564  0.2737 -1.0150
 8288TIP3    H146279   1.791   4.467   3.410  1.3160 -0.2601 -1.0499
 8288TIP3    H246280   1.733   4.397   3.531 -0.6648  0.2990 -1.6533
 8289TIP3   OH246281   3.051   2.552  12.586  0.6810 -0.0003  0.4709
 8289TIP3    H146282   2.990   2.539  12.513 -1.7175  1.3532  2.1679
 8289TIP3    H246283   3.087   2.640  12.571 -0.3352  0.5563  1.2844
 8290TIP3   OH246284   6.433   5.233  13.742  0.6440  0.2547  1.0080
 8290TIP3    H146285   6.440   5.172  13.815  1.4919  0.1877  0.8735
 8290TIP3    H246286   6.455   5.319  13.780  1.3736  0.1758  0.7759
 8291TIP3   OH246287   0.679   1.235  16.695 -0.1395  0.1410 -0.4798
 8291TIP3    H146288   0.646   1.235  16.605 -1.8807 -1.9082  0.0966
 8291TIP3    H246289   0.611   1.280  16.745  0.4986  0.6702 -0.0867
 8292TIP3   OH246290   1.945   5.631  15.688  0.2124  0.5284 -0.0431
 8292TIP3    H146291   2.022   5.683  15.711  1.1388 -1.1201  0.7188
 8292TIP3    H246292   1.938   5.567  15.759 -0.3424 -0.9666 -1.4125
 8293TIP3   OH246293   4.445   3.457  13.250 -0.1146 -0.3195  0.1420
 8293TIP3    H146294   4.379   3.521  13.221  0.1932 -0.1343 -0.1646
 8293TIP3    H246295   4.409   3.372  13.224  0.1908 -0.1479 -0.8571
 8294TIP3   OH246296   0.285   4.619   4.558 -0.1400  0.1133 -0.1820
 8294TIP3    H146297   0.271   4.599   4.651  0.0451 -1.3003 -0.4433
 8294TIP3    H246298   0.273   4.714   4.551 -1.2476  0.0719  1.0850
 8295TIP3   OH246299   1.740   3.604  15.690 -0.0565  0.4896  0.0451
 8295TIP3    H146300   1.760   3.686  15.644  3.4147 -1.6868 -2.6132
 8295TIP3    H246301   1.669   3.565  15.638 -0.6319  1.0506  0.3964
 8296TIP3   OH246302   2.070   6.286   4.434  0.0960 -0.4484  0.0853
 8296TIP3    H146303   2.159   6.269   4.401 -0.2558 -1.8164 -0.2003
 8296TIP3    H246304   2.012   6.246   4.369 -0.6887 -0.7038  0.9362
 8297TIP3   OH246305   0.094   4.254  15.905 -0.0481  0.1794 -0.0541
 8297TIP3    H146306   0.060   4.165  15.909  2.4482 -0.7359  2.2119
 8297TIP3    H246307   0.175   4.246  15.855 -0.0379  1.2812 -0.2208
 8298TIP3   OH246308   4.300   5.951  15.929 -0.3903 -0.2201  0.3874
 8298TIP3    H146309   4.322   6.024  15.986  0.7534 -1.1094  1.0919
 8298TIP3    H246310   4.383   5.906  15.914 -0.4452  0.5668 -2.8108
 8299TIP3   OH246311   3.848   2.040  14.051 -0.0777  0.4551 -0.1658
 8299TIP3    H146312   3.812   2.026  14.139  1.4863  1.3109  0.6390
 8299TIP3    H246313   3.935   2.078  14.067  0.5104 -0.0636 -2.0806
 8300TIP3   OH246314   4.232   1.199  12.635  0.0513 -0.4439  0.1596
 8300TIP3    H146315   4.218   1.245  12.553  0.8721 -1.2322 -0.4335
 8300TIP3    H246316   4.266   1.265  12.695  1.1781 -0.2593 -0.6713
 8301TIP3   OH246317   1.026   5.272   6.220 -0.3848  0.6506  0.8407
 8301TIP3    H146318   1.111   5.316   6.222  0.3729 -0.5934 -1.9542
 8301TIP3    H246319   0.963   5.342   6.242  1.0720  2.3303 -0.1852
 8302TIP3   OH246320   2.261   3.782   3.958  0.6434  0.2008 -0.0457
 8302TIP3    H146321   2.282   3.701   3.912 -0.7491 -0.6319  0.7248
 8302TIP3    H246322   2.245   3.846   3.889 -1.1030 -0.9437 -0.7330
 8303TIP3   OH246323   2.902   6.462  11.728  0.0007 -0.0478  1.3994
 8303TIP3    H146324   2.916   6.516  11.806 -2.4749  0.8995  1.2384
 8303TIP3    H246325   2.916   6.372  11.758  1.0887  0.4528  2.4309
 8304TIP3   OH246326   4.534   0.124   2.092 -0.2336  0.2900  0.8580
 8304TIP3    H146327   4.467   0.105   2.157 -1.4596  0.5226 -0.3145
 8304TIP3    H246328   4.599   0.177   2.138 -1.0604  0.3943  1.8977
 8305TIP3   OH246329   1.004   3.082  11.891  0.2271  0.0762  0.3077
 8305TIP3    H146330   1.001   2.990  11.917  1.2447 -0.1060 -0.1997
 8305TIP3    H246331   1.090   3.093  11.852  0.4247  1.4411  1.0849
 8306TIP3   OH246332   1.965   3.243   0.904  0.2585  0.1379  0.0467
 8306TIP3    H146333   1.938   3.155   0.878 -1.4880  0.7734 -0.3799
 8306TIP3    H246334   1.894   3.300   0.873  0.5408  1.4995  1.8294
 8307TIP3   OH246335   3.988   1.468   3.003  0.1962  0.1721 -0.4057
 8307TIP3    H146336   3.995   1.449   3.097  0.5759 -0.3543 -0.5376
 8307TIP3    H246337   3.932   1.398   2.968  0.3780  0.1395 -0.6364
 8308TIP3   OH246338   4.789   0.312   0.306  0.0843 -0.5032  0.6366
 8308TIP3    H146339   4.862   0.270   0.352 -0.0647  0.2258  1.5351
 8308TIP3    H246340   4.807   0.405   0.312 -0.2806 -0.3718 -0.2217
 8309TIP3   OH246341   5.161   5.227  15.991 -0.2355  0.0876 -0.3856
 8309TIP3    H146342   5.110   5.187  16.061  2.7975 -0.1436  1.7834
 8309TIP3    H246343   5.142   5.321  15.998 -1.2372 -0.1180 -0.3488
 8310TIP3   OH246344   5.488   4.665   0.229 -0.2104 -0.0752 -0.1785
 8310TIP3    H146345   5.541   4.652   0.150 -0.5809 -2.2361 -0.1143
 8310TIP3    H246346   5.519   4.598   0.290 -0.2761  1.2497  1.3531
 8311TIP3   OH246347   3.736   0.402  13.413  0.3358  0.4777  0.2958
 8311TIP3    H146348   3.653   0.450  13.418 -0.4231 -0.3499 -2.9908
 8311TIP3    H246349   3.715   0.314  13.446 -0.0584  0.3235 -0.3574
 8312TIP3   OH246350   4.769   0.170   4.464  0.0877 -0.3322 -0.5176
 8312TIP3    H146351   4.707   0.143   4.532  0.4431  1.2274  0.4458
 8312TIP3    H246352   4.740   0.123   4.386 -1.0290 -1.2561  0.4256
 8313TIP3   OH246353   2.782   4.231  14.828  0.1920  0.3457  0.0680
 8313TIP3    H146354   2.754   4.154  14.778 -1.2112  1.0562 -0.2664
 8313TIP3    H246355   2.831   4.196  14.902  0.8894 -0.7966 -0.9222
 8314TIP3   OH246356   5.837   2.732  13.484  0.7451 -0.4601  0.1588
 8314TIP3    H146357   5.838   2.828  13.480  0.9156 -0.5181 -1.4156
 8314TIP3    H246358   5.789   2.705  13.405  0.5177 -1.6670  0.6974
 8315TIP3   OH246359   5.629   4.612   3.989  0.4444  0.2927 -0.9195
 8315TIP3    H146360   5.537   4.621   4.011  0.2484 -1.3038 -1.0356
 8315TIP3    H246361   5.662   4.547   4.051  1.2251  0.0109 -1.6198
 8316TIP3   OH246362   0.958   5.217   1.868  0.0541  0.4950 -0.0146
 8316TIP3    H146363   0.897   5.258   1.806  2.5195  2.0136 -1.5202
 8316TIP3    H246364   0.961   5.125   1.842  2.0940  1.3633 -3.1276
 8317TIP3   OH246365   3.912   1.091  16.494 -0.2938  0.0128  0.0313
 8317TIP3    H146366   3.825   1.078  16.530  0.5881 -0.1244  2.1487
 8317TIP3    H246367   3.970   1.039  16.550  1.2620  0.8232 -0.7879
 8318TIP3   OH246368   1.049   1.298   3.084 -0.2603  0.2990 -0.2431
 8318TIP3    H146369   1.137   1.275   3.053  0.1735  0.1625  1.0567
 8318TIP3    H246370   1.006   1.214   3.098 -1.0294  0.3613 -1.9931
 8319TIP3   OH246371   3.660   6.553  13.292 -0.3039 -0.0236  0.5794
 8319TIP3    H146372   3.616   6.512  13.218  1.5763  1.6092 -1.5117
 8319TIP3    H246373   3.740   6.503  13.304 -0.0391  0.4358  0.7578
 8320TIP3   OH246374   2.730   1.781  13.005  1.2323 -0.2805 -0.1058
 8320TIP3    H146375   2.782   1.748  13.078  1.9394 -0.4598 -0.6918
 8320TIP3    H246376   2.779   1.856  12.972  1.1638 -0.5013 -0.7145
 8321TIP3   OH246377   1.862   5.621   6.373 -0.0899  0.1273 -0.1144
 8321TIP3    H146378   1.819   5.686   6.429  0.7584  1.5717 -1.1124
 8321TIP3    H246379   1.835   5.537   6.410 -2.2550  1.0130  0.4124
 8322TIP3   OH246380   4.401   5.870  13.026 -0.6435  0.0660 -0.1938
 8322TIP3    H146381   4.494   5.848  13.025 -0.5664  0.3838 -0.2045
 8322TIP3    H246382   4.361   5.807  12.966 -0.5158 -0.4288  0.2403
 8323TIP3   OH246383   6.206   2.447   5.769 -0.0002 -0.1784  0.5461
 8323TIP3    H146384   6.150   2.460   5.846  1.0408  0.5738  1.1772
 8323TIP3    H246385   6.215   2.534   5.730  1.6935 -0.0857  1.1155
 8324TIP3   OH246386   4.360   0.145  15.210 -0.0426  0.1248  0.8109
 8324TIP3    H146387   4.336   0.077  15.148  0.0082  0.6940  0.1570
 8324TIP3    H246388   4.309   0.125  15.289 -0.3093 -0.4483  0.4961
 8325TIP3   OH246389   5.722   1.433   1.993  0.3204  0.0845 -0.7070
 8325TIP3    H146390   5.709   1.464   1.903 -0.8194  1.6191 -0.0492
 8325TIP3    H246391   5.716   1.513   2.046 -2.4403 -1.1926  1.0332
 8326TIP3   OH246392   2.488   6.740  16.888  0.0301 -0.3138 -0.0641
 8326TIP3    H146393   2.455   6.823  16.921 -0.7211 -0.3197 -0.7752
 8326TIP3    H246394   2.412   6.682  16.890  0.6723 -1.1570  0.9543
 8327TIP3   OH246395   5.227   4.667  14.143 -0.5075  0.5714 -0.0374
 8327TIP3    H146396   5.292   4.720  14.189 -0.2676 -0.5665  0.9485
 8327TIP3    H246397   5.270   4.639  14.062 -1.1940  3.2242 -1.3895
 8328TIP3   OH246398   6.558   1.981  14.916  0.3689 -0.1892 -0.5520
 8328TIP3    H146399   6.608   1.980  14.835 -0.4998  2.9294 -1.2076
 8328TIP3    H246400   6.487   2.044  14.900  0.0057  0.2866  2.5004
 8329TIP3   OH246401   0.710   2.959   4.160 -0.4356  0.0316 -0.0452
 8329TIP3    H146402   0.627   2.999   4.135 -0.4441 -0.3750 -0.7001
 8329TIP3    H246403   0.733   3.000   4.243 -0.7530  0.9296 -0.3990
 8330TIP3   OH246404   5.323   0.516  13.927  0.7970  0.2529  0.2572
 8330TIP3    H146405   5.312   0.567  14.007  1.7756  0.0949  0.4916
 8330TIP3    H246406   5.275   0.434  13.944  1.8307 -0.1890  1.0541
 8331TIP3   OH246407   5.336   3.944  15.551 -0.3986  0.3176  0.5122
 8331TIP3    H146408   5.365   3.971  15.463  0.5582  0.1300  0.7613
 8331TIP3    H246409   5.404   3.884  15.581 -0.4176  0.8442  1.6305
 8332TIP3   OH246410   4.263   4.990  15.572 -0.2265  0.5044  0.7360
 8332TIP3    H146411   4.305   4.997  15.658 -0.3769  3.2557  0.6506
 8332TIP3    H246412   4.191   5.053  15.576 -0.0850  0.8535 -1.4778
 8333TIP3   OH246413   2.939   0.755   6.632 -0.5216 -0.2566 -0.2542
 8333TIP3    H146414   2.939   0.707   6.549 -0.9632  0.2400 -0.5469
 8333TIP3    H246415   2.890   0.698   6.692  0.6662 -1.0886 -0.0408
 8334TIP3   OH246416   6.762   4.260  12.980  0.0905 -0.8198 -0.4357
 8334TIP3    H146417   6.743   4.174  12.942  0.9725 -1.1150 -0.2020
 8334TIP3    H246418   6.857   4.263  12.989  0.0445  0.0623 -0.1574
 8335TIP3   OH246419   5.680   2.520   0.470 -0.3223 -0.4067  0.1761
 8335TIP3    H146420   5.667   2.454   0.402 -0.9184  1.5945 -1.7316
 8335TIP3    H246421   5.596   2.566   0.476  0.1938  0.4396  1.1774
 8336TIP3   OH246422   6.282   3.276  10.822 -0.2750 -0.3975  0.2326
 8336TIP3    H146423   6.232   3.226  10.756  1.4978  1.2508 -2.4839
 8336TIP3    H246424   6.241   3.363  10.822  0.6044  0.0161  0.2923
 8337TIP3   OH246425   4.378   2.684   1.098 -0.3027 -1.0471 -0.4295
 8337TIP3    H146426   4.385   2.592   1.070 -0.6807 -1.3388  0.4366
 8337TIP3    H246427   4.468   2.717   1.091  0.0113 -1.7494  0.1494
 8338TIP3   OH246428   1.850   0.047  13.022  0.1479 -0.1049 -0.1244
 8338TIP3    H146429   1.893   0.012  13.100  0.6745 -1.0735 -0.8394
 8338TIP3    H246430   1.881  -0.008  12.950 -2.3196 -0.8799 -0.6559
 8339TIP3   OH246431   6.418   1.137  10.488  0.2799 -0.2619 -0.2941
 8339TIP3    H146432   6.477   1.062  10.493  1.0852  0.3481 -0.4496
 8339TIP3    H246433   6.413   1.157  10.394  1.3566  0.8746 -0.1202
 8340TIP3   OH246434   5.337   2.178   5.172  0.3560  0.2198  0.6556
 8340TIP3    H146435   5.273   2.173   5.243 -1.1193  3.2664 -0.3792
 8340TIP3    H246436   5.288   2.152   5.094  1.1026  0.0079  0.2538
 8341TIP3   OH246437   4.036   1.153  16.867  0.5273 -0.5175 -0.4656
 8341TIP3    H146438   4.028   1.112  16.781  2.2706 -1.2986 -0.2876
 8341TIP3    H246439   4.130   1.152  16.885  0.3180  0.9795  0.8012
 8342TIP3   OH246440   1.767   4.279  12.890  0.3538  0.6733  0.3031
 8342TIP3    H146441   1.752   4.355  12.834 -0.2013  1.4203  1.4611
 8342TIP3    H246442   1.694   4.220  12.870  0.5278  0.6325 -0.2449
 8343TIP3   OH246443   4.336   1.625   0.679  0.8320  0.0014 -0.1019
 8343TIP3    H146444   4.348   1.531   0.667  1.5971 -0.0025  0.6799
 8343TIP3    H246445   4.254   1.633   0.728  1.4104 -0.3247  0.9313
 8344TIP3   OH246446   6.094   3.844  11.627  0.6646  0.0736 -0.0130
 8344TIP3    H146447   6.106   3.833  11.722  0.2848  1.5340  0.2174
 8344TIP3    H246448   6.061   3.934  11.618 -0.9884 -0.6529 -1.3892
 8345TIP3   OH246449   2.336   5.952   2.647 -0.3466 -0.0226  0.2117
 8345TIP3    H146450   2.314   6.044   2.661 -1.5375 -0.3452  0.4803
 8345TIP3    H246451   2.432   5.951   2.647 -0.3130  1.3079 -0.4266
 8346TIP3   OH246452   2.304   3.981   3.432  0.4678  0.0111  0.6647
 8346TIP3    H146453   2.356   3.958   3.509 -0.1692 -0.1245  1.0567
 8346TIP3    H246454   2.309   4.076   3.428  1.4180 -0.0450  0.2227
 8347TIP3   OH246455   0.376   5.166  12.809  0.4089 -0.7589  0.2401
 8347TIP3    H146456   0.407   5.184  12.898 -1.5107 -0.2157  0.8292
 8347TIP3    H246457   0.316   5.238  12.790  3.1659  0.8397 -2.7431
 8348TIP3   OH246458   6.584   1.103   1.788 -0.1892  0.2737  0.4989
 8348TIP3    H146459   6.566   1.160   1.712  1.4482  1.4622  0.9664
 8348TIP3    H246460   6.522   1.133   1.855 -2.2410 -1.3604 -0.6176
 8349TIP3   OH246461   5.169   0.263  15.009 -0.2029 -0.0199 -0.3863
 8349TIP3    H146462   5.173   0.353  14.976  0.0388 -0.5654 -1.9041
 8349TIP3    H246463   5.186   0.271  15.103 -2.8796  1.7991  0.0108
 8350TIP3   OH246464   0.255   2.417  14.507 -0.6008 -0.5537  0.1324
 8350TIP3    H146465   0.331   2.469  14.480 -0.2048 -1.4160 -0.4392
 8350TIP3    H246466   0.291   2.332  14.530 -1.3622 -0.8762  0.1424
 8351TIP3   OH246467   1.311   6.667  11.280  0.0974  0.3289  0.4123
 8351TIP3    H146468   1.360   6.729  11.335  0.2040  0.3288  0.3173
 8351TIP3    H246469   1.339   6.687  11.191 -1.6292  1.7379  0.1701
 8352TIP3   OH246470   3.192   0.524  14.236 -0.1365  0.5449 -0.0994
 8352TIP3    H146471   3.108   0.524  14.282  1.0372  0.4380  2.1346
 8352TIP3    H246472   3.207   0.431  14.215  0.1359  0.3478  0.9132
 8353TIP3   OH246473   6.312   0.017  14.927 -0.1976 -0.7886 -0.1590
 8353TIP3    H146474   6.238   0.055  14.974  0.1325 -0.7900  0.3649
 8353TIP3    H246475   6.276  -0.009  14.842 -0.6411 -0.1734 -0.1574
 8354TIP3   OH246476   2.033   2.423  15.976  0.1699 -0.6533  0.5425
 8354TIP3    H146477   1.961   2.368  16.007 -1.4470  0.3968 -1.2145
 8354TIP3    H246478   2.078   2.369  15.911  0.5992 -1.0761  1.1833
 8355TIP3   OH246479   5.004   5.866  15.114  0.0156 -0.3444  0.1563
 8355TIP3    H146480   4.946   5.814  15.057 -0.9201  1.2910 -0.3991
 8355TIP3    H246481   5.000   5.820  15.198 -1.1111 -0.9750 -0.2149
 8356TIP3   OH246482   2.234   5.627   4.744  0.0372  0.2252  0.1699
 8356TIP3    H146483   2.226   5.719   4.718 -1.1405  0.9269  2.7896
 8356TIP3    H246484   2.245   5.630   4.839  2.1118 -2.2752  0.0846
 8357TIP3   OH246485   1.935   6.370  14.486  0.3072  0.0289 -0.1258
 8357TIP3    H146486   1.900   6.397  14.401 -0.3040 -2.0724 -0.5755
 8357TIP3    H246487   2.011   6.316  14.465  0.4780 -0.0546  0.6805
 8358TIP3   OH246488   0.188   3.582  16.692 -0.5378  0.0386  0.2079
 8358TIP3    H146489   0.242   3.657  16.716  2.8433 -1.9717 -0.7969
 8358TIP3    H246490   0.169   3.538  16.775  3.1350 -1.6362  0.2554
 8359TIP3   OH246491   3.051   2.794   3.673  0.0130 -0.2626  0.1258
 8359TIP3    H146492   2.999   2.836   3.742  0.2051  3.0512 -1.6418
 8359TIP3    H246493   2.987   2.743   3.623 -0.5605 -0.6270  1.2076
 8360TIP3   OH246494   4.164   5.031  13.130 -0.0592 -0.2321 -0.4180
 8360TIP3    H146495   4.218   5.075  13.064 -0.8956  1.1629 -0.1903
 8360TIP3    H246496   4.193   4.941  13.129  1.5151  0.2765 -1.0878
 8361TIP3   OH246497   0.411   4.712   5.668 -0.1173  0.4407 -0.2484
 8361TIP3    H146498   0.498   4.749   5.655 -0.4867  0.5388 -2.6671
 8361TIP3    H246499   0.375   4.760   5.742  1.8603  0.4125  0.7615
 8362TIP3   OH246500   2.199   4.350   2.875 -0.1565  0.3825  0.2062
 8362TIP3    H146501   2.202   4.403   2.954  1.0875  2.2376 -1.0483
 8362TIP3    H246502   2.253   4.274   2.894 -2.0879 -0.5659  2.0841
 8363TIP3   OH246503   3.011   2.386  12.022  0.2528 -0.5391 -0.2020
 8363TIP3    H146504   3.073   2.335  12.074  0.1788  0.3752  0.7946
 8363TIP3    H246505   2.959   2.320  11.976  0.7135 -1.3497  0.4253
 8364TIP3   OH246506   5.835   1.150  15.299 -0.4598  0.8767 -0.3708
 8364TIP3    H146507   5.848   1.233  15.254  0.1532  1.0235  0.0736
 8364TIP3    H246508   5.843   1.171  15.392 -0.9172  0.4313 -0.2218
 8365TIP3   OH246509   5.064   1.400  15.567 -0.0764  0.3195  0.5048
 8365TIP3    H146510   5.076   1.319  15.518 -0.3293 -0.8914  2.3856
 8365TIP3    H246511   4.971   1.399  15.592  0.0820  0.8217  1.1393
 8366TIP3   OH246512   2.571   1.334   2.858 -0.7122  0.3863 -0.9176
 8366TIP3    H146513   2.644   1.323   2.798 -0.7478  0.9473 -1.0733
 8366TIP3    H246514   2.508   1.388   2.809 -1.0250  0.2993 -0.6177
 8367TIP3   OH246515   6.580   2.847   1.896 -0.3498  0.1442  0.1447
 8367TIP3    H146516   6.625   2.885   1.972  0.2399  0.7519 -0.4889
 8367TIP3    H246517   6.577   2.919   1.833 -1.0543 -0.2867 -0.3131
 8368TIP3   OH246518   1.123   6.683   6.178 -0.1342  0.4282 -0.5497
 8368TIP3    H146519   1.109   6.702   6.271  0.6706  0.9500 -0.5233
 8368TIP3    H246520   1.036   6.680   6.140 -0.5753 -1.6206  0.5780
 8369TIP3   OH246521   2.020   1.706   0.243 -0.2141 -0.5529 -0.4095
 8369TIP3    H146522   1.955   1.635   0.244  0.4408 -1.1506 -0.0236
 8369TIP3    H246523   1.968   1.785   0.226 -0.9880 -1.0823 -0.5540
 8370TIP3   OH246524   2.018   3.646   0.851 -0.2878 -0.0084  0.6127
 8370TIP3    H146525   2.014   3.742   0.848 -1.6583 -0.0807 -1.8262
 8370TIP3    H246526   1.937   3.620   0.896 -1.0055 -0.0505 -0.6715
 8371TIP3   OH246527   5.260   5.940  15.135  0.1728  0.4964  0.3237
 8371TIP3    H146528   5.165   5.930  15.149  0.2329  0.8563  1.0199
 8371TIP3    H246529   5.296   5.857  15.168  0.1093  0.3965  0.1446
 8372TIP3   OH246530   4.202   0.441   0.982  0.0607  0.0992  0.4118
 8372TIP3    H146531   4.216   0.528   1.019  0.5464  1.0289 -1.8253
 8372TIP3    H246532   4.283   0.394   1.001  0.2841  0.5429  0.5864
 8373TIP3   OH246533   4.915   5.792  12.592  0.3430  0.0007  0.1778
 8373TIP3    H146534   4.996   5.753  12.560  0.5531  0.3143  0.3288
 8373TIP3    H246535   4.894   5.861  12.529 -0.8674 -1.3632 -0.9579
 8374TIP3   OH246536   0.952   0.910  14.532  0.1002  0.0170 -0.5779
 8374TIP3    H146537   0.976   0.858  14.456 -1.0613 -0.4733 -0.6066
 8374TIP3    H246538   0.864   0.881  14.555  0.1900  0.6147  0.5610
 8375TIP3   OH246539   6.043   3.504   4.250 -0.0953  0.9547 -0.3223
 8375TIP3    H146540   6.029   3.588   4.205 -0.6211  0.5948 -0.8451
 8375TIP3    H246541   5.955   3.468   4.260  0.0670  0.8036  0.5539
 8376TIP3   OH246542   0.735   2.959  13.141  0.7482  0.1318 -0.3951
 8376TIP3    H146543   0.774   2.991  13.222  1.4903 -0.1950 -0.6184
 8376TIP3    H246544   0.653   2.918  13.169  1.5210 -0.9543  0.3387
 8377TIP3   OH246545   1.282   3.132   1.128  0.9136 -0.3460  0.5806
 8377TIP3    H146546   1.261   3.221   1.158 -0.8984 -0.1321 -1.1969
 8377TIP3    H246547   1.249   3.075   1.198 -3.5417  0.1259 -0.9591
 8378TIP3   OH246548   2.632   3.516   0.031 -0.0810  0.0066 -0.0095
 8378TIP3    H146549   2.575   3.446   0.000 -1.2845  0.1195  1.9115
 8378TIP3    H246550   2.708   3.512  -0.028 -0.5920 -2.2146 -0.5708
 8379TIP3   OH246551   4.993   1.123   0.800  1.2190 -0.5246  0.1690
 8379TIP3    H146552   4.929   1.070   0.752  1.8281 -0.7546 -0.4053
 8379TIP3    H246553   4.943   1.198   0.832  0.5415 -0.9906  0.2152
 8380TIP3   OH246554   3.096   6.552  16.132  0.6799  0.2247  0.0492
 8380TIP3    H146555   3.021   6.555  16.073 -0.1617  1.6161  1.1560
 8380TIP3    H246556   3.083   6.472  16.183  1.1760 -0.7458 -1.3317
 8381TIP3   OH246557   6.550   5.724  12.692  0.5380  0.2092 -0.0343
 8381TIP3    H146558   6.586   5.796  12.744  0.2668 -0.0894  0.5755
 8381TIP3    H246559   6.583   5.644  12.735  0.8114 -0.0316 -0.6866
 8382TIP3   OH246560   6.526   0.754  11.507 -0.0788  0.0307  0.5135
 8382TIP3    H146561   6.441   0.775  11.467  0.0985  2.7014  1.4526
 8382TIP3    H246562   6.589   0.766  11.436 -0.0622  2.1169  0.8445
 8383TIP3   OH246563   0.709   6.281   3.080  0.2115 -0.3025 -0.3586
 8383TIP3    H146564   0.680   6.371   3.093  0.7448 -0.2810  0.6985
 8383TIP3    H246565   0.782   6.270   3.140  1.5507 -0.7684 -2.0337
 8384TIP3   OH246566   1.627   0.488   2.065 -0.2706 -0.1171  0.1747
 8384TIP3    H146567   1.570   0.559   2.035 -2.1640  0.3615  4.5596
 8384TIP3    H246568   1.583   0.408   2.035  0.1788  0.3773 -1.9456
 8385TIP3   OH246569   5.872   1.496  11.548  0.1549  0.0126  0.0866
 8385TIP3    H146570   5.805   1.497  11.616  0.2825 -1.7307  0.2474
 8385TIP3    H246571   5.823   1.488  11.466 -0.0125  2.3372 -0.0824
 8386TIP3   OH246572   3.199   4.473  13.549 -0.6668  0.1739  0.5198
 8386TIP3    H146573   3.232   4.508  13.631 -1.0978 -0.8944  1.1625
 8386TIP3    H246574   3.199   4.548  13.489  0.7616  0.6916  1.1470
 8387TIP3   OH246575   6.301   2.571   3.573  0.1005 -0.2122 -0.0179
 8387TIP3    H146576   6.282   2.638   3.640  0.8334 -0.3073  0.2933
 8387TIP3    H246577   6.258   2.603   3.494  1.5737  1.3408 -0.2455
 8388TIP3   OH246578   0.258   5.405  11.367  0.2539 -0.2590 -0.0983
 8388TIP3    H146579   0.347   5.387  11.395  0.2339 -0.3134 -0.0680
 8388TIP3    H246580   0.266   5.427  11.274  0.4451  0.9773  0.2067
 8389TIP3   OH246581   0.938   3.781  13.486  0.3728 -0.5267 -0.0602
 8389TIP3    H146582   0.957   3.875  13.480 -1.0119 -0.3073 -1.0799
 8389TIP3    H246583   1.008   3.740  13.435  1.0109 -0.0665  0.4285
 8390TIP3   OH246584   4.235   3.278   5.774  0.2333  0.7700 -0.6010
 8390TIP3    H146585   4.319   3.310   5.807  0.3660  0.3913 -0.5678
 8390TIP3    H246586   4.171   3.311   5.837  0.5181 -0.1759  0.1939
 8391TIP3   OH246587   3.472   5.719   5.297 -0.6717  0.2239 -0.3027
 8391TIP3    H146588   3.430   5.767   5.226  0.3845  0.9717 -0.4362
 8391TIP3    H246589   3.474   5.782   5.370 -1.0068 -0.2612  0.1287
 8392TIP3   OH246590   6.009   2.272   2.843  0.1189  0.2880  0.2423
 8392TIP3    H146591   6.064   2.215   2.898 -0.2320  1.2178  1.5591
 8392TIP3    H246592   6.033   2.361   2.868 -0.5445  0.7254 -0.6301
 8393TIP3   OH246593   6.532   2.085   2.885  0.5400 -0.8466 -0.4401
 8393TIP3    H146594   6.606   2.025   2.886  0.6737 -0.6829  1.0142
 8393TIP3    H246595   6.501   2.086   2.976  0.2119  0.8736 -0.5483
 8394TIP3   OH246596   5.326   3.859  15.989  1.0843 -0.5076 -0.5839
 8394TIP3    H146597   5.398   3.896  16.040  0.3137  0.9740 -0.5426
 8394TIP3    H246598   5.310   3.923  15.920  1.1411 -1.8046 -1.8226
 8395TIP3   OH246599   6.735   3.865   3.055  0.2666  0.0001  0.4548
 8395TIP3    H146600   6.683   3.826   2.985 -0.3941 -0.5343  1.2431
 8395TIP3    H246601   6.723   3.959   3.044 -0.6171 -0.1105  0.4450
 8396TIP3   OH246602   1.615   2.670   5.914  0.2709 -0.0656  0.2497
 8396TIP3    H146603   1.524   2.659   5.886  0.0950 -2.3501  1.5282
 8396TIP3    H246604   1.662   2.694   5.835 -1.0691 -1.1781 -0.9230
 8397TIP3   OH246605   2.911   6.354   1.220  0.1520  0.3377  0.6808
 8397TIP3    H146606   2.987   6.398   1.181 -0.9323  0.8269 -0.8962
 8397TIP3    H246607   2.930   6.355   1.314  1.1072  2.3634  0.5131
 8398TIP3   OH246608   2.343   1.879   0.206  0.1923 -0.1552 -0.1171
 8398TIP3    H146609   2.259   1.842   0.234  1.0435 -2.1918 -0.1297
 8398TIP3    H246610   2.352   1.960   0.257 -2.0113  0.3718 -0.5214
 8399TIP3   OH246611   1.381   3.745   1.634  0.4826  0.1051 -0.6274
 8399TIP3    H146612   1.430   3.826   1.618 -0.6947  0.4808 -2.4749
 8399TIP3    H246613   1.352   3.717   1.547  1.1491 -2.4885 -0.0476
 8400TIP3   OH246614   3.259   4.010   0.894  0.1670 -0.2726  0.2557
 8400TIP3    H146615   3.327   4.050   0.948  0.1077  1.8064 -1.1752
 8400TIP3    H246616   3.304   3.944   0.842  0.6350 -0.6329  1.1070
 8401TIP3   OH246617   0.750   5.560  12.614 -0.2364 -0.2554 -0.0665
 8401TIP3    H146618   0.773   5.508  12.691  0.4324 -1.6490 -1.1677
 8401TIP3    H246619   0.813   5.632  12.614  0.0289 -0.4842  0.4737
 8402TIP3   OH246620   4.733   5.197   2.596 -0.6112 -0.2812  0.7130
 8402TIP3    H146621   4.743   5.163   2.507 -2.5062  1.4495 -0.2042
 8402TIP3    H246622   4.823   5.208   2.628  0.0705 -2.2394 -0.4427
 8403TIP3   OH246623   4.121   1.222  13.183  0.1206  0.0948  0.7794
 8403TIP3    H146624   4.085   1.256  13.265 -0.6510 -0.2293  0.5763
 8403TIP3    H246625   4.061   1.152  13.157  0.8197 -0.3620  0.3670
 8404TIP3   OH246626   4.723   0.247   0.637  0.7761 -0.4894  0.5376
 8404TIP3    H146627   4.785   0.312   0.669 -2.1474  3.3473 -1.2110
 8404TIP3    H246628   4.755   0.223   0.551  0.0010  1.3166 -0.2700
 8405TIP3   OH246629   3.264   4.279  11.368  0.1353 -0.4241  0.2819
 8405TIP3    H146630   3.243   4.228  11.290 -1.0348 -1.2161  1.1042
 8405TIP3    H246631   3.252   4.219  11.441  0.7766  0.4397  1.1171
 8406TIP3   OH246632   3.662   0.696  13.194 -0.2983  0.0065  0.6180
 8406TIP3    H146633   3.652   0.603  13.210 -0.0783 -0.2126 -0.4500
 8406TIP3    H246634   3.736   0.702  13.133  1.5110  1.0737  2.8333
 8407TIP3   OH246635   1.835   2.224   5.726  0.0464  0.2415 -0.5064
 8407TIP3    H146636   1.930   2.229   5.730  0.1592  0.1762 -2.6323
 8407TIP3    H246637   1.805   2.292   5.786  1.4092 -0.4369  0.9755
 8408TIP3   OH246638   3.273   6.197   1.302  0.4686  0.3068  0.4104
 8408TIP3    H146639   3.341   6.158   1.358  0.6231  1.7265  1.2327
 8408TIP3    H246640   3.211   6.237   1.364 -0.8612 -0.5422 -0.3547
 8409TIP3   OH246641   3.046   4.765   1.599 -0.3390 -0.3223  0.2068
 8409TIP3    H146642   3.066   4.696   1.662  0.1684 -0.6076 -0.2538
 8409TIP3    H246643   3.032   4.844   1.652 -3.1688 -1.2449  0.9004
 8410TIP3   OH246644   0.138   2.479  12.511 -0.0357 -0.7670  0.2479
 8410TIP3    H146645   0.129   2.494  12.417  0.8240 -1.8486 -0.0165
 8410TIP3    H246646   0.223   2.517  12.534 -1.3636  1.7868  1.0986
 8411TIP3   OH246647   5.845   6.370  14.041 -0.3768 -0.3296  0.2767
 8411TIP3    H146648   5.826   6.433  13.972  1.8736  1.9663  1.6885
 8411TIP3    H246649   5.785   6.393  14.112  0.3927  0.1471  0.7648
 8412TIP3   OH246650   5.788   4.492  14.659  0.6728  0.1553 -0.0206
 8412TIP3    H146651   5.731   4.443  14.718  0.7499 -0.1196 -0.1713
 8412TIP3    H246652   5.732   4.517  14.586  0.8003 -0.3218 -0.2855
 8413TIP3   OH246653   5.762   6.494   5.025 -0.3566 -0.5457  0.5557
 8413TIP3    H146654   5.677   6.472   5.063 -1.5291  2.2215 -0.3188
 8413TIP3    H246655   5.822   6.494   5.099 -1.7228  0.3787  1.6936
 8414TIP3   OH246656   4.096   5.486   3.871  0.0611 -0.2012  0.1752
 8414TIP3    H146657   4.120   5.542   3.797  0.3852 -0.5263  0.0310
 8414TIP3    H246658   4.154   5.514   3.942 -0.4232  0.2797  0.3790
 8415TIP3   OH246659   0.591   0.832  12.869 -0.1123 -0.0476 -0.1469
 8415TIP3    H146660   0.559   0.823  12.780  0.0724 -2.3389 -0.0020
 8415TIP3    H246661   0.673   0.782  12.871 -0.1018 -0.0093  1.3003
 8416TIP3   OH246662   3.320   6.280  11.878  0.0646 -0.7079 -0.7355
 8416TIP3    H146663   3.258   6.340  11.920  0.9130 -0.6238  0.4192
 8416TIP3    H246664   3.334   6.210  11.942  1.6621 -0.3830 -0.6993
 8417TIP3   OH246665   4.274   1.051  15.671  0.2895  0.1845 -0.8330
 8417TIP3    H146666   4.217   1.087  15.739  0.5656 -2.4601  0.8672
 8417TIP3    H246667   4.362   1.082  15.695  0.4556 -1.1635  0.3181
 8418TIP3   OH246668   0.906   4.163  12.565  0.1479  0.3277  0.0818
 8418TIP3    H146669   0.920   4.250  12.601  0.5489 -0.6812  2.4418
 8418TIP3    H246670   0.811   4.151  12.568  0.1958  0.1572  1.0512
 8419TIP3   OH246671   1.284   1.505   1.417  0.3710  0.0700 -0.2128
 8419TIP3    H146672   1.313   1.566   1.349  0.8363  0.9761  0.7945
 8419TIP3    H246673   1.192   1.525   1.429 -0.5635 -2.3166 -2.8942
 8420TIP3   OH246674   0.325   4.645  15.155  0.0680  0.0895  0.1148
 8420TIP3    H146675   0.297   4.652  15.246  0.9348  3.0395  0.2143
 8420TIP3    H246676   0.246   4.660  15.104 -0.2506 -0.6989  0.3706
 8421TIP3   OH246677   6.427   4.194  17.113 -0.1194  0.2360  0.4098
 8421TIP3    H146678   6.458   4.112  17.151  0.2398  0.0035 -0.3748
 8421TIP3    H246679   6.491   4.259  17.143  0.4806 -0.0434 -0.2544
 8422TIP3   OH246680   2.313   2.983  16.003  0.3812  0.2277 -0.0785
 8422TIP3    H146681   2.299   2.910  15.942  0.2218  1.1786 -1.1979
 8422TIP3    H246682   2.333   2.941  16.086  0.4058 -1.1007 -0.7378
 8423TIP3   OH246683   2.863   0.897   2.155 -0.5789  0.2104 -0.4060
 8423TIP3    H146684   2.783   0.928   2.112  0.3903  0.3702 -2.1794
 8423TIP3    H246685   2.892   0.824   2.100 -0.3695 -0.8747  1.1436
 8424TIP3   OH246686   5.949   2.506  15.542  0.6083 -0.4879  0.1917
 8424TIP3    H146687   5.895   2.442  15.497  0.8334 -0.6265  0.1199
 8424TIP3    H246688   5.892   2.582  15.555  0.5314 -0.4706 -0.2717
 8425TIP3   OH246689   1.700   2.412   5.855  0.1098  0.5426 -0.0473
 8425TIP3    H146690   1.649   2.340   5.892  0.1601  0.9178  0.7658
 8425TIP3    H246691   1.637   2.483   5.842 -0.2787 -0.2074 -2.4586
 8426TIP3   OH246692   5.973   3.676   2.310  0.8179  0.3763 -0.4318
 8426TIP3    H146693   5.965   3.582   2.295  0.2026 -0.1180  2.6176
 8426TIP3    H246694   5.922   3.716   2.239 -1.8616 -1.7399  0.1938
 8427TIP3   OH246695   4.247   2.345   0.257 -0.5083 -0.0183  0.2158
 8427TIP3    H146696   4.307   2.396   0.202 -0.2128 -0.5321  0.0555
 8427TIP3    H246697   4.302   2.313   0.329 -0.9282  0.7923  0.9170
 8428TIP3   OH246698   0.263   2.214   4.337  0.1504  0.4383 -0.0887
 8428TIP3    H146699   0.266   2.248   4.248  1.5620  0.8965  0.1145
 8428TIP3    H246700   0.355   2.195   4.359 -0.0866  0.9746  1.4889
 8429TIP3   OH246701   0.372   0.588   2.002 -0.3582 -0.1398 -0.0360
 8429TIP3    H146702   0.451   0.601   2.054 -1.7586 -1.7042  2.6133
 8429TIP3    H246703   0.358   0.671   1.956  2.7450  0.1674 -0.4813
 8430TIP3   OH246704   6.531   5.628   3.183 -0.6082  0.1524  0.3813
 8430TIP3    H146705   6.564   5.550   3.138 -0.6800  0.5673 -0.4072
 8430TIP3    H246706   6.607   5.686   3.190 -0.8306  0.5052 -0.1168
 8431TIP3   OH246707   4.590   3.411   1.243  0.8097  0.1417  0.0457
 8431TIP3    H146708   4.678   3.446   1.230  1.7819 -2.4633 -0.5616
 8431TIP3    H246709   4.575   3.353   1.168 -1.3834  0.4794  0.1966
 8432TIP3   OH246710   2.289   5.485   3.250 -0.0126 -0.6150 -0.2083
 8432TIP3    H146711   2.334   5.404   3.271 -0.0830 -0.8302 -0.8829
 8432TIP3    H246712   2.278   5.483   3.155  1.3805  0.8883 -0.4465
 8433TIP3   OH246713   3.732   4.091   6.071  0.3244  0.1946  0.0354
 8433TIP3    H146714   3.653   4.038   6.062  1.0903 -1.2472  1.5686
 8433TIP3    H246715   3.709   4.158   6.135  0.0602  0.3264 -0.1977
 8434TIP3   OH246716   0.680   3.482   1.664 -0.3352 -0.2436 -0.0212
 8434TIP3    H146717   0.682   3.440   1.750  0.7588  0.2213  0.1935
 8434TIP3    H246718   0.772   3.491   1.640 -0.5682  1.4272 -0.3524
 8435TIP3   OH246719   2.816   5.207  13.388  0.1074 -0.4734 -0.5532
 8435TIP3    H146720   2.724   5.213  13.416 -0.0051 -0.1436 -0.9962
 8435TIP3    H246721   2.827   5.278  13.325  0.5521 -0.7824 -0.8249
 8436TIP3   OH246722   1.570   2.591  13.427  0.8899  0.1957 -0.4177
 8436TIP3    H146723   1.609   2.524  13.484 -2.1122  0.7230  2.4116
 8436TIP3    H246724   1.578   2.672  13.477 -0.4557  0.9559 -1.4238
 8437TIP3   OH246725   2.193   4.355   4.587 -0.4710  0.0952  0.1818
 8437TIP3    H146726   2.265   4.418   4.582  0.3769 -0.9707 -1.2541
 8437TIP3    H246727   2.177   4.344   4.680  0.7428  0.8773  0.4903
 8438TIP3   OH246728   1.252   4.954  13.361 -0.3761  0.2642  0.5542
 8438TIP3    H146729   1.311   4.909  13.301  1.1738  1.2962  1.2825
 8438TIP3    H246730   1.244   4.895  13.436 -0.2342  0.1464  0.4764
 8439TIP3   OH246731   5.415   2.469   3.262 -0.0468  0.0697  0.0105
 8439TIP3    H146732   5.377   2.437   3.179  0.5239  0.9620 -0.5969
 8439TIP3    H246733   5.506   2.489   3.241 -0.2610  1.6049  0.5140
 8440TIP3   OH246734   3.204   1.151  13.613  0.2192 -0.1432 -0.5918
 8440TIP3    H146735   3.279   1.191  13.657  1.2942 -2.4950 -0.2123
 8440TIP3    H246736   3.131   1.164  13.674  0.9564 -0.3726  0.3512
 8441TIP3   OH246737   4.792   3.250  14.754  0.0735 -0.1842 -0.0888
 8441TIP3    H146738   4.731   3.321  14.735 -0.6662 -0.9887 -0.7392
 8441TIP3    H246739   4.873   3.274  14.709  0.1842  0.7903  0.6210
 8442TIP3   OH246740   5.214   2.708  15.326 -0.0956  0.5018  0.3633
 8442TIP3    H146741   5.145   2.672  15.270  1.4861 -0.3218 -1.0809
 8442TIP3    H246742   5.184   2.797  15.345 -0.9829  0.5805 -1.2678
 8443TIP3   OH246743   3.629   5.900  15.661  0.0280  0.1330 -0.5131
 8443TIP3    H146744   3.612   5.849  15.740  0.0407 -0.3183 -0.8010
 8443TIP3    H246745   3.724   5.896  15.651 -0.0074 -0.1101 -0.7503
 8444TIP3   OH246746   4.588   4.529   2.736  0.1091  0.1941 -0.0040
 8444TIP3    H146747   4.562   4.553   2.647 -1.1768  1.3266  0.6715
 8444TIP3    H246748   4.518   4.471   2.766  0.3435  0.1260  0.4076
 8445TIP3   OH246749   3.242   3.662  14.337 -0.0809 -0.7117 -0.2192
 8445TIP3    H146750   3.178   3.701  14.397  0.5044  0.8422 -0.5866
 8445TIP3    H246751   3.205   3.576  14.316  0.0194 -1.5969  2.8685
 8446TIP3   OH246752   1.578   4.166   3.647 -0.2522  0.3067  0.4876
 8446TIP3    H146753   1.575   4.073   3.624  0.7939  0.5424 -0.6196
 8446TIP3    H246754   1.501   4.203   3.604 -0.2432  0.1040  0.2958
 8447TIP3   OH246755   0.059   0.794  13.623  0.9938  0.0249 -0.4581
 8447TIP3    H146756   0.099   0.848  13.554  0.0610 -0.7989 -1.6562
 8447TIP3    H246757   0.101   0.709  13.614  0.2553 -0.3264 -0.5524
 8448TIP3   OH246758   5.161   5.253   1.560 -0.1327 -0.2138 -0.5518
 8448TIP3    H146759   5.124   5.340   1.578  1.4675  0.5118 -0.7352
 8448TIP3    H246760   5.102   5.215   1.495 -1.2621  0.4303  0.0780
 8449TIP3   OH246761   0.637   4.991  16.552  0.6688  0.2822 -0.0460
 8449TIP3    H146762   0.546   5.016  16.539  0.2371 -0.6194  1.1504
 8449TIP3    H246763   0.666   4.957  16.468  0.1311  1.2512 -0.6307
 8450TIP3   OH246764   0.171   1.114   6.204 -0.1474 -0.2503  0.1565
 8450TIP3    H146765   0.184   1.208   6.193  0.3852 -0.1685  1.4218
 8450TIP3    H246766   0.077   1.101   6.190  0.0537  0.1940 -1.8029
 8451TIP3   OH246767   6.538   6.721  16.075  0.4885  0.3333  0.7677
 8451TIP3    H146768   6.491   6.779  16.134  1.7713  0.5346  1.6262
 8451TIP3    H246769   6.598   6.778  16.028 -0.7952  0.2260 -1.0223
 8452TIP3   OH246770   2.939   2.775  15.976  0.2272 -0.0536  0.0723
 8452TIP3    H146771   2.892   2.693  15.959 -0.8313  0.7980 -1.2211
 8452TIP3    H246772   2.991   2.757  16.054  0.8617 -2.3084 -0.8222
 8453TIP3   OH246773   5.214   3.921   4.033  0.3487 -0.1671  0.0675
 8453TIP3    H146774   5.129   3.955   4.007  0.6068  0.6923  0.3105
 8453TIP3    H246775   5.199   3.879   4.118  0.1244 -0.2278 -0.0036
 8454TIP3   OH246776   0.101   6.404   3.265 -0.5594  0.1239  0.2915
 8454TIP3    H146777   0.071   6.315   3.248  1.0533 -0.0939 -1.5831
 8454TIP3    H246778   0.182   6.393   3.316  0.5956  0.4441 -1.4520
 8455TIP3   OH246779   3.756   4.047   1.750 -0.1616 -0.2991 -0.2154
 8455TIP3    H146780   3.697   4.110   1.792 -0.1299  0.5576 -1.4539
 8455TIP3    H246781   3.804   4.008   1.823 -0.8251  0.4527  0.6409
 8456TIP3   OH246782   0.216   3.394   3.785  0.0005  0.4714  0.4719
 8456TIP3    H146783   0.188   3.306   3.809 -0.3325  0.5992  0.5581
 8456TIP3    H246784   0.136   3.446   3.786  0.1613  0.7274  0.2044
 8457TIP3   OH246785   3.962   5.729  11.533  0.4152  0.1089 -0.3735
 8457TIP3    H146786   4.012   5.776  11.599 -0.7035  0.2717  0.3859
 8457TIP3    H246787   3.901   5.795  11.497 -0.0887 -0.3723 -0.4148
 8458TIP3   OH246788   1.854   5.852   4.278  0.6086 -0.0514  0.3805
 8458TIP3    H146789   1.869   5.813   4.192  1.2803  0.0844  0.4342
 8458TIP3    H246790   1.761   5.873   4.279  0.4302 -0.8024 -0.0063
 8459TIP3   OH246791   3.266   5.085   4.969  0.0487  0.0737 -0.5841
 8459TIP3    H146792   3.230   5.019   4.909 -0.6925  1.0494 -1.2203
 8459TIP3    H246793   3.199   5.152   4.974  0.3652  0.2960  0.8904
 8460TIP3   OH246794   1.482   1.882  11.394 -0.7286  0.5777 -0.0946
 8460TIP3    H146795   1.538   1.836  11.331 -1.8955 -0.9496 -0.0396
 8460TIP3    H246796   1.396   1.839  11.386 -0.7445 -0.0826  2.9908
 8461TIP3   OH246797   1.687   0.146  11.121  0.3758  0.8342  0.1223
 8461TIP3    H146798   1.645   0.225  11.084 -0.2956  0.4593  0.0672
 8461TIP3    H246799   1.705   0.091  11.045 -1.7212 -0.2804  0.3799
 8462TIP3   OH246800   6.771   4.504  11.050  0.2798  0.0859 -0.4542
 8462TIP3    H146801   6.684   4.512  11.090 -0.3831 -1.3479 -1.5675
 8462TIP3    H246802   6.832   4.507  11.124 -0.6151  2.3436  0.2354
 8463TIP3   OH246803   0.996   4.447  15.992 -0.0763  0.5445 -0.1066
 8463TIP3    H146804   1.086   4.480  15.987 -0.6028  1.7333 -2.2150
 8463TIP3    H246805   0.998   4.363  15.946  0.1484  0.1123  0.6839
 8464TIP3   OH246806   1.589   2.256   6.350 -0.7685 -0.1518  0.0403
 8464TIP3    H146807   1.631   2.188   6.297 -0.7251  0.4683 -0.7398
 8464TIP3    H246808   1.660   2.317   6.370 -1.6476  2.0589 -3.1207
 8465TIP3   OH246809   2.405   6.653  15.573  0.1203 -0.0599 -0.0265
 8465TIP3    H146810   2.477   6.692  15.623 -0.8955  0.0418  1.3918
 8465TIP3    H246811   2.403   6.702  15.491  1.5196  0.0800  0.0153
 8466TIP3   OH246812   5.511   1.416  13.237 -0.0778  0.3157 -0.4591
 8466TIP3    H146813   5.555   1.409  13.152  1.4568  0.1884  0.3263
 8466TIP3    H246814   5.571   1.373  13.298  0.1810  2.8968  1.1723
 8467TIP3   OH246815   2.484   3.641   4.826 -0.0997  0.3011  0.1862
 8467TIP3    H146816   2.398   3.681   4.838 -1.2339 -2.3795  1.4982
 8467TIP3    H246817   2.474   3.551   4.860  3.0617 -0.2351 -0.1029
 8468TIP3   OH246818   4.367   0.402  12.981  0.7244  0.0532  0.4138
 8468TIP3    H146819   4.442   0.454  12.950  0.8022 -0.6964 -0.6997
 8468TIP3    H246820   4.298   0.419  12.916  0.2439 -0.0050  0.9110
 8469TIP3   OH246821   6.053   5.917  13.501  0.1341  0.4026 -0.0105
 8469TIP3    H146822   5.986   5.980  13.525  0.8727  1.6294 -1.0948
 8469TIP3    H246823   6.126   5.970  13.468  1.1339 -0.9612 -0.0727
 8470TIP3   OH246824   0.347   0.082  17.069  0.3482 -0.2371  0.4852
 8470TIP3    H146825   0.409   0.114  17.003 -1.6523 -0.4529 -1.5879
 8470TIP3    H246826   0.389   0.101  17.153  2.1020  1.8585 -0.8024
 8471TIP3   OH246827   1.660   5.911  10.560  0.6985  0.1627  0.6837
 8471TIP3    H146828   1.618   5.826  10.549  1.0000 -0.0852  1.3784
 8471TIP3    H246829   1.747   5.890  10.595  0.8856  0.7388  0.5687
 8472TIP3   OH246830   4.942   5.499   5.048  0.1666  0.3668  0.1000
 8472TIP3    H146831   4.996   5.453   5.112  0.2933  1.0011  0.4564
 8472TIP3    H246832   4.956   5.592   5.067 -0.6750  0.5445 -0.1142
 8473TIP3   OH246833   2.033   5.067   4.056 -0.2729  0.2678 -0.2169
 8473TIP3    H146834   2.055   5.012   3.980 -0.5729 -0.1597  0.0057
 8473TIP3    H246835   2.105   5.052   4.118 -0.4757 -0.0629 -0.0575
 8474TIP3   OH246836   1.124   1.686  16.097  0.1584 -0.4534  0.5545
 8474TIP3    H146837   1.074   1.695  16.016  1.1597 -0.9417 -0.1232
 8474TIP3    H246838   1.059   1.700  16.167 -1.2009 -2.4187 -0.2730
 8475TIP3   OH246839   2.447   3.086   2.651  0.3179  0.0835  0.1223
 8475TIP3    H146840   2.495   3.110   2.571  0.5567 -0.2004  0.1794
 8475TIP3    H246841   2.490   3.006   2.681  0.5010  0.4176  0.7651
 8476TIP3   OH246842   3.049   1.982  11.929 -0.3976 -0.1668 -0.0781
 8476TIP3    H146843   3.122   2.012  11.875 -1.4386  0.6795 -1.0239
 8476TIP3    H246844   3.088   1.968  12.016  0.9880 -0.1933 -0.6992
 8477TIP3   OH246845   3.922   6.170   0.081 -0.1246 -0.8382 -0.1053
 8477TIP3    H146846   3.953   6.252   0.044  1.9892 -1.2076  0.7622
 8477TIP3    H246847   3.828   6.182   0.092  0.4530  2.2211  1.8879
 8478TIP3   OH246848   6.048   0.633   0.859 -0.2520  0.5436 -0.7902
 8478TIP3    H146849   5.999   0.699   0.907 -1.0214  0.1629 -1.0503
 8478TIP3    H246850   6.117   0.605   0.919 -0.6120  0.7725 -0.2751
 8479TIP3   OH246851   4.155   2.732   1.376  0.1951 -0.2867  0.2493
 8479TIP3    H146852   4.214   2.664   1.343 -0.2663 -0.4654 -0.2198
 8479TIP3    H246853   4.148   2.715   1.470  1.0747 -0.1228  0.3490
 8480TIP3   OH246854   3.810   5.262   4.282 -0.0830  0.0043  0.2812
 8480TIP3    H146855   3.811   5.205   4.358  0.3791 -2.3538 -1.4493
 8480TIP3    H246856   3.820   5.350   4.318 -1.0767 -0.9534  3.0097
 8481TIP3   OH246857   5.155   0.674  11.961  0.6427 -0.4844 -0.0975
 8481TIP3    H146858   5.076   0.702  12.007  1.1337  0.7910 -0.0080
 8481TIP3    H246859   5.177   0.590  12.001 -0.9423 -1.0872 -0.4785
 8482TIP3   OH246860   5.626   1.369  16.788 -0.1299  0.0796  0.0961
 8482TIP3    H146861   5.680   1.433  16.834 -1.3378  0.9789  0.2644
 8482TIP3    H246862   5.646   1.285  16.831  2.7899 -0.0114 -1.2681
 8483TIP3   OH246863   5.186   4.503  13.206 -0.1471 -0.4882  0.0127
 8483TIP3    H146864   5.222   4.453  13.133  1.2682  1.9074 -1.0091
 8483TIP3    H246865   5.103   4.538  13.173  0.3420  0.3354 -0.3711
 8484TIP3   OH246866   2.884   2.470   4.854 -0.0159  0.4212 -0.5178
 8484TIP3    H146867   2.824   2.509   4.791 -0.4613 -0.3087 -0.5487
 8484TIP3    H246868   2.954   2.432   4.801 -0.9122 -1.0855 -0.6399
 8485TIP3   OH246869   6.533   3.509   4.538  0.2250 -0.3529 -0.1224
 8485TIP3    H146870   6.509   3.565   4.612  0.3983  0.5806 -0.7677
 8485TIP3    H246871   6.614   3.547   4.504  0.4915 -1.1523 -0.4062
 8486TIP3   OH246872   3.441   5.440   1.836 -0.1237 -0.4247 -0.0770
 8486TIP3    H146873   3.452   5.347   1.817  0.6707 -0.8311  2.2984
 8486TIP3    H246874   3.405   5.443   1.924  0.0219  1.5287 -0.0600
 8487TIP3   OH246875   1.187   0.051  12.569 -0.1677 -0.2581  0.3380
 8487TIP3    H146876   1.093   0.036  12.584 -0.0616 -1.2137  0.0864
 8487TIP3    H246877   1.223  -0.037  12.558  0.3556  0.2248 -2.0312
 8488TIP3   OH246878   0.573   3.098  14.270 -0.3739 -0.6525  0.2496
 8488TIP3    H146879   0.654   3.128  14.229 -0.2422 -0.8748  0.3430
 8488TIP3    H246880   0.515   3.174  14.268 -0.1359 -0.4709  0.2531
 8489TIP3   OH246881   4.776   2.053  14.569 -0.3365 -0.0413  0.2430
 8489TIP3    H146882   4.715   2.114  14.528  0.7264  0.9645  0.1221
 8489TIP3    H246883   4.794   1.988  14.501  0.6537  1.0671 -0.5790
 8490TIP3   OH246884   0.021   5.219  11.554  0.1689  0.0701 -0.6026
 8490TIP3    H146885   0.116   5.226  11.565  0.0333  1.0656  0.0335
 8490TIP3    H246886  -0.014   5.238  11.641 -0.6047 -0.5042 -0.7911
 8491TIP3   OH246887   4.080   5.565   2.493 -0.7081  0.2784 -0.0568
 8491TIP3    H146888   4.070   5.627   2.565 -0.7673  0.4735 -0.2319
 8491TIP3    H246889   4.108   5.483   2.535 -2.0946 -0.0049  0.3347
 8492TIP3   OH246890   3.052   1.513  13.182  0.6573 -0.5734  0.2346
 8492TIP3    H146891   3.003   1.486  13.104  1.2374  1.6012 -0.9245
 8492TIP3    H246892   3.138   1.538  13.148  0.6714  1.1156  1.4762
 8493TIP3   OH246893   1.074   0.570   0.032 -0.7168 -0.5723 -0.3342
 8493TIP3    H146894   1.051   0.552  -0.059 -2.2020  0.0579 -0.0938
 8493TIP3    H246895   1.032   0.500   0.082 -2.2683  0.6591  0.1199
 8494TIP3   OH246896   1.995   4.486   5.907  0.5546 -0.2917  0.3864
 8494TIP3    H146897   2.012   4.567   5.859 -0.0358 -0.2780  0.1983
 8494TIP3    H246898   1.905   4.495   5.938  0.2056 -1.2292 -0.3346
 8495TIP3   OH246899   5.723   6.587   3.178  0.1804  0.0391  0.4599
 8495TIP3    H146900   5.762   6.646   3.243 -0.8818 -0.9774  2.0436
 8495TIP3    H246901   5.796   6.566   3.120  1.0796  1.2270  1.1154
 8496TIP3   OH246902   1.912   2.793  10.772  0.5308 -0.0848 -0.3613
 8496TIP3    H146903   1.940   2.822  10.685  1.3618 -0.2314 -0.1465
 8496TIP3    H246904   1.827   2.834  10.785 -0.0717 -0.8945 -1.6817
 8497TIP3   OH246905   2.646   0.026   4.020 -0.7541  0.0269  0.0794
 8497TIP3    H146906   2.600   0.058   3.942 -2.3659  1.8216  1.7018
 8497TIP3    H246907   2.667   0.105   4.070 -1.2171 -1.1540  2.2338
 8498TIP3   OH246908   4.759   5.537  13.330 -0.1590  0.2297 -0.6344
 8498TIP3    H146909   4.722   5.624  13.339 -0.5533  0.0097 -0.1132
 8498TIP3    H246910   4.726   5.505  13.245 -0.3793  0.4076 -0.6154
 8499TIP3   OH246911   5.744   2.714  16.768 -0.1849  0.2449  0.3879
 8499TIP3    H146912   5.733   2.788  16.828 -0.5341  0.0574  0.5583
 8499TIP3    H246913   5.736   2.637  16.823 -1.9780  0.0421 -0.1105
 8500TIP3   OH246914   5.319   5.184  11.269  0.2797 -0.0500  0.1822
 8500TIP3    H146915   5.345   5.247  11.201  2.0384  0.2393  1.0932
 8500TIP3    H246916   5.225   5.174  11.257  0.1073  2.0953 -0.5556
 8501TIP3   OH246917   6.393   0.642  13.711  0.0016  0.3508  0.1117
 8501TIP3    H146918   6.405   0.681  13.798  0.9730  1.0035 -0.3055
 8501TIP3    H246919   6.418   0.551  13.722  0.9984  0.6384  0.3193
 8502TIP3   OH246920   2.041   3.957   3.061 -0.4140  0.3623 -0.3007
 8502TIP3    H146921   2.037   4.022   2.991  1.9001 -0.0191 -0.7953
 8502TIP3    H246922   1.971   3.895   3.039 -0.2073  0.6542 -1.8500
 8503TIP3   OH246923   0.497   5.184   6.064  0.1866 -0.0472  0.9054
 8503TIP3    H146924   0.479   5.096   6.095  0.9844  0.2959  2.3968
 8503TIP3    H246925   0.556   5.221   6.130 -0.8673  1.9056  0.7897
 8504TIP3   OH246926   6.074   6.255  11.804  0.4000  0.5892  0.3331
 8504TIP3    H146927   6.146   6.192  11.798 -0.9664 -1.0614  0.9032
 8504TIP3    H246928   6.003   6.215  11.754 -0.9579  1.0003  1.9118
 8505TIP3   OH246929   1.445   1.960   5.913 -0.2726  0.1649 -0.4202
 8505TIP3    H146930   1.539   1.978   5.907 -0.2346  0.2762  0.4577
 8505TIP3    H246931   1.429   1.897   5.842  0.4172  0.3055 -0.7117
 8506TIP3   OH246932   5.624   1.842   2.350  0.7841  0.2514 -0.4945
 8506TIP3    H146933   5.536   1.845   2.387  0.8942 -0.8429 -0.1168
 8506TIP3    H246934   5.634   1.926   2.304 -0.1429  0.7248  0.1495
 8507TIP3   OH246935   2.946   4.627  13.256 -0.2364  0.2701 -0.4476
 8507TIP3    H146936   2.963   4.705  13.204  0.8695  0.4823  0.2196
 8507TIP3    H246937   2.900   4.659  13.333  0.5627  0.3200  0.0133
 8508TIP3   OH246938   5.587   1.293   3.721 -0.7341 -0.5230 -0.0791
 8508TIP3    H146939   5.499   1.330   3.721 -0.0738  1.1005  0.0455
 8508TIP3    H246940   5.615   1.297   3.812 -0.9781 -2.1516  0.0772
 8509TIP3   OH246941   4.812   4.500   3.489 -0.2099  0.1818  0.1325
 8509TIP3    H146942   4.874   4.572   3.479  0.1251 -0.3811 -2.0870
 8509TIP3    H246943   4.788   4.501   3.582  3.4685  0.1031  1.1461
 8510TIP3   OH246944   4.418   1.172  11.650 -0.1891  0.8772 -0.3985
 8510TIP3    H146945   4.487   1.118  11.690  0.3130  0.7756 -1.3694
 8510TIP3    H246946   4.387   1.120  11.576 -1.1043  1.0610 -0.1498
 8511TIP3   OH246947   6.755   1.724  14.846 -0.3412  0.0906 -0.1713
 8511TIP3    H146948   6.845   1.754  14.856 -0.7436  1.7573 -1.4522
 8511TIP3    H246949   6.722   1.720  14.936  0.2991  1.7100  0.1575
 8512TIP3   OH246950   6.207   6.765  14.670  0.0555 -0.1982 -0.1071
 8512TIP3    H146951   6.157   6.684  14.672 -0.2959  0.0561  2.3161
 8512TIP3    H246952   6.172   6.813  14.594 -1.2305 -1.3448 -0.2485
 8513TIP3   OH246953   3.567   2.688   2.939 -0.1402 -0.2611 -0.1618
 8513TIP3    H146954   3.617   2.606   2.933  0.5615  0.0485  1.2552
 8513TIP3    H246955   3.477   2.662   2.923  0.3825 -0.9274 -2.1648
 8514TIP3   OH246956   2.937   1.475  17.025  0.2934 -0.2945 -0.7286
 8514TIP3    H146957   2.856   1.488  16.976 -0.7524 -1.0203  0.7825
 8514TIP3    H246958   2.916   1.501  17.114  1.8337 -0.1797 -0.3819
 8515TIP3   OH246959   4.299   1.755  15.374 -0.3360  0.1000  0.1454
 8515TIP3    H146960   4.241   1.817  15.330 -0.4735 -2.4234 -3.3888
 8515TIP3    H246961   4.383   1.801  15.380 -0.8971  1.2819 -0.8074
 8516TIP3   OH246962   6.459   1.330  13.275 -0.3067  0.1573  0.2466
 8516TIP3    H146963   6.423   1.251  13.315 -1.5546  0.2836 -0.5775
 8516TIP3    H246964   6.420   1.332  13.187  0.0771  1.4348  0.0931
 8517TIP3   OH246965   3.462   1.019   3.608  0.2305 -0.6004  0.0580
 8517TIP3    H146966   3.544   1.066   3.621 -1.4045  1.8292  1.8425
 8517TIP3    H246967   3.421   1.016   3.694 -2.1985 -0.5374 -1.0471
 8518TIP3   OH246968   0.257   1.219   1.729  0.3145 -0.0386 -0.2439
 8518TIP3    H146969   0.243   1.200   1.822 -0.5482 -0.5512 -0.4752
 8518TIP3    H246970   0.189   1.282   1.707  0.5877  0.1634 -0.5041
 8519TIP3   OH246971   5.887   2.643   3.560  0.1035 -0.5235 -0.0391
 8519TIP3    H146972   5.907   2.567   3.504 -2.8196 -0.0616 -1.8121
 8519TIP3    H246973   5.926   2.717   3.514  2.3516 -0.7966  1.3404
 8520TIP3   OH246974   2.868   4.739  14.334 -0.1188  0.0424  0.2869
 8520TIP3    H146975   2.922   4.667  14.303 -1.5926 -0.4139 -1.3427
 8520TIP3    H246976   2.870   4.803  14.263 -1.7409 -0.0245  0.1447
 8521TIP3   OH246977   6.624   3.964   0.260  0.3412  0.1318  0.4996
 8521TIP3    H146978   6.639   3.871   0.275 -0.4326 -0.1138 -0.2057
 8521TIP3    H246979   6.688   4.008   0.316  0.0271 -0.8063  1.5977
 8522TIP3   OH246980   6.674   3.786  12.569  0.1057 -0.6261  0.2393
 8522TIP3    H146981   6.712   3.727  12.503  2.5731  1.3171 -0.1608
 8522TIP3    H246982   6.750   3.824  12.613 -1.4430  1.6117  1.0637
 8523TIP3   OH246983   3.084   2.370   3.851 -0.2776  0.4640  0.2601
 8523TIP3    H146984   3.054   2.407   3.768  1.3865 -2.1853 -1.6226
 8523TIP3    H246985   3.178   2.384   3.852  0.1577 -2.1381  0.2480
 8524TIP3   OH246986   3.175   4.779  14.617 -0.4698  0.7374 -0.3204
 8524TIP3    H146987   3.141   4.844  14.556 -2.4362 -1.8669 -2.0942
 8524TIP3    H246988   3.156   4.695  14.576  1.2790 -1.0118  2.2854
 8525TIP3   OH246989   0.109   5.577  10.894 -0.3086  0.8612  0.1511
 8525TIP3    H146990   0.147   5.569  10.807  0.1738 -1.5239  0.5412
 8525TIP3    H246991   0.043   5.646  10.886  0.9336  1.8758 -1.6511
 8526TIP3   OH246992   1.621   5.184  16.698 -0.0945  0.1198 -0.6073
 8526TIP3    H146993   1.625   5.094  16.666 -0.9340 -0.4638  0.8631
 8526TIP3    H246994   1.555   5.181  16.767  1.7838  1.2865  1.2677
 8527TIP3   OH246995   5.884   1.732   5.311  0.1085  0.8469  0.5079
 8527TIP3    H146996   5.839   1.660   5.355 -0.5956  0.2843 -1.0664
 8527TIP3    H246997   5.822   1.805   5.312 -1.0432 -0.0367 -1.9706
 8528TIP3   OH246998   6.050   6.653  13.742  0.1690 -0.7833  0.1568
 8528TIP3    H146999   6.069   6.647  13.836 -0.6950 -1.3696  0.3022
 8528TIP3    H247000   6.127   6.617  13.699  1.0199  0.4796  0.6074
 8529TIP3   OH247001   0.492   2.793  14.237  0.7301 -0.9008 -0.0429
 8529TIP3    H147002   0.489   2.886  14.260 -0.6921 -0.7812 -0.5942
 8529TIP3    H247003   0.478   2.792  14.142 -0.2164 -1.7112  0.0926
 8530TIP3   OH247004   5.999   1.717  15.717 -0.0201  0.5816  0.3705
 8530TIP3    H147005   5.981   1.804  15.753  0.2461 -0.0288  1.9908
 8530TIP3    H247006   5.912   1.682  15.695 -0.3750  0.0628  2.5242
 8531TIP3   OH247007   5.915   5.382  11.655 -0.1985  0.2775  0.1962
 8531TIP3    H147008   5.956   5.443  11.716  3.8068 -2.3035  0.2396
 8531TIP3    H247009   5.964   5.393  11.574  0.3982 -2.6506  0.1249
 8532TIP3   OH247010   6.149   3.687   6.186  0.0676 -0.2317 -0.2868
 8532TIP3    H147011   6.194   3.627   6.126 -1.1650 -1.2581 -0.2303
 8532TIP3    H247012   6.178   3.774   6.160  0.6530 -0.7564 -1.4453
 8533TIP3   OH247013   0.301   4.746  14.884  0.0988  0.2171  0.1770
 8533TIP3    H147014   0.211   4.780  14.891 -0.4790 -1.3306  0.3247
 8533TIP3    H247015   0.308   4.716  14.793  0.1475 -0.5499  0.4344
 8534TIP3   OH247016   0.306   3.996  12.706 -0.4919  0.2184 -0.1000
 8534TIP3    H147017   0.240   4.060  12.682  2.1510  2.1628 -2.4685
 8534TIP3    H247018   0.363   3.989  12.629  0.4957 -3.4673  0.8233
 8535TIP3   OH247019   3.189   4.024   2.047 -0.4124 -0.4722 -0.4568
 8535TIP3    H147020   3.168   3.978   2.128 -0.8024  0.2231 -0.1663
 8535TIP3    H247021   3.119   3.999   1.987  0.7408 -2.2707 -1.0900
 8536TIP3   OH247022   5.849   1.516   2.349  0.3910  0.2378 -0.1463
 8536TIP3    H147023   5.776   1.525   2.288  1.5929 -0.9317 -1.7906
 8536TIP3    H247024   5.813   1.469   2.424  0.1182 -2.8848 -2.1687
 8537TIP3   OH247025   3.215   6.269  16.188 -0.4970  0.2668 -0.1643
 8537TIP3    H147026   3.228   6.232  16.100 -0.7663 -0.3505  0.0489
 8537TIP3    H247027   3.299   6.308  16.210 -0.5169  0.6847 -0.8191
 8538TIP3   OH247028   4.900   3.533   1.119 -0.3595 -0.0894 -0.7563
 8538TIP3    H147029   4.988   3.516   1.155  0.9314  3.3374 -2.1136
 8538TIP3    H247030   4.878   3.452   1.073  1.3582 -1.6058  0.9575
 8539TIP3   OH247031   4.314   1.649  13.554  1.0247  0.0665 -0.4336
 8539TIP3    H147032   4.365   1.729  13.554 -0.8450  1.2899 -1.8926
 8539TIP3    H247033   4.337   1.605  13.473 -0.5760  0.8856 -1.3650
 8540TIP3   OH247034   1.624   3.054   3.379 -0.5629 -0.3435 -0.3997
 8540TIP3    H147035   1.625   3.076   3.473 -1.1078 -1.5479 -0.1064
 8540TIP3    H247036   1.531   3.042   3.359 -0.2215 -3.4505 -0.2890
 8541TIP3   OH247037   2.782   1.443   0.358  0.5434 -0.1757 -0.1790
 8541TIP3    H147038   2.708   1.491   0.320  1.0461 -0.4475 -1.5378
 8541TIP3    H247039   2.745   1.358   0.382  0.0418  0.2785  0.6644
 8542TIP3   OH247040   3.365   0.694  11.681  0.6156  0.4784  0.2071
 8542TIP3    H147041   3.453   0.677  11.647  1.1567 -0.8098  2.1152
 8542TIP3    H247042   3.380   0.727  11.770 -0.8340  0.2505  0.5460
 8543TIP3   OH247043   3.280   2.936  13.437 -0.0445 -0.1146 -0.6845
 8543TIP3    H147044   3.339   2.873  13.395 -0.3503 -0.3318 -0.7869
 8543TIP3    H247045   3.274   2.907  13.528  0.6980  0.4136 -0.4564
 8544TIP3   OH247046   1.266   6.303   6.024  0.2316  0.7236  0.4094
 8544TIP3    H147047   1.223   6.315   6.109  0.8749 -1.4262  1.0478
 8544TIP3    H247048   1.355   6.275   6.045  0.1315 -0.6963 -0.9686
 8545TIP3   OH247049   1.220   0.938   1.738  0.0790 -0.0568 -0.1230
 8545TIP3    H147050   1.248   0.898   1.820  1.3575 -0.3380 -0.6850
 8545TIP3    H247051   1.233   1.032   1.751  1.3769 -0.1949 -0.4146
 8546TIP3   OH247052   1.547   1.290  13.504 -0.2482  0.3060  0.1356
 8546TIP3    H147053   1.494   1.351  13.454 -0.7001  1.1056  1.5560
 8546TIP3    H247054   1.599   1.346  13.562  1.3834 -0.5199 -0.5086
 8547TIP3   OH247055   5.833   5.326  14.753 -0.3632 -0.2236 -0.2953
 8547TIP3    H147056   5.854   5.302  14.663 -1.7149 -1.7424 -0.2283
 8547TIP3    H247057   5.873   5.258  14.807 -0.7840 -0.1195  0.1575
 8548TIP3   OH247058   1.603   1.218  15.152 -0.5024 -0.7663 -0.1497
 8548TIP3    H147059   1.515   1.255  15.162 -0.2690 -0.5542  1.2835
 8548TIP3    H247060   1.639   1.218  15.241  0.7870 -1.2532 -0.6577
 8549TIP3   OH247061   2.000   5.514   3.365 -0.7724 -0.0188 -0.4501
 8549TIP3    H147062   2.095   5.502   3.365 -0.6819  0.5921  1.0200
 8549TIP3    H247063   1.979   5.535   3.456 -2.1114  1.4009 -1.0686
 8550TIP3   OH247064   4.032   5.082  10.287 -0.0937  0.1641 -0.4788
 8550TIP3    H147065   3.943   5.056  10.265 -1.3003  2.4397  1.4528
 8550TIP3    H247066   4.044   5.166  10.243  1.0989 -0.0852 -0.6626
 8551TIP3   OH247067   0.722   3.095   5.010  0.0218  0.5513  0.0152
 8551TIP3    H147068   0.754   3.160   5.072  0.1793  1.6401 -1.1975
 8551TIP3    H247069   0.654   3.140   4.960 -0.6924 -0.5732 -0.0503
 8552TIP3   OH247070   2.522   4.775  12.221 -0.4566 -0.5499  0.0934
 8552TIP3    H147071   2.436   4.811  12.242  0.5754  1.9815  0.0274
 8552TIP3    H247072   2.521   4.766  12.126 -1.0989 -1.7424  0.1993
 8553TIP3   OH247073   1.610   2.849  12.912  0.2306  0.2264  0.5975
 8553TIP3    H147074   1.696   2.811  12.898 -0.4341 -1.2464  0.3874
 8553TIP3    H247075   1.569   2.791  12.977 -0.5899  0.9157  0.7052
 8554TIP3   OH247076   0.062   0.395   2.634 -0.5017 -0.1257 -0.4235
 8554TIP3    H147077   0.087   0.307   2.662  1.4999  1.0376  1.5930
 8554TIP3    H247078   0.145   0.440   2.620 -1.5039  1.4469 -1.4328
 8555TIP3   OH247079   6.232   2.136   2.914 -0.3902  0.2285  0.4693
 8555TIP3    H147080   6.252   2.109   3.003  0.4293 -0.9147 -0.0548
 8555TIP3    H247081   6.280   2.074   2.858  1.1169  2.4517 -0.7613
 8556TIP3   OH247082   1.433   6.025  16.276  0.0203 -0.6885 -0.6228
 8556TIP3    H147083   1.409   6.049  16.366  0.1879  1.4813 -1.1248
 8556TIP3    H247084   1.489   5.948  16.286 -0.1189 -0.5989  1.1215
 8557TIP3   OH247085   1.224   1.933   4.113 -0.1677 -0.7912 -0.7524
 8557TIP3    H147086   1.302   1.880   4.102  0.0036 -0.4605 -1.1782
 8557TIP3    H247087   1.207   1.968   4.025  0.1829  0.4901 -0.3162
 8558TIP3   OH247088   0.548   2.281  15.354  0.2795 -0.2524  0.0555
 8558TIP3    H147089   0.492   2.205  15.369  0.9845 -0.2674  2.9908
 8558TIP3    H247090   0.628   2.245  15.315  0.1407 -0.8583  0.3289
 8559TIP3   OH247091   4.967   1.958   4.359 -0.1335  0.2182  0.5903
 8559TIP3    H147092   4.909   1.883   4.346  0.7988 -0.7526  1.8337
 8559TIP3    H247093   5.042   1.922   4.406  0.4747  1.8751  0.9287
 8560TIP3   OH247094   5.895   1.832  14.565 -0.2110 -0.3697  0.3738
 8560TIP3    H147095   5.916   1.848  14.657 -0.2445  0.7159  0.1953
 8560TIP3    H247096   5.820   1.888  14.547 -0.1965 -0.5737 -0.3230
 8561TIP3   OH247097   3.630   3.988   5.471  0.1529  0.0489 -0.5958
 8561TIP3    H147098   3.550   3.947   5.440  1.4026 -2.7642 -0.2722
 8561TIP3    H247099   3.700   3.933   5.437  1.8419  0.8684  1.4120
 8562TIP3   OH247100   6.616   5.943   5.171 -0.2228  0.1835  0.2331
 8562TIP3    H147101   6.523   5.960   5.155 -0.0411  2.0377  1.0066
 8562TIP3    H247102   6.653   5.930   5.084 -0.9337  0.9248 -0.1860
 8563TIP3   OH247103   2.005   1.727  15.723 -0.2643  0.0998 -0.3496
 8563TIP3    H147104   1.977   1.702  15.635  1.2211  0.8990 -1.0628
 8563TIP3    H247105   1.995   1.647  15.775 -1.4606 -0.2895 -1.1532
 8564TIP3   OH247106   4.714   4.353  16.439  0.4262  0.1541 -0.3026
 8564TIP3    H147107   4.762   4.388  16.364  1.9184  0.2663  0.6849
 8564TIP3    H247108   4.735   4.259  16.439 -0.1292  0.0311 -0.4371
 8565TIP3   OH247109   5.553   6.218   4.331 -0.0580 -0.2275  0.3600
 8565TIP3    H147110   5.625   6.274   4.362 -0.8388  1.4695 -0.8264
 8565TIP3    H247111   5.585   6.180   4.249 -0.7346  1.0555 -0.5184
 8566TIP3   OH247112   3.031   3.253   1.750  0.3969  0.1525  0.3470
 8566TIP3    H147113   3.038   3.277   1.658  0.6940 -0.7657  0.1270
 8566TIP3    H247114   3.112   3.287   1.790 -0.0867  1.2252  0.4269
 8567TIP3   OH247115   6.753   1.542   3.432  0.5455 -0.0146 -0.0087
 8567TIP3    H147116   6.828   1.513   3.379  0.7849  0.1677  0.2319
 8567TIP3    H247117   6.780   1.626   3.468  0.2499  0.0203  0.1333
 8568TIP3   OH247118   5.130   4.499  16.079 -0.1911  0.2197 -0.1798
 8568TIP3    H147119   5.162   4.425  16.028 -1.7080  0.0007 -0.8380
 8568TIP3    H247120   5.209   4.547  16.105  0.6935 -0.7113 -1.1364
 8569TIP3   OH247121   2.463   0.969  12.153 -0.4413 -0.3659 -0.8207
 8569TIP3    H147122   2.436   0.877  12.144  1.5445 -0.9318 -1.2195
 8569TIP3    H247123   2.507   0.973  12.238  2.5892 -0.6253 -2.3052
 8570TIP3   OH247124   3.356   0.016  13.473  0.1278 -0.0902 -0.6021
 8570TIP3    H147125   3.287  -0.046  13.498 -0.4359  0.1774 -1.5033
 8570TIP3    H247126   3.375  -0.005  13.382 -0.2935  1.2774 -1.0130
 8571TIP3   OH247127   1.415   2.454   6.541 -0.4340 -0.0120  0.2487
 8571TIP3    H147128   1.330   2.496   6.553  0.3547  1.5890  0.3977
 8571TIP3    H247129   1.477   2.527   6.539  0.9416 -1.1711  0.2219
 8572TIP3   OH247130   3.175   3.791   2.762 -0.1063 -0.1298  0.0524
 8572TIP3    H147131   3.102   3.761   2.708  0.6483 -0.0873 -1.0120
 8572TIP3    H247132   3.221   3.711   2.787 -0.1792 -0.1157  0.2316
 8573TIP3   OH247133   3.079   4.692  11.803 -0.2039 -0.3136  0.2370
 8573TIP3    H147134   3.173   4.682  11.793 -0.4450 -1.1838 -1.2361
 8573TIP3    H247135   3.057   4.636  11.878  0.4596 -0.0284  0.6488
 8574TIP3   OH247136   1.146   4.857  14.016 -0.2776 -0.4229  0.7514
 8574TIP3    H147137   1.179   4.868  14.105 -1.4236  0.7082  1.0401
 8574TIP3    H247138   1.053   4.876  14.022 -0.4537 -0.8022 -0.6072
 8575TIP3   OH247139   6.479   3.275   2.679 -0.1501  0.0021  0.4183
 8575TIP3    H147140   6.401   3.222   2.667 -0.1916 -0.0846  1.0476
 8575TIP3    H247141   6.477   3.301   2.771  0.4989  0.0963  0.4138
 8576TIP3   OH247142   2.760   4.670  15.289 -0.3391 -0.2833  0.4134
 8576TIP3    H147143   2.738   4.743  15.346  1.0632  0.7731 -0.3624
 8576TIP3    H247144   2.804   4.710  15.214  0.4129 -1.9045 -0.0411
 8577TIP3   OH247145   4.318   0.094   5.514 -0.3841  0.1371  0.4870
 8577TIP3    H147146   4.387   0.102   5.448  1.0126  0.9979  2.0071
 8577TIP3    H247147   4.350   0.027   5.574 -1.0463  0.2995  1.0209
 8578TIP3   OH247148   1.965   2.571  15.556 -0.4356 -0.1741  0.1248
 8578TIP3    H147149   2.037   2.545  15.499 -0.2826 -1.7237  0.9953
 8578TIP3    H247150   2.002   2.567  15.645 -0.9385  1.2770  0.4056
 8579TIP3   OH247151   0.701   4.813   1.653  0.5130  0.4177  0.4733
 8579TIP3    H147152   0.637   4.775   1.592 -0.0255  2.3918 -0.2414
 8579TIP3    H247153   0.736   4.889   1.606  1.0656  1.1911  2.1231
 8580TIP3   OH247154   6.311   1.817  12.331 -0.3238  0.1191 -0.9107
 8580TIP3    H147155   6.359   1.892  12.366  1.5753 -1.4955  0.0624
 8580TIP3    H247156   6.243   1.800  12.396 -0.8024  1.0076 -1.1675
 8581TIP3   OH247157   2.171   0.154   5.595  0.3116 -0.6626  0.3263
 8581TIP3    H147158   2.098   0.192   5.645  0.0282 -0.3849 -0.2904
 8581TIP3    H247159   2.173   0.063   5.622 -0.2917 -0.6804  0.3317
 8582TIP3   OH247160   4.754   3.436  12.069  1.0508  0.7321  0.3661
 8582TIP3    H147161   4.828   3.480  12.110  1.6227  0.4736 -0.3807
 8582TIP3    H247162   4.775   3.436  11.976  0.9714 -0.9940  0.3420
 8583TIP3   OH247163   4.976   4.659  12.932 -0.8276 -0.0516 -0.2463
 8583TIP3    H147164   4.942   4.703  12.854  1.0985 -0.4116 -1.2990
 8583TIP3    H247165   5.040   4.597  12.900 -0.2643 -0.4737  1.6016
 8584TIP3   OH247166   0.174   0.362   1.673 -0.2883  0.5687 -0.3889
 8584TIP3    H147167   0.173   0.270   1.701 -0.6903  0.5910 -0.3134
 8584TIP3    H247168   0.088   0.375   1.632 -0.0827  0.8075 -0.7480
 8585TIP3   OH247169   4.802   5.226   3.471 -0.5440  0.2618 -0.0091
 8585TIP3    H147170   4.834   5.309   3.505 -0.1852  0.1492 -0.0745
 8585TIP3    H247171   4.734   5.200   3.533 -0.0592  0.1787  0.4884
 8586TIP3   OH247172   5.468   2.920  17.026 -0.1829  0.3260  0.2237
 8586TIP3    H147173   5.490   2.834  17.064 -0.4697  0.0310 -0.2757
 8586TIP3    H247174   5.379   2.909  16.994 -0.3839  0.9567  0.5779
 8587TIP3   OH247175   3.359   4.254   5.221  0.5848  0.0589 -0.0463
 8587TIP3    H147176   3.431   4.316   5.210 -0.8966  1.4066 -2.6228
 8587TIP3    H247177   3.368   4.193   5.147 -0.1871 -0.5032  0.3116
 8588TIP3   OH247178   6.530   5.935   3.172  0.2209  0.3190  0.6323
 8588TIP3    H147179   6.513   6.005   3.236  1.3097 -0.5553  1.9212
 8588TIP3    H247180   6.445   5.920   3.130 -0.5312  0.9243  1.8789
 8589TIP3   OH247181   2.089   2.406  14.255  0.5233 -0.2198 -0.5984
 8589TIP3    H147182   2.184   2.412  14.265  0.5161 -0.4486 -0.3679
 8589TIP3    H247183   2.074   2.317  14.222  0.2002 -1.1672  1.9625
 8590TIP3   OH247184   6.511   5.925   0.731 -0.2381 -0.0401  0.5205
 8590TIP3    H147185   6.591   5.952   0.686 -0.5904 -1.2343 -0.8390
 8590TIP3    H247186   6.542   5.871   0.804  0.2543  0.6662  0.8426
 8591TIP3   OH247187   4.246   3.744  14.356  0.1889 -0.3060 -0.0396
 8591TIP3    H147188   4.241   3.712  14.445  2.0181 -0.5282  0.0083
 8591TIP3    H247189   4.256   3.666  14.302 -1.3463 -0.2034 -0.4847
 8592TIP3   OH247190   1.964   1.511  15.864  0.5903  0.1137  0.1444
 8592TIP3    H147191   1.876   1.499  15.902 -0.4773 -0.4003 -2.3921
 8592TIP3    H247192   1.992   1.422  15.842  1.0429  0.4514 -0.6295
 8593TIP3   OH247193   6.441   5.582  14.310 -0.1036 -0.7275 -0.1304
 8593TIP3    H147194   6.440   5.490  14.335 -0.8236 -0.7167 -0.0931
 8593TIP3    H247195   6.368   5.591  14.248 -1.6245  0.2959  1.7166
 8594TIP3   OH247196   3.190   1.131   3.635 -0.5716 -0.9182  0.3991
 8594TIP3    H147197   3.138   1.171   3.705 -1.7904  0.3984 -1.2061
 8594TIP3    H247198   3.248   1.070   3.680 -0.8395  0.4083  2.6187
 8595TIP3   OH247199   2.381   3.753   2.075  0.5797 -0.0464  0.2284
 8595TIP3    H147200   2.350   3.701   2.149 -1.2664 -0.0223 -0.5088
 8595TIP3    H247201   2.354   3.842   2.097  2.8751  0.4738  1.0280
 8596TIP3   OH247202   4.445   0.512   3.611  0.5631 -0.0318 -0.6856
 8596TIP3    H147203   4.404   0.574   3.550  2.2664  1.2017 -0.6100
 8596TIP3    H247204   4.531   0.549   3.628  0.2316 -0.5078  2.2613
 8597TIP3   OH247205   0.773   6.510   6.594 -0.1394 -0.0369 -0.1325
 8597TIP3    H147206   0.851   6.507   6.538 -0.5004  0.5555 -0.6672
 8597TIP3    H247207   0.727   6.589   6.568 -0.6236 -0.0732  0.5946
 8598TIP3   OH247208   0.700   3.487   4.417  0.1372  0.2738 -0.1400
 8598TIP3    H147209   0.698   3.542   4.338 -0.0453 -0.4079 -0.6188
 8598TIP3    H247210   0.775   3.429   4.403 -1.7607 -2.0171 -1.3272
 8599TIP3   OH247211   1.597   1.126  13.762 -0.0646 -0.0187  0.4768
 8599TIP3    H147212   1.619   1.185  13.691 -0.2416 -0.0488  0.3960
 8599TIP3    H247213   1.596   1.181  13.840 -2.5435  0.5638  0.0771
 8600TIP3   OH247214   4.805   0.820   4.705  0.5312 -0.2339 -0.0234
 8600TIP3    H147215   4.725   0.768   4.701 -0.9662  1.8199  1.9052
 8600TIP3    H247216   4.860   0.774   4.769  0.2163 -0.7695 -0.1383
 8601TIP3   OH247217   0.258   4.202   2.817  0.7029  0.3560 -0.3372
 8601TIP3    H147218   0.188   4.147   2.782  0.1403  0.8852 -0.0611
 8601TIP3    H247219   0.336   4.148   2.812  0.1721 -0.4377 -0.1513
 8602TIP3   OH247220   5.392   1.921   1.552  0.0207  0.2242 -0.1050
 8602TIP3    H147221   5.395   1.847   1.614 -0.7014 -0.0046 -0.3299
 8602TIP3    H247222   5.364   1.995   1.605  1.8077  0.5805  0.3438
 8603TIP3   OH247223   5.817   1.568   2.853 -0.0028 -0.0954  0.4041
 8603TIP3    H147224   5.796   1.537   2.942 -1.9947  0.7311  0.2539
 8603TIP3    H247225   5.793   1.661   2.854  1.4673  0.3022 -0.5374
 8604TIP3   OH247226   6.303   3.349   2.909  0.1000 -0.4436 -0.2852
 8604TIP3    H147227   6.307   3.435   2.868 -1.8526 -0.9107 -1.5147
 8604TIP3    H247228   6.337   3.363   2.997 -1.6556  1.9113  0.0508
 8605TIP3   OH247229   0.473   1.312  14.299  0.6550 -0.3405  0.2462
 8605TIP3    H147230   0.541   1.284  14.237 -0.4571 -0.5019 -0.9373
 8605TIP3    H247231   0.391   1.291  14.254 -0.2536 -3.8179  3.2520
 8606TIP3   OH247232   1.117   4.676  15.612  0.0613  0.3546  0.4840
 8606TIP3    H147233   1.188   4.653  15.552 -0.5751 -0.6305  0.0825
 8606TIP3    H247234   1.064   4.596  15.618 -0.3380  0.6984  1.7273
 8607TIP3   OH247235   4.527   0.684  12.079 -0.6348  0.8594 -1.1301
 8607TIP3    H147236   4.453   0.672  12.019 -0.6463  1.7797 -1.3067
 8607TIP3    H247237   4.487   0.681  12.166 -0.7707  0.5971 -1.2008
 8608TIP3   OH247238   6.401   1.104  12.287  0.3220 -0.4935 -0.0572
 8608TIP3    H147239   6.443   1.181  12.248 -0.4505 -0.4575 -0.8419
 8608TIP3    H247240   6.473   1.048  12.314  0.8609 -0.7792 -2.0559
 8609TIP3   OH247241   5.608   5.441  11.654 -0.4671 -0.4244 -0.0631
 8609TIP3    H147242   5.583   5.390  11.577  0.0253  0.6758 -0.9866
 8609TIP3    H247243   5.675   5.501  11.621  1.1221 -1.2130  1.6479
 8610TIP3   OH247244   1.910   5.847  17.126  0.1818  0.8610  0.3728
 8610TIP3    H147245   1.876   5.785  17.061 -3.0525  1.0280  1.8075
 8610TIP3    H247246   1.894   5.933  17.088 -1.1464  0.9449  1.1179
 8611TIP3   OH247247   5.460   6.737   1.503  0.0406 -0.5559  0.4517
 8611TIP3    H147248   5.379   6.716   1.457  1.7642  1.2427 -3.6603
 8611TIP3    H247249   5.454   6.831   1.519  1.2101 -0.4729  0.3984
 8612TIP3   OH247250   2.499   2.162  11.724 -0.2793  0.2098  0.1306
 8612TIP3    H147251   2.507   2.068  11.710  1.6015  0.2529  0.7877
 8612TIP3    H247252   2.515   2.174  11.818 -0.7049  1.1585  0.0903
 8613TIP3   OH247253   4.105   0.643  14.568  0.3887 -0.3425  0.4000
 8613TIP3    H147254   4.123   0.638  14.662  1.5015  3.2170  0.4365
 8613TIP3    H247255   4.063   0.728  14.556  0.0630 -0.8546 -2.3168
 8614TIP3   OH247256   5.642   1.430   0.852  1.2771  0.2823  0.0865
 8614TIP3    H147257   5.645   1.525   0.854  1.2679  0.2759  0.5972
 8614TIP3    H247258   5.604   1.408   0.767 -1.2638  0.7936  1.0458
 8615TIP3   OH247259   5.222   1.677  14.242 -0.2001  0.2433  0.4041
 8615TIP3    H147260   5.253   1.734  14.312 -3.3080  1.0727  1.1707
 8615TIP3    H247261   5.202   1.737  14.170 -1.0264 -0.1443  0.3063
 8616TIP3   OH247262   0.661   1.317   3.760 -0.6884 -0.2463 -0.0694
 8616TIP3    H147263   0.619   1.242   3.718  0.6046 -2.1865  1.9588
 8616TIP3    H247264   0.748   1.321   3.721 -1.3242  1.3208 -1.4119
 8617TIP3   OH247265   6.051   4.122  11.161 -0.3147 -0.1275 -0.3051
 8617TIP3    H147266   6.060   4.147  11.069 -1.8178 -0.3984 -0.5260
 8617TIP3    H247267   5.960   4.141  11.183  0.5912  2.0146  1.7598
 8618TIP3   OH247268   0.299   5.242  13.657 -0.1466 -0.5531 -0.5692
 8618TIP3    H147269   0.287   5.329  13.619  1.2753 -0.2287 -0.2791
 8618TIP3    H247270   0.316   5.185  13.582  1.6451 -0.0911 -0.5252
 8619TIP3   OH247271   0.775   5.507   3.032  0.6468  0.3583 -0.3362
 8619TIP3    H147272   0.721   5.569   3.080 -0.6721 -0.1083 -1.1840
 8619TIP3    H247273   0.750   5.519   2.940  0.4942 -1.2842 -0.5390
 8620TIP3   OH247274   0.267   3.026  16.427 -0.0416 -0.1632  0.7370
 8620TIP3    H147275   0.317   3.008  16.348  0.9300 -0.8180  1.4904
 8620TIP3    H247276   0.176   3.011  16.402  0.4546 -3.0076  0.4306
 8621TIP3   OH247277   6.772   1.701   5.110 -0.0810  0.2044 -0.0519
 8621TIP3    H147278   6.865   1.715   5.127  0.1518 -0.6166 -0.6316
 8621TIP3    H247279   6.742   1.784   5.071  0.6377  0.1118 -0.8133
 8622TIP3   OH247280   1.804   1.925   4.691 -0.0565  0.5764  0.3210
 8622TIP3    H147281   1.851   1.906   4.609  1.1699 -0.1346  1.1765
 8622TIP3    H247282   1.714   1.944   4.663  0.3638  0.4048 -1.1967
 8623TIP3   OH247283   3.932   0.466  16.640 -0.0237  0.6033  0.3302
 8623TIP3    H147284   3.927   0.373  16.658 -1.3861  0.1340 -2.2125
 8623TIP3    H247285   3.973   0.504  16.718  0.0369 -2.0189  1.6160
 8624TIP3   OH247286   0.173   2.589  14.706  0.2561 -0.1574  0.3512
 8624TIP3    H147287   0.185   2.524  14.637  0.6103 -0.3261  0.5690
 8624TIP3    H247288   0.086   2.626  14.689  0.5365  0.1349 -0.4572
 8625TIP3   OH247289   6.586   2.202   4.178 -0.2751 -0.0408 -0.2526
 8625TIP3    H147290   6.505   2.186   4.226  0.4318 -0.4834  0.8053
 8625TIP3    H247291   6.647   2.137   4.212  0.3329 -0.1453 -1.5194
 8626TIP3   OH247292   1.388   3.091   4.185 -0.0860 -0.0272  0.5739
 8626TIP3    H147293   1.392   3.001   4.218  0.4572 -0.1662  0.1447
 8626TIP3    H247294   1.477   3.110   4.156 -0.3910  0.3410 -0.1476
 8627TIP3   OH247295   3.827   1.350  12.480  0.8285  0.0371 -0.6374
 8627TIP3    H147296   3.803   1.265  12.443 -2.1640  0.2274  0.7999
 8627TIP3    H247297   3.818   1.339  12.574 -1.8887  2.6092 -0.5492
 8628TIP3   OH247298   0.195   1.611  16.756  0.2446 -0.1889 -0.3516
 8628TIP3    H147299   0.201   1.647  16.844  1.6191 -0.4682 -0.3213
 8628TIP3    H247300   0.101   1.607  16.737  0.0177  1.9079  0.2612
 8629TIP3   OH247301   3.884   6.648  11.765  0.1823 -0.6671  0.0698
 8629TIP3    H147302   3.935   6.625  11.843  1.7024  0.4861 -0.5487
 8629TIP3    H247303   3.844   6.732  11.788  0.2947 -0.5331 -0.2208
 8630TIP3   OH247304   2.980   1.306  10.421 -0.0953  0.0914  0.1323
 8630TIP3    H147305   3.070   1.274  10.424 -0.1354 -0.0506 -0.1123
 8630TIP3    H247306   2.988   1.401  10.419  0.0180  0.1032  1.1526
 8631TIP3   OH247307   1.390   1.446  13.286 -0.4162 -0.0631  0.1684
 8631TIP3    H147308   1.365   1.485  13.369  0.4954 -1.5233  1.1566
 8631TIP3    H247309   1.387   1.518  13.223 -6.0599  0.0948  0.3532
 8632TIP3   OH247310   5.789   6.178   3.563 -0.4941 -0.6968 -0.0024
 8632TIP3    H147311   5.785   6.082   3.568 -0.7600 -0.6871 -0.0333
 8632TIP3    H247312   5.754   6.199   3.476  0.7719 -0.6457 -0.5164
 8633TIP3   OH247313   1.499   0.389   3.190 -0.6289  0.3995 -0.2094
 8633TIP3    H147314   1.442   0.324   3.149  0.4278 -0.0052 -1.0380
 8633TIP3    H247315   1.569   0.338   3.231 -0.6706  0.9169  0.5317
 8634TIP3   OH247316   6.558   5.006   1.642 -0.2261 -0.3296  0.4416
 8634TIP3    H147317   6.562   5.057   1.723  0.2022  0.5621 -0.1230
 8634TIP3    H247318   6.469   5.022   1.609 -0.2258 -0.2645  0.4701
 8635TIP3   OH247319   5.522   4.046   2.252 -0.2442  0.0305  0.5526
 8635TIP3    H147320   5.609   4.007   2.249 -0.5769 -0.6012 -0.9038
 8635TIP3    H247321   5.531   4.129   2.204 -0.1790  0.4998  1.3672
 8636TIP3   OH247322   4.744   1.380  14.802 -0.0593 -0.1966  0.2149
 8636TIP3    H147323   4.749   1.365  14.707  0.4795  0.8485  0.0645
 8636TIP3    H247324   4.835   1.398  14.828 -0.4145  1.0394  0.6541
 8637TIP3   OH247325   1.337   1.030  17.053  1.0886 -0.0632  0.3777
 8637TIP3    H147326   1.288   1.073  17.124  3.2863  2.0384  0.6970
 8637TIP3    H247327   1.361   0.945  17.089 -1.5745 -0.8012  0.5146
 8638TIP3   OH247328   6.116   3.886  14.273  0.3524 -0.5766 -0.0887
 8638TIP3    H147329   6.077   3.815  14.324 -0.8235 -0.0615 -0.2412
 8638TIP3    H247330   6.084   3.966  14.315  0.6427 -0.1412 -0.6824
 8639TIP3   OH247331   6.617   5.877  12.909 -0.6092 -0.4713  0.1991
 8639TIP3    H147332   6.693   5.839  12.954  1.2624  0.6059 -1.9463
 8639TIP3    H247333   6.597   5.957  12.958  1.1670  0.4925 -0.6016
 8640TIP3   OH247334   5.024   3.969   3.252  0.5219 -0.1689 -0.0669
 8640TIP3    H147335   4.929   3.970   3.237  0.3007  3.4091  1.3328
 8640TIP3    H247336   5.038   3.891   3.305 -1.8330 -0.0236  0.8423
 8641TIP3   OH247337   3.692   2.321   3.309  0.5715  0.2530 -0.0686
 8641TIP3    H147338   3.607   2.278   3.316  0.5469  0.1265 -1.0528
 8641TIP3    H247339   3.739   2.296   3.389 -0.1601 -0.0193  0.2749
 8642TIP3   OH247340   5.031   4.359  16.512 -0.5289 -0.5595 -0.1099
 8642TIP3    H147341   4.959   4.418  16.536 -0.6985 -1.0338  0.5465
 8642TIP3    H247342   4.993   4.302  16.444 -0.0632  0.7415 -1.5006
 8643TIP3   OH247343   4.479   5.695  15.816 -0.4317  0.2147  0.0436
 8643TIP3    H147344   4.520   5.753  15.881 -1.1010  0.2942  0.3994
 8643TIP3    H247345   4.506   5.607  15.843 -0.9290  0.2268  0.5980
 8644TIP3   OH247346   4.220   3.627  15.543  0.4191 -0.2574  0.0168
 8644TIP3    H147347   4.222   3.580  15.626  0.1303 -1.8725 -0.8693
 8644TIP3    H247348   4.298   3.682  15.544  1.6974 -2.0567  0.3381
 8645TIP3   OH247349   0.438   0.009   3.457  0.5904  0.2370 -0.0011
 8645TIP3    H147350   0.480   0.052   3.531 -0.1199  1.1967 -0.1435
 8645TIP3    H247351   0.351   0.050   3.452  0.7098  0.3373 -1.4834
 8646TIP3   OH247352   2.644   4.021  15.056 -0.4743  0.0610  0.7480
 8646TIP3    H147353   2.615   4.047  15.144  0.2198 -0.7489  1.2228
 8646TIP3    H247354   2.731   4.061  15.048  0.3747 -1.6585  1.2746
 8647TIP3   OH247355   3.960   1.028  12.539  0.4535  0.6316  0.2539
 8647TIP3    H147356   4.044   1.073  12.538  0.8164 -0.0465 -0.0568
 8647TIP3    H247357   3.919   1.051  12.456  0.9044 -0.0979 -0.1783
 8648TIP3   OH247358   3.344   4.241  16.285  0.4897  0.4490 -0.1374
 8648TIP3    H147359   3.399   4.190  16.344  0.8699  0.3039 -0.6138
 8648TIP3    H247360   3.284   4.289  16.342  0.0840 -0.5827  0.3057
 8649TIP3   OH247361   5.558   4.734  13.749  1.0246  0.0457 -0.4179
 8649TIP3    H147362   5.642   4.726  13.704  0.0658 -0.0143 -2.2427
 8649TIP3    H247363   5.506   4.792  13.693 -0.4090 -0.5303  0.2993
 8650TIP3   OH247364   3.101   2.409   4.116 -0.6429  0.4052  0.2985
 8650TIP3    H147365   3.187   2.378   4.088 -0.1111  2.0811  0.0183
 8650TIP3    H247366   3.047   2.408   4.037 -0.7076 -0.0270  0.3452
 8651TIP3   OH247367   5.456   0.257   3.460  0.0106  0.2805  0.7582
 8651TIP3    H147368   5.377   0.297   3.498 -0.5588  0.0882 -0.1980
 8651TIP3    H247369   5.529   0.296   3.508 -0.5977  1.6538  0.5804
 8652TIP3   OH247370   2.702   3.888   1.152  0.6309  0.0511 -0.0973
 8652TIP3    H147371   2.612   3.877   1.120 -0.5090  3.5040  1.7154
 8652TIP3    H247372   2.705   3.833   1.231  0.3674 -0.6560 -0.5673
 8653TIP3   OH247373   1.691   2.435  15.601 -0.3511  0.4109  0.4264
 8653TIP3    H147374   1.771   2.482  15.574 -1.0044  1.2706 -0.0464
 8653TIP3    H247375   1.629   2.505  15.621 -1.5526 -0.2616 -0.9034
 8654TIP3   OH247376   1.890   6.539   2.590  0.1925 -0.1384  0.4786
 8654TIP3    H147377   1.976   6.504   2.567  0.6152  2.2002 -1.7054
 8654TIP3    H247378   1.906   6.592   2.668  0.9566  1.1371 -0.5290
 8655TIP3   OH247379   1.896   6.043   0.798 -0.0392  0.6646 -0.6086
 8655TIP3    H147380   1.872   5.953   0.818  0.1925  0.4434 -1.3218
 8655TIP3    H247381   1.883   6.090   0.880  0.4690 -0.1436 -0.0624
 8656TIP3   OH247382   3.356   4.792  15.169  0.2199  0.5555 -0.3897
 8656TIP3    H147383   3.299   4.822  15.240 -0.6468 -2.2227  0.1423
 8656TIP3    H247384   3.305   4.806  15.090  0.8198  2.7941 -0.3968
 8657TIP3   OH247385   0.697   6.057  16.440 -0.2751 -0.2713  0.5501
 8657TIP3    H147386   0.767   5.998  16.411 -0.1234  0.8597 -1.4199
 8657TIP3    H247387   0.617   6.006  16.428 -0.1149 -0.2141 -0.8179
 8658TIP3   OH247388   4.583   0.186  13.776  0.1081 -0.2921 -0.0817
 8658TIP3    H147389   4.667   0.153  13.744  1.0406 -0.0648  2.0601
 8658TIP3    H247390   4.564   0.261  13.719  2.4637  1.0233  0.7868
 8659TIP3   OH247391   6.503   4.144  12.140 -0.3768  0.0729  0.1965
 8659TIP3    H147392   6.435   4.079  12.124 -0.0810  0.7885 -5.0781
 8659TIP3    H247393   6.456   4.224  12.163 -1.1750 -0.1894 -0.4983
 8660TIP3   OH247394   0.903   0.303  17.128  0.4326  0.6519 -0.7012
 8660TIP3    H147395   0.844   0.227  17.129  0.0654  0.9395 -0.1714
 8660TIP3    H247396   0.990   0.265  17.135  0.1770  0.3434  1.0062
 8661TIP3   OH247397   5.355   2.809  15.570  1.0138  0.1459 -0.5213
 8661TIP3    H147398   5.326   2.765  15.491  0.0244  1.4341 -0.9020
 8661TIP3    H247399   5.274   2.841  15.611  1.4370 -1.2925  1.4915
 8662TIP3   OH247400   0.369   1.384  11.279 -0.1978 -0.0849 -0.6275
 8662TIP3    H147401   0.446   1.427  11.243  1.5994 -1.9086  0.9245
 8662TIP3    H247402   0.327   1.450  11.334  2.8802 -0.3996  2.2495
 8663TIP3   OH247403   4.667   3.379   3.400 -0.2009 -0.3502 -0.6395
 8663TIP3    H147404   4.605   3.343   3.464  0.9159 -1.5688 -0.2181
 8663TIP3    H247405   4.753   3.355   3.434  0.6408  2.9996 -0.1584
 8664TIP3   OH247406   1.130   0.035  16.151 -0.1928  0.0381 -0.5324
 8664TIP3    H147407   1.176  -0.048  16.162  1.1289  0.7302 -0.7438
 8664TIP3    H247408   1.117   0.042  16.056 -1.3475 -0.4744 -0.4175
 8665TIP3   OH247409   5.537   1.364   6.399 -0.3948  0.3755  0.0351
 8665TIP3    H147410   5.545   1.316   6.317  0.0973  2.2565 -1.0697
 8665TIP3    H247411   5.447   1.349   6.427 -0.2229 -1.2406 -0.2183
 8666TIP3   OH247412   6.428   4.769   1.978  0.1767  0.3350  0.1719
 8666TIP3    H147413   6.455   4.854   2.013  0.1502  0.0666  0.8469
 8666TIP3    H247414   6.466   4.705   2.037 -1.3433 -0.0621  0.7405
 8667TIP3   OH247415   0.061   4.523  14.789 -0.4852  0.3751 -0.3599
 8667TIP3    H147416   0.039   4.560  14.704 -0.7561  0.4254 -0.2671
 8667TIP3    H247417   0.054   4.596  14.850  1.1960  0.6998 -0.5192
 8668TIP3   OH247418   5.748   3.130   4.874  0.0851  0.0454 -0.7024
 8668TIP3    H147419   5.710   3.060   4.821 -0.5620  0.8772 -1.3418
 8668TIP3    H247420   5.777   3.195   4.811  2.7665 -0.6381 -0.2498
 8669TIP3   OH247421   3.037   2.174   6.096 -0.5023 -0.0287 -0.3934
 8669TIP3    H147422   2.943   2.193   6.098 -0.5288  0.0076 -1.7033
 8669TIP3    H247423   3.078   2.258   6.076 -0.3598 -0.5116 -2.2311
 8670TIP3   OH247424   3.308   1.822  13.840 -0.2177 -0.0140  0.0612
 8670TIP3    H147425   3.238   1.835  13.904 -0.4732 -2.4183  0.3247
 8670TIP3    H247426   3.384   1.867  13.876 -0.3338 -1.4155  2.1355
 8671TIP3   OH247427   1.316   2.483  13.344 -0.0203 -0.5207 -0.0717
 8671TIP3    H147428   1.381   2.521  13.403  1.7729 -1.6564 -1.2377
 8671TIP3    H247429   1.316   2.389  13.366  1.4137 -1.1307 -2.4830
 8672TIP3   OH247430   5.779   3.212  14.788 -0.4001  0.6963 -0.4182
 8672TIP3    H147431   5.734   3.128  14.788 -0.6778  0.8106 -2.5409
 8672TIP3    H247432   5.711   3.275  14.762  0.2422  1.3158 -0.6070
 8673TIP3   OH247433   6.726   0.212   3.610  0.2455  0.1622 -0.3838
 8673TIP3    H147434   6.694   0.122   3.624  0.4410 -0.0275 -1.1520
 8673TIP3    H247435   6.661   0.267   3.654 -0.7805 -0.2633 -1.3394
 8674TIP3   OH247436   3.657   5.520   4.187  0.3399 -0.2402 -0.2330
 8674TIP3    H147437   3.700   5.497   4.105  0.0997 -2.0013  0.1138
 8674TIP3    H247438   3.729   5.526   4.250  0.2864 -1.3740 -0.0492
 8675TIP3   OH247439   5.535   2.805  11.578 -0.1382 -0.1475 -0.4646
 8675TIP3    H147440   5.577   2.771  11.657  0.2975  0.8721 -0.2541
 8675TIP3    H247441   5.605   2.808  11.513 -0.0393  0.9304 -0.3033
 8676TIP3   OH247442   3.203   6.064  16.975 -0.0998  0.2362  0.4099
 8676TIP3    H147443   3.264   6.130  16.941  0.3508  0.1502  1.0442
 8676TIP3    H247444   3.117   6.098  16.953  0.2104 -0.6855 -2.4047
 8677TIP3   OH247445   1.913   6.068  14.309  0.4301 -0.1991 -0.2289
 8677TIP3    H147446   1.836   6.016  14.287 -0.5766  1.3602 -0.4948
 8677TIP3    H247447   1.982   6.004  14.325 -0.8858 -1.6128 -0.1153
 8678TIP3   OH247448   3.595   1.429  14.071 -0.4528  0.1423  0.7127
 8678TIP3    H147449   3.528   1.494  14.095 -0.8699  0.1298 -0.3934
 8678TIP3    H247450   3.666   1.444  14.134 -1.0173  0.9201  1.1789
 8679TIP3   OH247451   3.893   2.662   1.412  0.0093  0.3010 -0.0102
 8679TIP3    H147452   3.916   2.580   1.456  1.5502  1.2724  1.0136
 8679TIP3    H247453   3.975   2.694   1.375 -1.2842 -0.7269 -4.1345
 8680TIP3   OH247454   4.978   3.811   1.126  0.5740 -0.2182 -0.2232
 8680TIP3    H147455   4.932   3.729   1.111 -0.1215 -0.4039  2.6567
 8680TIP3    H247456   5.067   3.785   1.151  0.1608 -0.1433  1.3646
 8681TIP3   OH247457   3.483   2.907   1.909 -0.2228  0.6686  0.1810
 8681TIP3    H147458   3.417   2.940   1.848 -1.1350  0.2806  0.9470
 8681TIP3    H247459   3.438   2.902   1.993  0.3620 -0.9485  0.4199
 8682TIP3   OH247460   1.617   1.939   3.872  0.0398 -0.6369 -0.0940
 8682TIP3    H147461   1.702   1.895   3.878 -0.6425 -1.7342  1.9829
 8682TIP3    H247462   1.635   2.030   3.898  0.8278 -0.5240 -1.0218
 8683TIP3   OH247463   5.584   2.760  13.796  0.0072 -0.1967 -0.1739
 8683TIP3    H147464   5.497   2.799  13.800  0.2069  0.6378 -3.0681
 8683TIP3    H247465   5.644   2.835  13.800  0.5893 -0.7298  1.3121
 8684TIP3   OH247466   1.287   5.784   4.039 -0.1049 -0.2210 -0.2214
 8684TIP3    H147467   1.234   5.744   3.970 -0.6728 -0.9687  0.6465
 8684TIP3    H247468   1.371   5.801   3.996 -0.6564 -0.1000 -1.2766
 8685TIP3   OH247469   5.909   2.383   3.354 -0.7309  0.2150 -0.3336
 8685TIP3    H147470   5.945   2.332   3.281 -3.0132 -0.1507 -1.2768
 8685TIP3    H247471   5.926   2.330   3.431  1.9560  0.7248 -0.5292
 8686TIP3   OH247472   0.699   0.359   0.093  0.2200 -0.3673 -0.5197
 8686TIP3    H147473   0.783   0.389   0.059  0.0998 -0.5660 -1.0034
 8686TIP3    H247474   0.634   0.400   0.035  0.1429 -3.6103 -2.8635
 8687TIP3   OH247475   6.403   4.210  15.181  0.1927 -0.1195  0.4236
 8687TIP3    H147476   6.346   4.268  15.129  0.6565 -0.2004 -0.1738
 8687TIP3    H247477   6.342   4.150  15.224 -0.2852  0.6985  0.9136
 8688TIP3   OH247478   1.760   0.685   0.318 -0.8460 -0.1469 -0.4253
 8688TIP3    H147479   1.791   0.611   0.371 -1.9729 -1.6589 -1.7989
 8688TIP3    H247480   1.687   0.721   0.369  0.5923  0.9211  0.9172
 8689TIP3   OH247481   2.954   4.352  15.985 -0.5432  0.8460 -0.0700
 8689TIP3    H147482   2.886   4.310  16.039 -1.3273  0.4777 -1.3206
 8689TIP3    H247483   2.957   4.442  16.016 -1.2455  0.7340  0.3379
 8690TIP3   OH247484   2.117   5.688  16.042  0.3786  0.5280 -0.1983
 8690TIP3    H147485   2.143   5.680  16.133  1.2015  0.1201 -0.4699
 8690TIP3    H247486   2.148   5.775  16.015  2.4173 -0.3672 -0.8264
 8691TIP3   OH247487   5.817   0.344   0.709 -0.2827 -0.4858  0.0313
 8691TIP3    H147488   5.761   0.304   0.643  0.6161 -0.1193 -0.9834
 8691TIP3    H247489   5.842   0.429   0.671 -0.4176  0.0927  1.2024
 8692TIP3   OH247490   2.651   1.968   0.869 -0.5364 -0.3179 -0.3145
 8692TIP3    H147491   2.742   1.941   0.856 -0.5575 -0.3823 -0.3309
 8692TIP3    H247492   2.600   1.895   0.834 -0.5957  0.1460 -1.2325
 8693TIP3   OH247493   3.811   3.381  13.919 -0.3133 -0.0250 -0.2008
 8693TIP3    H147494   3.778   3.418  14.001 -0.4156  0.3591 -0.4138
 8693TIP3    H247495   3.853   3.299  13.944  1.8766  1.2925  0.5990
 8694TIP3   OH247496   2.997   2.947  13.834 -0.1454 -0.6378 -0.4470
 8694TIP3    H147497   3.066   2.928  13.897 -1.0234  2.3245  1.4793
 8694TIP3    H247498   3.043   2.976  13.756  0.8494  1.3139  0.8140
 8695TIP3   OH247499   6.504   5.524   0.320  0.7080  0.4539 -0.7626
 8695TIP3    H147500   6.534   5.588   0.384 -2.3546  0.8862  0.3044
 8695TIP3    H247501   6.490   5.444   0.371 -1.1715  0.6343 -0.9519
 8696TIP3   OH247502   1.880   3.748   1.305 -0.3932 -0.2738 -0.3948
 8696TIP3    H147503   1.880   3.843   1.293 -0.5237  0.3278  3.7674
 8696TIP3    H247504   1.967   3.729   1.341 -0.4045 -1.7368 -1.1030
 8697TIP3   OH247505   5.994   5.384  11.404  0.4919 -0.0513 -0.3122
 8697TIP3    H147506   6.026   5.447  11.339  1.0013  1.1351  1.0547
 8697TIP3    H247507   5.988   5.301  11.357  1.4059  0.6685 -1.7182
 8698TIP3   OH247508   3.922   2.448   2.930  0.2952  0.1335 -0.3085
 8698TIP3    H147509   3.994   2.511   2.922 -0.3355  0.6940 -1.7045
 8698TIP3    H247510   3.866   2.485   2.999  1.8377 -0.8142  1.4788
 8699TIP3   OH247511   4.420   5.834   3.942  0.2365 -0.4752 -0.2497
 8699TIP3    H147512   4.335   5.874   3.963  0.0925 -1.8365  2.0933
 8699TIP3    H247513   4.397   5.755   3.892  0.3015  0.5159 -1.8612
 8700TIP3   OH247514   5.779   2.622   2.039 -1.0599  0.1504  0.2626
 8700TIP3    H147515   5.830   2.609   2.118 -1.9259 -3.0370  0.3790
 8700TIP3    H247516   5.818   2.563   1.975 -1.9651  0.7848 -0.8946
 8701TIP3   OH247517   6.256   1.257   3.348 -0.6417  0.1099  0.0742
 8701TIP3    H147518   6.269   1.329   3.409  0.7102  1.1735 -1.4416
 8701TIP3    H247519   6.294   1.287   3.266 -0.8592 -1.9802 -0.8342
 8702TIP3   OH247520   2.055   4.118  16.781 -0.0454 -0.4083 -0.3250
 8702TIP3    H147521   2.021   4.172  16.709 -2.1634  1.1509  1.7768
 8702TIP3    H247522   2.055   4.029  16.746 -0.6965  0.3632 -2.3832
 8703TIP3   OH247523   5.188   5.447   5.677 -0.4997 -0.1647 -0.0755
 8703TIP3    H147524   5.194   5.516   5.610  0.4980 -0.1700 -0.0041
 8703TIP3    H247525   5.118   5.477   5.736 -0.1815  0.7128 -0.1349
 8704TIP3   OH247526   0.693   2.319  13.524 -0.0619  0.3112  0.0731
 8704TIP3    H147527   0.758   2.288  13.461  1.0017  1.8775  0.3846
 8704TIP3    H247528   0.720   2.279  13.607 -0.8479 -0.8893 -0.2282
 8705TIP3   OH247529   3.335   5.963  12.651  0.0306 -0.1359  0.4461
 8705TIP3    H147530   3.378   5.878  12.664 -1.0864 -0.7827 -0.0294
 8705TIP3    H247531   3.326   5.998  12.739  0.1529 -0.6788  0.6806
 8706TIP3   OH247532   1.774   4.104  12.600  1.5714  0.1136  0.2545
 8706TIP3    H147533   1.763   4.014  12.630  0.9403 -0.2788 -1.1414
 8706TIP3    H247534   1.760   4.100  12.506  0.4296  1.8614  0.3376
 8707TIP3   OH247535   5.526   1.540   6.072 -0.2438 -0.4482  0.4592
 8707TIP3    H147536   5.568   1.456   6.090  0.2751 -0.1993  0.4336
 8707TIP3    H247537   5.500   1.535   5.980 -0.5181 -0.7107  0.5519
 8708TIP3   OH247538   1.162   5.732   4.298  0.3574  0.0738 -0.0117
 8708TIP3    H147539   1.080   5.774   4.271  0.1251 -1.6961 -2.2281
 8708TIP3    H247540   1.217   5.733   4.220  2.0056  0.1308  1.1167
 8709TIP3   OH247541   2.188   0.162   2.805 -0.0160 -0.9385 -0.2851
 8709TIP3    H147542   2.106   0.210   2.816  0.7075  0.1730  0.3322
 8709TIP3    H247543   2.175   0.111   2.725 -1.8739 -1.9407  0.6169
 8710TIP3   OH247544   5.877   2.065   5.697 -0.0270  0.1543  0.2928
 8710TIP3    H147545   5.928   2.134   5.740 -1.1434  2.5670 -2.1294
 8710TIP3    H247546   5.937   2.028   5.632 -0.5980  1.4325 -0.9829
 8711TIP3   OH247547   2.794   6.611  15.569  0.5779  0.5783  0.2884
 8711TIP3    H147548   2.771   6.613  15.476 -0.6534  2.3449  0.6030
 8711TIP3    H247549   2.824   6.522  15.585 -0.0769  0.0051 -1.5975
 8712TIP3   OH247550   6.756   5.943  11.889  0.3663 -0.4330  0.1384
 8712TIP3    H147551   6.846   5.969  11.868 -0.1043  0.7708 -0.5044
 8712TIP3    H247552   6.764   5.888  11.966  1.4783  1.3630  1.3470
 8713TIP3   OH247553   5.921   4.810  13.852  0.2249 -0.0403  0.0330
 8713TIP3    H147554   5.895   4.769  13.770  2.1453 -1.0006 -0.1151
 8713TIP3    H247555   5.916   4.740  13.917  3.6723 -0.6335 -0.2516
 8714TIP3   OH247556   3.362   0.094   6.659  0.1797 -0.5803 -0.4649
 8714TIP3    H147557   3.417   0.021   6.687  0.5789 -0.6227 -1.3360
 8714TIP3    H247558   3.424   0.163   6.635 -0.2074  0.6266  1.8214
 8715TIP3   OH247559   6.559   0.926   5.635  0.4749  0.3662 -0.1430
 8715TIP3    H147560   6.620   0.988   5.595  0.8006 -0.2162 -0.5401
 8715TIP3    H247561   6.511   0.979   5.700  1.4806  0.7898  0.2569
 8716TIP3   OH247562   6.587   4.113  15.610  0.5156  0.0934 -0.6082
 8716TIP3    H147563   6.643   4.086  15.683  1.7454  0.0904 -1.5549
 8716TIP3    H247564   6.505   4.064  15.624 -0.0834  1.7187  1.9731
 8717TIP3   OH247565   5.390   3.349  16.310  0.2875  0.2615  0.0724
 8717TIP3    H147566   5.306   3.305  16.299 -0.5747  1.6069  1.1679
 8717TIP3    H247567   5.440   3.325  16.232 -0.8137 -1.2057 -0.1901
 8718TIP3   OH247568   2.263   1.037  16.530  0.3313 -0.3138 -0.0232
 8718TIP3    H147569   2.279   1.123  16.491 -0.3467 -0.2528 -0.1640
 8718TIP3    H247570   2.175   1.013  16.502 -0.3276 -0.0882  1.8233
 8719TIP3   OH247571   5.149   2.017   6.369  0.6745  0.8287 -0.1568
 8719TIP3    H147572   5.202   1.982   6.297 -0.3147 -0.1473 -0.4300
 8719TIP3    H247573   5.078   1.953   6.379  1.5793  0.1870  2.6135
 8720TIP3   OH247574   0.703   2.204  11.972  0.4772 -0.4532  0.2200
 8720TIP3    H147575   0.669   2.214  11.883  0.5171 -0.6466  0.1821
 8720TIP3    H247576   0.634   2.240  12.028  1.2129  1.3477  0.0151
 8721TIP3   OH247577   3.052   4.140   4.279  0.1687 -0.1409 -0.6512
 8721TIP3    H147578   2.980   4.126   4.340  1.5019 -1.3710  0.6678
 8721TIP3    H247579   3.121   4.082   4.310  1.8900  1.3509 -1.6317
 8722TIP3   OH247580   2.360   5.947   1.792 -0.8032 -0.1840 -0.2938
 8722TIP3    H147581   2.415   5.928   1.716 -0.9279 -0.6194 -0.2788
 8722TIP3    H247582   2.278   5.981   1.755 -0.6218  0.2183 -0.3263
 8723TIP3   OH247583   3.786   4.137   3.885  0.1617 -0.1059  0.1235
 8723TIP3    H147584   3.848   4.072   3.853  0.3512  0.5431 -0.8374
 8723TIP3    H247585   3.834   4.220   3.883 -1.1062  0.6089 -1.8174
 8724TIP3   OH247586   5.223   5.222  10.481 -0.3518 -0.3764  0.4265
 8724TIP3    H147587   5.223   5.294  10.418  0.9361  1.3433  2.3267
 8724TIP3    H247588   5.241   5.144  10.429 -0.7945  0.8146 -1.5343
 8725TIP3   OH247589   6.547   4.341  12.804 -0.5638  0.0171  0.4498
 8725TIP3    H147590   6.452   4.357  12.806 -0.7182 -0.9952  2.4617
 8725TIP3    H247591   6.574   4.347  12.895  1.5351  1.4484 -0.2516
 8726TIP3   OH247592   2.418   6.362   4.175  0.6687 -0.3361  0.0654
 8726TIP3    H147593   2.387   6.326   4.092 -0.6087 -0.3103  0.5177
 8726TIP3    H247594   2.395   6.296   4.240 -0.9927  0.8949  0.7891
 8727TIP3   OH247595   1.186   1.782   2.832 -0.3403  0.3349  0.3206
 8727TIP3    H147596   1.162   1.692   2.812 -1.7966  0.9763 -0.9491
 8727TIP3    H247597   1.189   1.786   2.928  0.5816 -1.2501  0.3805
 8728TIP3   OH247598   0.461   2.940  16.222  0.1039  0.3521 -0.1268
 8728TIP3    H147599   0.516   2.862  16.221  0.2284  0.3411  3.0075
 8728TIP3    H247600   0.514   3.006  16.268 -0.0005  2.2950 -2.7008
 8729TIP3   OH247601   0.693   4.781  11.688  0.0310 -0.3925  0.7109
 8729TIP3    H147602   0.784   4.812  11.683 -0.3464  0.7380  0.7864
 8729TIP3    H247603   0.700   4.695  11.729  1.1128 -0.4898  0.3421
 8730TIP3   OH247604   0.907   0.820   1.306  0.2214  0.1807  0.4027
 8730TIP3    H147605   0.825   0.827   1.258 -0.4763 -1.4187  1.3211
 8730TIP3    H247606   0.974   0.813   1.238 -0.3826  1.5299 -0.3516
 8731TIP3   OH247607   6.641   5.251  13.976  0.0338 -0.0515  0.4672
 8731TIP3    H147608   6.677   5.339  13.973  0.6322 -0.3450 -2.3371
 8731TIP3    H247609   6.703   5.198  13.927 -0.7825 -1.8722  1.3436
 8732TIP3   OH247610   2.432   6.694   1.273  0.6063 -0.1218  0.1088
 8732TIP3    H147611   2.459   6.783   1.250  0.7852 -0.2501 -0.1873
 8732TIP3    H247612   2.386   6.703   1.356 -1.1841  0.5473 -0.9188
 8733TIP3   OH247613   5.010   5.050  12.065 -0.7349 -0.2018  0.7850
 8733TIP3    H147614   5.062   5.066  12.144 -0.8763 -3.6552  1.6815
 8733TIP3    H247615   4.960   4.971  12.085 -0.7150 -1.2136 -2.7933
 8734TIP3   OH247616   2.245   6.595   4.259  0.2939 -0.1200 -0.0082
 8734TIP3    H147617   2.284   6.669   4.213 -1.7899  0.0704 -1.5814
 8734TIP3    H247618   2.303   6.521   4.239 -0.5229 -0.0338 -3.0179
 8735TIP3   OH247619   5.684   0.598   1.193 -0.1512 -0.3468 -0.3969
 8735TIP3    H147620   5.709   0.564   1.107  0.5446  1.8358 -1.0798
 8735TIP3    H247621   5.766   0.625   1.234 -0.8269  2.0161 -0.5476
 8736TIP3   OH247622   3.746   5.859  11.756 -0.1521  0.3307  0.6747
 8736TIP3    H147623   3.755   5.779  11.808 -0.9064 -0.7261 -0.7589
 8736TIP3    H247624   3.693   5.918  11.810 -1.2179 -0.8733  0.9677
 8737TIP3   OH247625   6.216   2.533   0.527  0.4158  0.8002  0.1434
 8737TIP3    H147626   6.182   2.608   0.577 -1.4385 -1.2281  2.0580
 8737TIP3    H247627   6.284   2.496   0.583 -0.7067 -0.6516  0.5943
 8738TIP3   OH247628   2.372   2.941  15.543  0.0888  0.2971 -0.2181
 8738TIP3    H147629   2.348   2.902  15.459 -0.6263 -1.1730  0.6512
 8738TIP3    H247630   2.288   2.966  15.582  0.4415  1.2300 -0.0529
 8739TIP3   OH247631   2.815   1.438   5.463  0.2764 -0.2388  0.3235
 8739TIP3    H147632   2.842   1.373   5.529 -1.4826 -1.4768 -0.1651
 8739TIP3    H247633   2.787   1.514   5.515  1.2756 -0.2620  0.9223
 8740TIP3   OH247634   1.593   0.768  14.927 -0.2475 -0.0129  0.4346
 8740TIP3    H147635   1.524   0.710  14.956 -0.4397 -0.8471 -1.6129
 8740TIP3    H247636   1.556   0.856  14.934 -1.1449 -0.3834  0.3105
 8741TIP3   OH247637   1.324   2.384   3.048 -0.0967 -0.0018  0.0094
 8741TIP3    H147638   1.411   2.406   3.016 -0.5569 -0.6054 -1.7062
 8741TIP3    H247639   1.335   2.301   3.094  0.1937 -0.2307 -0.4695
 8742TIP3   OH247640   5.929   2.110   1.371  0.8427  0.2324 -0.1249
 8742TIP3    H147641   5.994   2.042   1.389  0.8154  0.4916  0.9824
 8742TIP3    H247642   5.873   2.110   1.448  0.2526  0.8516 -0.5451
 8743TIP3   OH247643   5.753   0.949  13.181 -0.2802 -0.2355 -0.5007
 8743TIP3    H147644   5.683   0.915  13.237 -0.9435  0.2918 -1.0048
 8743TIP3    H247645   5.717   0.944  13.092  0.1055  0.5999 -0.7006
 8744TIP3   OH247646   5.279   6.228   4.138 -0.1286  0.0171 -0.4200
 8744TIP3    H147647   5.238   6.150   4.101 -0.4704 -0.5200  1.0430
 8744TIP3    H247648   5.373   6.212   4.128 -0.0905 -1.9367  2.4466
 8745TIP3   OH247649   5.776   4.343  16.886 -0.5759  0.5498 -0.0953
 8745TIP3    H147650   5.705   4.280  16.871  0.4416 -0.4378 -0.8501
 8745TIP3    H247651   5.853   4.289  16.901  0.1210  1.6187  0.2039
 8746TIP3   OH247652   6.418   2.716  12.790 -1.3296 -0.2131  0.2580
 8746TIP3    H147653   6.377   2.649  12.845 -0.0305 -0.9913  0.3120
 8746TIP3    H247654   6.452   2.667  12.714  1.7790 -0.0578  1.4560
 8747TIP3   OH247655   4.728   1.534   2.920  0.0389  0.3760 -0.2918
 8747TIP3    H147656   4.743   1.509   2.829 -0.1948 -0.4407 -0.1106
 8747TIP3    H247657   4.812   1.520   2.963  0.2809  1.2214 -0.4804
 8748TIP3   OH247658   6.574   5.078  10.641 -0.3618  0.2291  0.1808
 8748TIP3    H147659   6.523   5.000  10.617 -0.3453  0.1668  0.3421
 8748TIP3    H247660   6.654   5.071  10.590 -0.1348 -0.1307  0.5757
 8749TIP3   OH247661   5.431   0.572  15.276 -0.1328 -0.2908 -0.0944
 8749TIP3    H147662   5.451   0.589  15.184  0.5151 -0.3002  0.0382
 8749TIP3    H247663   5.380   0.491  15.274  0.8494 -0.9188 -0.3651
 8750TIP3   OH247664   4.846   1.314  14.103 -0.2964 -0.0785 -0.3983
 8750TIP3    H147665   4.913   1.380  14.124  0.8225 -0.8180 -1.5496
 8750TIP3    H247666   4.893   1.231  14.106 -1.2962 -0.6547 -0.6855
 8751TIP3   OH247667   2.924   1.745  15.394  0.2199  0.3055 -0.1997
 8751TIP3    H147668   2.886   1.691  15.464  0.1933  0.8766  0.2306
 8751TIP3    H247669   3.018   1.745  15.412 -0.0480  2.6149  1.3899
 8752TIP3   OH247670   4.109   5.919   5.745 -0.6724  0.1754  0.1179
 8752TIP3    H147671   4.115   5.864   5.667  1.9669 -1.2384  1.2852
 8752TIP3    H247672   4.071   6.002   5.713 -0.2371 -0.6057 -2.5116
 8753TIP3   OH247673   2.340   3.046   4.161 -0.3945  0.3496 -0.9660
 8753TIP3    H147674   2.371   3.100   4.234 -0.7480 -0.8159  0.0610
 8753TIP3    H247675   2.337   3.106   4.086 -1.5065  1.9388  0.3302
 8754TIP3   OH247676   0.039   2.229   5.190 -0.4567  0.0886 -0.6986
 8754TIP3    H147677   0.134   2.223   5.198 -0.3796 -0.1613 -1.7830
 8754TIP3    H247678   0.024   2.289   5.117 -1.1526  1.5141  0.5967
 8755TIP3   OH247679   0.509   5.745  12.962 -0.5579  0.0884 -0.4678
 8755TIP3    H147680   0.584   5.689  12.983 -2.7407 -2.4465  0.7310
 8755TIP3    H247681   0.494   5.731  12.869  1.0146  1.3626 -0.9488
 8756TIP3   OH247682   3.274   4.840  12.688  0.6367 -0.1065  0.8850
 8756TIP3    H147683   3.239   4.768  12.740  0.0810 -1.2142 -0.9784
 8756TIP3    H247684   3.368   4.839  12.704  1.0624 -3.1776 -1.4131
 8757TIP3   OH247685   5.507   6.224   2.997 -0.3638 -0.0502  0.0754
 8757TIP3    H147686   5.428   6.248   3.047  0.3175  0.5249  0.8819
 8757TIP3    H247687   5.509   6.286   2.925 -1.2455 -0.7555 -0.5669
 8758TIP3   OH247688   4.039   6.134  10.280 -0.1020  0.2562  0.0685
 8758TIP3    H147689   3.993   6.051  10.271  1.0313 -0.5537  1.5344
 8758TIP3    H247690   3.977   6.200  10.247 -1.1251 -1.1160 -0.7951
 8759TIP3   OH247691   3.318   1.931   0.301 -0.5066 -0.6043 -0.1729
 8759TIP3    H147692   3.305   1.911   0.208  1.5023  0.1949 -0.6657
 8759TIP3    H247693   3.242   1.894   0.345 -1.4831 -0.9917 -2.1447
 8760TIP3   OH247694   2.668   2.288  16.492  0.3760  0.1305 -0.4771
 8760TIP3    H147695   2.640   2.364  16.543  0.9343 -1.0330  1.5996
 8760TIP3    H247696   2.693   2.325  16.407  0.3771  2.2209  0.3883
 8761TIP3   OH247697   2.405   6.585   3.638  0.1133 -0.6919  0.5018
 8761TIP3    H147698   2.491   6.601   3.677 -0.2701 -0.0761  1.1051
 8761TIP3    H247699   2.419   6.509   3.582  1.4808  0.5609 -0.8936
 8762TIP3   OH247700   1.927   0.691   1.372  0.0757 -0.2541 -0.4697
 8762TIP3    H147701   1.854   0.637   1.402  0.4019 -0.0989  0.6131
 8762TIP3    H247702   2.002   0.661   1.424 -0.3063  3.1361  2.2415
 8763TIP3   OH247703   3.378   6.644  15.713  0.1973 -0.5148  0.0576
 8763TIP3    H147704   3.295   6.600  15.730 -0.0338  0.1072  0.5853
 8763TIP3    H247705   3.354   6.737  15.704  0.3350 -0.7544 -3.5276
 8764TIP3   OH247706   4.385   2.299   4.669 -0.6111  0.1505  0.4621
 8764TIP3    H147707   4.395   2.275   4.761  1.1123  0.1099  0.2831
 8764TIP3    H247708   4.474   2.301   4.635 -1.0023  2.8905 -0.5175
 8765TIP3   OH247709   3.352   6.399  13.475  0.7498 -0.2434 -0.0184
 8765TIP3    H147710   3.331   6.460  13.545  1.9920 -0.5331  0.6230
 8765TIP3    H247711   3.292   6.422  13.404  0.0993  0.6447  0.8085
 8766TIP3   OH247712   2.965   3.946  16.020 -0.4877 -0.0199  0.0775
 8766TIP3    H147713   2.985   3.865  15.973 -1.6543 -1.6558  2.3309
 8766TIP3    H247714   3.051   3.978  16.049  0.0510 -0.0485 -1.4438
 8767TIP3   OH247715   2.752   3.894  17.165  0.6862  0.4975 -0.2111
 8767TIP3    H147716   2.657   3.902  17.172  0.6921  0.4552 -0.0941
 8767TIP3    H247717   2.766   3.855  17.079  0.5867  0.2745 -0.1232
 8768TIP3   OH247718   4.074   0.463   4.039  0.7206 -0.0009  0.0763
 8768TIP3    H147719   4.160   0.486   4.004  0.8849  0.0108  0.4785
 8768TIP3    H247720   4.088   0.379   4.083  0.4836 -0.0880 -0.0130
 8769TIP3   OH247721   2.965   3.964   6.122  0.1688 -0.5974  0.5136
 8769TIP3    H147722   2.973   4.018   6.044  0.5261 -0.9630  0.2903
 8769TIP3    H247723   2.924   3.883   6.091  0.2862 -0.7342  0.7107
 8770TIP3   OH247724   2.572   4.833  11.434 -0.4733  0.1595  0.0324
 8770TIP3    H147725   2.663   4.803  11.430 -0.0911  0.9806  1.7932
 8770TIP3    H247726   2.560   4.883  11.353  0.4161 -0.5699 -0.5598
 8771TIP3   OH247727   6.041   4.835   2.944 -0.2852  0.3619  0.6188
 8771TIP3    H147728   6.020   4.789   2.862 -2.9717 -0.3124  1.6049
 8771TIP3    H247729   6.057   4.764   3.007  1.5372  0.8743  0.7483
 8772TIP3   OH247730   3.826   3.458   5.213 -0.0949 -0.2639  0.1674
 8772TIP3    H147731   3.806   3.407   5.292  1.8973 -2.0466 -0.4359
 8772TIP3    H247732   3.869   3.537   5.246 -1.4168  0.1289  0.9954
 8773TIP3   OH247733   4.787   1.712   6.174  0.3247  0.2934 -0.1673
 8773TIP3    H147734   4.736   1.649   6.226  0.7726  0.2657  0.2424
 8773TIP3    H247735   4.825   1.771   6.240 -0.0551  0.9683 -0.5415
 8774TIP3   OH247736   2.991   3.440   3.871 -0.8439  0.2674  0.6822
 8774TIP3    H147737   2.999   3.414   3.963 -2.8924 -2.6568  0.0987
 8774TIP3    H247738   3.078   3.425   3.834 -0.5308 -0.4598  1.6931
 8775TIP3   OH247739   1.231   1.373   5.103 -0.4085 -0.0799  0.3339
 8775TIP3    H147740   1.152   1.347   5.055 -1.0102 -0.4115  1.5060
 8775TIP3    H247741   1.269   1.290   5.134 -0.6231  0.2117  1.3821
 8776TIP3   OH247742   2.568   1.835   0.480 -0.1551  0.1752  0.3663
 8776TIP3    H147743   2.487   1.880   0.503  0.9285  1.6300  1.4659
 8776TIP3    H247744   2.606   1.810   0.564  1.8848  1.9898  0.0311
 8777TIP3   OH247745   4.183   3.261   3.399 -0.6662  0.5398 -0.5966
 8777TIP3    H147746   4.137   3.249   3.317 -0.8282  0.3512 -0.4767
 8777TIP3    H247747   4.231   3.179   3.413 -1.0364  0.3795 -0.2500
 8778TIP3   OH247748   1.223   0.429   5.162 -0.0063  0.5495 -0.2571
 8778TIP3    H147749   1.187   0.411   5.249  0.7383  1.1583  0.1755
 8778TIP3    H247750   1.158   0.486   5.121  0.6207  1.9327  0.6527
 8779TIP3   OH247751   6.033   1.396   5.303 -0.3142 -0.0602 -0.4133
 8779TIP3    H147752   6.051   1.476   5.252 -0.9666 -0.4201 -1.2125
 8779TIP3    H247753   6.114   1.345   5.296  0.4824  0.9887  0.9651
 8780TIP3   OH247754   5.700   0.980  11.663 -0.5644  0.5610  0.4362
 8780TIP3    H147755   5.650   0.972  11.744  1.1868  0.1649  1.5020
 8780TIP3    H247756   5.762   1.051  11.680  1.9810 -1.6311  0.6179
 8781TIP3   OH247757   2.969   5.904   0.919  0.2040  0.2776 -0.1656
 8781TIP3    H147758   3.011   5.964   0.981 -0.8105  0.4659  0.3444
 8781TIP3    H247759   2.994   5.937   0.833 -0.7523  1.7301  0.0975
 8782TIP3   OH247760   4.725   2.711   3.124  0.2176  0.1973  0.0808
 8782TIP3    H147761   4.709   2.704   3.030 -1.3724  2.4774  0.1380
 8782TIP3    H247762   4.819   2.696   3.134 -0.0441 -2.9728 -1.5121
 8783TIP3   OH247763   3.807   1.179  15.148 -0.4924 -0.0353  0.4448
 8783TIP3    H147764   3.829   1.271  15.162  2.4838 -0.4882 -0.9278
 8783TIP3    H247765   3.805   1.141  15.236  2.8411  0.3894  0.7715
 8784TIP3   OH247766   5.306   3.493  12.326  0.5069 -0.0395 -0.3197
 8784TIP3    H147767   5.285   3.585  12.309  1.7133  0.1369 -0.8578
 8784TIP3    H247768   5.232   3.461  12.378  1.0209  1.7765  1.5965
 8785TIP3   OH247769   1.855   2.895   3.401 -0.1417  0.7094 -0.8385
 8785TIP3    H147770   1.781   2.955   3.403 -1.1007 -0.4746  2.4040
 8785TIP3    H247771   1.817   2.811   3.375  0.1997  0.2969 -0.0144
 8786TIP3   OH247772   3.097   3.611   3.212 -0.3594 -0.6636  0.1475
 8786TIP3    H147773   3.174   3.627   3.157 -0.3525  0.1043  0.3673
 8786TIP3    H247774   3.035   3.679   3.186 -0.7195 -0.8849  0.4271
 8787TIP3   OH247775   2.282   0.002   4.939  0.2350 -0.1301 -0.1798
 8787TIP3    H147776   2.269  -0.091   4.918 -0.1195  0.0012 -0.5517
 8787TIP3    H247777   2.202   0.027   4.985  1.7479 -0.8934  3.0649
 8788TIP3   OH247778   0.953   3.781   3.047  0.3892 -0.3359  0.9942
 8788TIP3    H147779   0.866   3.817   3.063 -0.4194 -1.4361 -0.7410
 8788TIP3    H247780   0.974   3.806   2.957  0.8225 -2.0965  0.5643
 8789TIP3   OH247781   0.791   4.285  10.740  0.0423 -0.3894 -0.1009
 8789TIP3    H147782   0.738   4.294  10.660  1.6082 -0.4219 -1.1696
 8789TIP3    H247783   0.780   4.369  10.785 -0.9925 -0.4347 -0.2575
 8790TIP3   OH247784   4.155   1.139  17.170  0.5670 -0.1447 -0.5144
 8790TIP3    H147785   4.200   1.185  17.099 -1.0543  1.4574 -0.5388
 8790TIP3    H247786   4.070   1.115  17.134  0.8681 -2.0286 -0.0577
 8791TIP3   OH247787   3.033   1.568   4.632 -0.7407 -0.5411  0.3323
 8791TIP3    H147788   2.949   1.523   4.641 -1.3305  0.6730  0.9697
 8791TIP3    H247789   3.097   1.497   4.622 -1.9107 -1.4662 -0.8929
 8792TIP3   OH247790   2.071   4.793  16.342 -0.3175 -0.3763 -0.3811
 8792TIP3    H147791   2.052   4.790  16.248  0.5808  1.8179 -0.6550
 8792TIP3    H247792   2.131   4.867  16.352  0.5509 -1.3255  1.7630
 8793TIP3   OH247793   3.019   6.066  12.351  0.3493  0.8101  0.1379
 8793TIP3    H147794   3.085   5.998  12.362  0.0057  0.5534  0.6262
 8793TIP3    H247795   3.044   6.135  12.412 -0.0374  0.5569  0.5826
 8794TIP3   OH247796   2.056   4.061   4.111  0.3344  0.4248  0.7597
 8794TIP3    H147797   1.998   4.005   4.060 -0.5869  0.4256  1.7846
 8794TIP3    H247798   2.064   4.141   4.060  1.0151 -0.3225 -0.3272
 8795TIP3   OH247799   2.112   5.922  12.696  0.1822 -0.5563 -0.9162
 8795TIP3    H147800   2.089   5.878  12.615  0.2951 -1.8639 -0.2516
 8795TIP3    H247801   2.040   5.984  12.712 -1.4638 -2.5666 -0.3528
 8796TIP3   OH247802   4.689   5.030  13.745 -0.0280 -0.3301 -0.2306
 8796TIP3    H147803   4.598   5.016  13.717 -0.2453 -0.5784  0.5922
 8796TIP3    H247804   4.708   4.956  13.802  0.8966 -0.5947 -0.8865
 8797TIP3   OH247805   5.399   6.758  12.021  0.4534  0.3067  0.3534
 8797TIP3    H147806   5.420   6.773  11.929 -0.0724 -1.6357 -0.1020
 8797TIP3    H247807   5.438   6.673  12.041  0.8418  0.8593  2.0213
 8798TIP3   OH247808   5.638   0.306   5.421 -0.1703 -0.5296  0.4696
 8798TIP3    H147809   5.660   0.354   5.501 -0.5897  2.7664 -1.2783
 8798TIP3    H247810   5.573   0.362   5.378  2.0721 -0.8553 -3.4845
 8799TIP3   OH247811   1.156   2.867   1.257  0.5595  0.2134 -0.3942
 8799TIP3    H147812   1.085   2.840   1.198 -0.3062 -0.8431  1.0843
 8799TIP3    H247813   1.131   2.831   1.342  2.2088  0.9944  0.4451
 8800TIP3   OH247814   1.835   0.804  16.084 -0.0882  0.2439 -0.6801
 8800TIP3    H147815   1.749   0.846  16.091 -0.3982 -0.1249 -2.0093
 8800TIP3    H247816   1.822   0.718  16.122  0.1588  0.8168  0.7125
 8801TIP3   OH247817   3.246   5.087  16.422 -0.2165 -0.5238  0.6468
 8801TIP3    H147818   3.341   5.078  16.416 -0.4367 -1.7761 -1.5712
 8801TIP3    H247819   3.217   5.010  16.470 -0.1198 -0.0642  1.4603
 8802TIP3   OH247820   1.954   5.218  16.549  0.0175  0.4759  0.7257
 8802TIP3    H147821   1.963   5.287  16.615 -1.4840  0.0111  1.4535
 8802TIP3    H247822   1.940   5.264  16.467 -2.2082  1.0684  1.4045
 8803TIP3   OH247823   4.834   5.318   1.722 -0.8482 -0.8535 -0.3435
 8803TIP3    H147824   4.749   5.346   1.687 -0.2420  0.4704 -0.8070
 8803TIP3    H247825   4.813   5.247   1.783 -2.4456  0.6379  0.8954
 8804TIP3   OH247826   1.948   2.839   0.260 -0.1834 -0.0787 -0.1135
 8804TIP3    H147827   1.872   2.812   0.209  0.4466 -0.0811 -1.0592
 8804TIP3    H247828   1.939   2.934   0.267  0.3498  0.0707 -1.2662
 8805TIP3   OH247829   2.207   3.869  14.566 -0.1022 -0.8211  0.0606
 8805TIP3    H147830   2.297   3.838  14.551  0.5772  0.6906  0.8844
 8805TIP3    H247831   2.187   3.920  14.488  0.5040  0.4851  0.7435
 8806TIP3   OH247832   2.489   6.112   3.159  1.0286  0.6950 -0.4081
 8806TIP3    H147833   2.399   6.102   3.189  1.1954  0.7247  0.1194
 8806TIP3    H247834   2.533   6.033   3.189  1.4410  1.2012  0.3565
 8807TIP3   OH247835   4.996   1.759   0.193 -0.1324  0.1123  0.1750
 8807TIP3    H147836   5.045   1.830   0.236  0.4998 -0.1199 -0.1627
 8807TIP3    H247837   5.006   1.684   0.252  0.8455 -0.2438 -0.4256
 8808TIP3   OH247838   6.125   0.529   1.886  0.4722 -0.1758  0.2590
 8808TIP3    H147839   6.097   0.557   1.799  0.4855  0.8266  0.5738
 8808TIP3    H247840   6.044   0.522   1.937  0.5947  0.6483  0.5709
 8809TIP3   OH247841   4.865   5.460   5.803 -0.0696  0.1784  0.1032
 8809TIP3    H147842   4.917   5.540   5.806  0.6527 -0.3120  0.7472
 8809TIP3    H247843   4.916   5.396   5.852 -0.4250 -0.8154 -0.8047
 8810TIP3   OH247844   2.700   2.631  13.848 -0.5769 -0.5146  0.2358
 8810TIP3    H147845   2.654   2.547  13.848 -1.0010 -0.3178 -1.8813
 8810TIP3    H247846   2.698   2.659  13.756 -1.1178  2.1662  1.0142
 8811TIP3   OH247847   3.628   4.566  12.958 -0.0441  0.4073  0.6550
 8811TIP3    H147848   3.614   4.543  13.050  0.5364  0.2230  0.6999
 8811TIP3    H247849   3.542   4.555  12.918 -0.4337  1.0499  1.2947
 8812TIP3   OH247850   2.700   1.408   2.459 -0.3897 -0.1474  0.7939
 8812TIP3    H147851   2.649   1.464   2.401 -0.7251  0.3946  1.6070
 8812TIP3    H247852   2.641   1.337   2.484  0.4021 -1.5511 -1.1929
 8813TIP3   OH247853   5.339   1.080   3.837 -0.6857  0.2991 -0.0820
 8813TIP3    H147854   5.309   1.120   3.756  0.8816  0.7147 -0.4911
 8813TIP3    H247855   5.304   1.136   3.906  0.5275  1.7541 -0.6136
 8814TIP3   OH247856   4.523   5.307  12.197 -0.0753  0.2529 -0.0814
 8814TIP3    H147857   4.457   5.372  12.222  0.4010  1.6248 -2.2682
 8814TIP3    H247858   4.518   5.303  12.101  3.5392  0.9454 -0.3750
 8815TIP3   OH247859   4.687   4.303  11.291 -0.1167 -1.2119  0.3812
 8815TIP3    H147860   4.700   4.350  11.208  2.1706  1.0009  1.8776
 8815TIP3    H247861   4.593   4.288  11.296 -0.8080  2.2334 -0.7694
 8816TIP3   OH247862   0.890   4.890   4.646 -0.1176 -0.4320 -0.3093
 8816TIP3    H147863   0.832   4.896   4.722 -0.2158 -3.0078 -0.1206
 8816TIP3    H247864   0.831   4.874   4.572  0.1113  0.2180 -0.6295
 8817TIP3   OH247865   2.364   5.364  14.331  0.5193 -0.0549 -0.1920
 8817TIP3    H147866   2.323   5.340  14.413  0.5637  1.0153  0.1555
 8817TIP3    H247867   2.293   5.369  14.268  0.7056 -2.5264 -0.6139
 8818TIP3   OH247868   2.110   4.691   1.068  0.2526 -0.4654  0.1806
 8818TIP3    H147869   2.169   4.752   1.112  0.2465  1.0080 -1.7647
 8818TIP3    H247870   2.028   4.698   1.116  0.1269  1.4269 -0.2739
 8819TIP3   OH247871   2.533   1.280  15.513 -0.0208  0.1031  0.2527
 8819TIP3    H147872   2.599   1.290  15.582  1.1630 -0.3140 -0.7995
 8819TIP3    H247873   2.560   1.342  15.445 -0.9821  0.2606  0.0118
 8820TIP3   OH247874   0.180   1.243  15.878 -0.1447  0.8653 -0.0635
 8820TIP3    H147875   0.091   1.219  15.852  0.5915 -1.1435 -0.8282
 8820TIP3    H247876   0.229   1.161  15.876  1.2122  1.5399  2.5585
 8821TIP3   OH247877   6.646   4.634   5.591  0.1768  0.2994  0.2407
 8821TIP3    H147878   6.674   4.542   5.599  2.2918  0.9299  0.3908
 8821TIP3    H247879   6.695   4.679   5.660 -0.3516  1.6491 -0.2666
 8822TIP3   OH247880   6.165   4.654  12.218  0.2475  0.2275  0.0022
 8822TIP3    H147881   6.119   4.728  12.256  1.5156  0.0137  2.0402
 8822TIP3    H247882   6.108   4.579  12.234 -0.6315  0.5964 -1.2901
 8823TIP3   OH247883   3.356   2.923   4.469  0.0863  0.0971 -0.2825
 8823TIP3    H147884   3.398   2.839   4.488 -0.9758 -0.0256  1.5903
 8823TIP3    H247885   3.422   2.988   4.494 -1.0085 -0.0782  3.3238
 8824TIP3   OH247886   0.993   5.682   2.419  0.4114 -0.5494  0.6095
 8824TIP3    H147887   1.087   5.683   2.397  0.4348 -1.1497  0.6873
 8824TIP3    H247888   0.955   5.619   2.358 -0.1925  0.8048 -0.4343
 8825TIP3   OH247889   2.759   0.539  10.963  0.0448 -0.4285 -0.1188
 8825TIP3    H147890   2.734   0.452  10.996 -1.4957  0.1641  0.3274
 8825TIP3    H247891   2.701   0.599  11.008  3.6887  1.2703  2.5465
 8826TIP3   OH247892   0.716   6.669   5.109  0.1398 -0.0096 -0.4455
 8826TIP3    H147893   0.660   6.746   5.099 -0.9928 -0.9365 -1.4001
 8826TIP3    H247894   0.773   6.690   5.183  0.1923  1.9435 -1.0166
 8827TIP3   OH247895   5.658   5.369  14.451 -0.4848  0.2543  0.1547
 8827TIP3    H147896   5.591   5.419  14.497 -1.0425  0.1329 -0.5219
 8827TIP3    H247897   5.647   5.279  14.483  0.5649  0.5744  1.4245
 8828TIP3   OH247898   2.668   5.224  16.422  0.6878  0.1787 -0.0093
 8828TIP3    H147899   2.629   5.311  16.426 -2.1133 -0.9979 -0.6286
 8828TIP3    H247900   2.734   5.231  16.352  0.5426  1.8053 -0.0000
 8829TIP3   OH247901   0.858   0.885  14.872  0.2147  0.5412 -0.2754
 8829TIP3    H147902   0.815   0.890  14.786  1.5242  0.3928 -0.9474
 8829TIP3    H247903   0.917   0.960  14.873  0.8908  0.0011  0.1202
 8830TIP3   OH247904   2.875   4.586   0.053 -0.5220  0.2531 -0.2517
 8830TIP3    H147905   2.867   4.612  -0.038 -0.3883 -0.3072 -0.4212
 8830TIP3    H247906   2.918   4.501   0.051  1.0533  0.9871  0.4008
 8831TIP3   OH247907   6.364   3.673  16.746 -1.0317 -0.3954 -0.2718
 8831TIP3    H147908   6.291   3.732  16.727  0.9728  1.2230 -3.2855
 8831TIP3    H247909   6.367   3.614  16.671  0.7269 -0.4469 -0.1793
 8832TIP3   OH247910   5.802   5.303   6.122 -0.4523 -0.2814  0.7402
 8832TIP3    H147911   5.709   5.293   6.103 -0.0153 -0.4190 -1.5647
 8832TIP3    H247912   5.840   5.219   6.096  0.6302  0.6218 -0.7259
 8833TIP3   OH247913   0.695   4.062  16.607 -0.1229  0.0991 -0.0770
 8833TIP3    H147914   0.743   4.021  16.535  0.0289  0.9481 -0.4716
 8833TIP3    H247915   0.603   4.057  16.580 -0.0424  0.6729 -0.4681
 8834TIP3   OH247916   6.054   5.514  14.038  0.0796  0.0632  0.1294
 8834TIP3    H147917   6.041   5.585  13.975 -0.1137  0.8263  1.0275
 8834TIP3    H247918   5.972   5.465  14.036  0.1973 -0.1184 -0.4557
 8835TIP3   OH247919   4.547   2.584   4.397 -0.2087 -0.2668 -0.0858
 8835TIP3    H147920   4.565   2.553   4.486 -3.2491 -1.1147  0.2814
 8835TIP3    H247921   4.551   2.680   4.404  0.1436 -0.3432  0.8315
 8836TIP3   OH247922   1.720   3.774   5.112 -0.1030  0.2343  0.4142
 8836TIP3    H147923   1.815   3.766   5.114  0.0410  1.3769 -1.0140
 8836TIP3    H247924   1.688   3.689   5.142  1.3513 -0.6470 -0.5017
 8837TIP3   OH247925   2.629   0.552  16.595 -0.5399 -0.5439 -0.2165
 8837TIP3    H147926   2.586   0.469  16.573 -0.0204 -0.8894  0.0720
 8837TIP3    H247927   2.622   0.558  16.690 -0.6903 -0.1898 -0.2470
 8838TIP3   OH247928   0.030   1.955  13.495  0.1948 -0.4213  0.2424
 8838TIP3    H147929   0.115   1.919  13.520 -0.4921 -2.4335 -0.2921
 8838TIP3    H247930  -0.033   1.907  13.548 -0.8413 -0.9782 -1.4633
 8839TIP3   OH247931   3.141   3.430   3.402  0.3686 -0.4066 -0.0402
 8839TIP3    H147932   3.059   3.423   3.451 -0.9059 -1.2785 -2.2120
 8839TIP3    H247933   3.120   3.490   3.330  1.7533 -0.3957 -0.4434
 8840TIP3   OH247934   3.609   3.723  14.232 -0.1311 -0.5522  0.2352
 8840TIP3    H147935   3.658   3.791  14.186  0.5091 -0.4679  1.0160
 8840TIP3    H247936   3.527   3.714  14.183  0.0259  0.3768 -0.2047
 8841TIP3   OH247937   0.345   0.537  16.313  0.3228 -0.0224 -0.4399
 8841TIP3    H147938   0.409   0.467  16.318  1.5967  1.1064 -0.4678
 8841TIP3    H247939   0.274   0.502  16.260  1.1079 -1.1440 -0.7601
 8842TIP3   OH247940   5.646   6.667  10.689 -0.1073 -0.7558  0.2552
 8842TIP3    H147941   5.620   6.662  10.597  1.1604  0.6644 -0.1951
 8842TIP3    H247942   5.569   6.704  10.733 -0.6224 -1.2011 -0.2559
 8843TIP3   OH247943   2.495   5.701   1.903 -0.3564  0.3136 -0.9440
 8843TIP3    H147944   2.418   5.665   1.859  0.4670 -1.1056 -1.2392
 8843TIP3    H247945   2.489   5.795   1.887 -2.6082  0.3602 -0.0578
 8844TIP3   OH247946   1.719   6.629   2.181 -0.3015  0.0161 -0.2813
 8844TIP3    H147947   1.643   6.573   2.163  0.2554 -0.1970 -2.0141
 8844TIP3    H247948   1.692   6.716   2.153  0.1742 -0.1048 -1.1190
 8845TIP3   OH247949   3.462   4.380   1.300  0.0166  0.1417  0.1642
 8845TIP3    H147950   3.456   4.379   1.205 -0.4714  0.1750  0.1949
 8845TIP3    H247951   3.554   4.398   1.318  0.2327 -0.4953 -0.3004
 8846TIP3   OH247952   2.487   4.354  16.917  0.4376  0.0905  0.0695
 8846TIP3    H147953   2.506   4.437  16.872  0.2604 -0.7062 -1.4853
 8846TIP3    H247954   2.401   4.329  16.885  0.7343 -0.9826  0.1052
 8847TIP3   OH247955   5.815   6.123  11.064  0.5929  0.3861 -0.0822
 8847TIP3    H147956   5.789   6.103  10.974 -0.0906 -1.0859  0.4339
 8847TIP3    H247957   5.886   6.061  11.083  1.3894  1.3342  0.0694
 8848TIP3   OH247958   6.214   5.057   1.960 -0.2781  0.3684 -0.7062
 8848TIP3    H147959   6.188   5.037   1.870  0.3942  2.4490 -1.3824
 8848TIP3    H247960   6.309   5.041   1.961  0.2698  3.3090 -1.2507
 8849TIP3   OH247961   0.417   4.159   0.667 -0.1105  0.5181  0.6522
 8849TIP3    H147962   0.490   4.118   0.621 -0.4457  0.8309 -0.1740
 8849TIP3    H247963   0.453   4.185   0.752  0.0994 -1.4383  1.1693
 8850TIP3   OH247964   2.936   5.029  11.858  0.3458 -0.1207  0.8215
 8850TIP3    H147965   3.015   4.975  11.864  0.9935  0.7419  0.2087
 8850TIP3    H247966   2.887   5.010  11.938 -0.5493 -3.3104 -0.3928
 8851TIP3   OH247967   2.577   3.713   0.870  0.2832  0.4146  0.1159
 8851TIP3    H147968   2.524   3.778   0.917 -1.2719 -1.1501  0.5594
 8851TIP3    H247969   2.583   3.747   0.780 -1.3889  0.6629  0.0908
 8852TIP3   OH247970   4.355   5.074  11.949  0.3056  0.2207 -0.0677
 8852TIP3    H147971   4.335   5.075  11.855  0.6014  0.9219 -0.1257
 8852TIP3    H247972   4.339   4.983  11.975 -1.0788  0.3214 -0.5074
 8853TIP3   OH247973   2.070   0.534  11.221 -0.2510 -0.1240  0.2158
 8853TIP3    H147974   1.989   0.584  11.232 -0.4414 -0.0436 -1.3531
 8853TIP3    H247975   2.041   0.443  11.210  0.0552 -0.4978  2.4330
 8854TIP3   OH247976   6.690   3.638   4.054  0.4184  0.3956 -0.0994
 8854TIP3    H147977   6.601   3.614   4.029  0.2794 -0.1140  0.8669
 8854TIP3    H247978   6.718   3.699   3.986 -0.3949 -0.0184 -0.8145
 8855TIP3   OH247979   1.287   6.434   3.783  0.4048 -0.0532 -0.1583
 8855TIP3    H147980   1.354   6.407   3.845  1.5691  0.8920 -0.9785
 8855TIP3    H247981   1.283   6.530   3.792 -0.2059 -0.0176 -0.7533
 8856TIP3   OH247982   0.550   0.143  15.894 -0.0299  0.2449 -0.2959
 8856TIP3    H147983   0.499   0.062  15.899  0.8591 -0.3240 -0.4076
 8856TIP3    H247984   0.543   0.182  15.982  0.4855 -0.5277  0.0883
 8857TIP3   OH247985   3.038   6.118  12.089 -0.5327  0.0329 -1.1052
 8857TIP3    H147986   3.017   6.118  12.183  1.1281 -0.3467 -0.7172
 8857TIP3    H247987   2.998   6.038  12.056 -0.6667 -0.1103 -0.6096
 8858TIP3   OH247988   4.075   5.756  12.658 -0.2025 -0.1822  0.6182
 8858TIP3    H147989   4.033   5.837  12.631 -0.0869 -0.3133  0.0434
 8858TIP3    H247990   4.019   5.721  12.727 -0.5405  0.1101  0.4891
 8859TIP3   OH247991   5.996   0.191   1.568  0.0172  0.2248  0.2340
 8859TIP3    H147992   5.925   0.217   1.628 -1.2432 -0.1278 -1.0696
 8859TIP3    H247993   6.063   0.155   1.625 -1.3591 -0.5503  1.4025
 8860TIP3   OH247994   1.067   3.234  11.201  0.3811  0.0316  0.3447
 8860TIP3    H147995   1.014   3.157  11.223 -0.9139  0.6604 -0.4732
 8860TIP3    H247996   1.121   3.249  11.278 -0.7536 -0.5416  1.2711
 8861TIP3   OH247997   3.598   6.510   3.967  0.0700  0.0887  0.8819
 8861TIP3    H147998   3.598   6.533   3.874 -2.1974 -3.0019  0.0350
 8861TIP3    H247999   3.614   6.593   4.012  2.5511  1.4302 -2.2670
 8862TIP3   OH248000   5.116   3.708   4.756 -0.1514  0.3512  0.5135
 8862TIP3    H148001   5.166   3.635   4.792  0.6766  0.4068 -0.4879
 8862TIP3    H248002   5.109   3.771   4.827  0.1873 -0.1740  1.0130
 8863TIP3   OH248003   0.788   5.223  13.825  0.1601  0.1189  0.8043
 8863TIP3    H148004   0.718   5.159  13.837  0.6207 -0.5684 -0.1044
 8863TIP3    H248005   0.743   5.306  13.809 -0.4664 -0.5587 -1.0878
 8864TIP3   OH248006   1.060   1.773  17.029 -0.2959  0.2034 -0.7137
 8864TIP3    H148007   1.012   1.855  17.012 -1.8332 -0.5087  0.0974
 8864TIP3    H248008   1.017   1.736  17.106  0.5169 -1.2850 -0.9677
 8865TIP3   OH248009   3.153   0.835   1.682 -0.0637  0.0544  0.1961
 8865TIP3    H148010   3.101   0.794   1.613 -1.8147 -0.9408  2.0597
 8865TIP3    H248011   3.093   0.895   1.725  0.3830 -0.8544  2.1491
 8866TIP3   OH248012   1.828   3.301  13.174 -0.0696 -0.4459 -0.4322
 8866TIP3    H148013   1.826   3.397  13.179  1.0073 -0.4051 -0.5230
 8866TIP3    H248014   1.846   3.283  13.081  0.1079 -0.7196 -0.3444
 8867TIP3   OH248015   6.377   0.040   2.726  0.1534  0.5339 -0.3150
 8867TIP3    H148016   6.376  -0.048   2.762  0.3990  0.2015 -1.1299
 8867TIP3    H248017   6.284   0.062   2.714  0.1604 -0.5949 -2.5261
 8868TIP3   OH248018   0.048   4.748  13.618  0.4454 -0.0131  0.1029
 8868TIP3    H148019  -0.019   4.767  13.553  0.9088  0.3782 -0.2675
 8868TIP3    H248020   0.099   4.676  13.579  0.8127  0.3197 -0.0346
 8869TIP3   OH248021   2.911   3.754   5.634 -0.3665  0.0270 -0.1878
 8869TIP3    H148022   2.837   3.815   5.634 -0.9648 -0.6872 -0.4382
 8869TIP3    H248023   2.871   3.668   5.645  0.4368 -0.3636 -0.2759
 8870TIP3   OH248024   2.561   1.953   0.041  0.1092 -0.0565  0.0838
 8870TIP3    H148025   2.511   1.982  -0.036  1.7767  1.6065 -0.4053
 8870TIP3    H248026   2.498   1.901   0.091 -1.2547 -0.4852 -1.9730
 8871TIP3   OH248027   6.778   5.848  17.027  0.2778  0.4259 -0.5384
 8871TIP3    H148028   6.829   5.773  17.058  0.8390  0.4216 -1.4283
 8871TIP3    H248029   6.730   5.879  17.104 -1.1488 -1.7860 -0.5058
 8872TIP3   OH248030   4.765   1.699   5.116 -0.3567 -0.7666 -0.1452
 8872TIP3    H148031   4.781   1.613   5.078 -0.4185 -0.7787 -0.1441
 8872TIP3    H248032   4.831   1.708   5.185  2.2599  0.8252 -2.7671
 8873TIP3   OH248033   4.905   4.022  16.924  0.1084  0.1555  0.2764
 8873TIP3    H148034   4.918   3.966  17.000 -0.8826  0.0167  0.3443
 8873TIP3    H248035   4.986   4.012  16.873  0.6038 -0.0681  1.0961
 8874TIP3   OH248036   4.561   1.420   0.660  0.0102 -0.3129 -0.1088
 8874TIP3    H148037   4.553   1.491   0.596  0.3698 -0.4720 -0.3306
 8874TIP3    H248038   4.646   1.434   0.701  0.5281 -1.2213 -0.8753
 8875TIP3   OH248039   3.072   4.295   4.991  0.0625 -0.5349  0.4344
 8875TIP3    H148040   3.159   4.320   4.960 -0.5381  0.8417 -0.2006
 8875TIP3    H248041   3.088   4.226   5.056  1.6804  0.4614  1.1222
 8876TIP3   OH248042   2.576   1.922  11.794  0.0699  0.4014 -0.4891
 8876TIP3    H148043   2.558   1.832  11.770 -2.5441  0.8059 -0.1083
 8876TIP3    H248044   2.593   1.920  11.888 -0.1318  0.3405 -0.4553
 8877TIP3   OH248045   6.659   6.580   0.424  0.2895 -0.3276  0.6991
 8877TIP3    H148046   6.624   6.493   0.406  0.8919 -0.2058 -1.2302
 8877TIP3    H248047   6.590   6.624   0.474 -0.9158 -1.1883 -0.1778
 8878TIP3   OH248048   4.411   0.854  14.696  0.2603  0.0004  0.1551
 8878TIP3    H148049   4.386   0.770  14.734  1.0240  0.2919  1.3350
 8878TIP3    H248050   4.424   0.912  14.772 -0.1602  1.1566 -0.6326
 8879TIP3   OH248051   0.397   4.343  17.080 -0.9456 -0.2167 -0.3735
 8879TIP3    H148052   0.436   4.424  17.049  1.0421 -0.3848  1.5576
 8879TIP3    H248053   0.446   4.274  17.035  0.2347 -0.4089  1.1810
 8880TIP3   OH248054   1.525   6.375  12.746 -0.6647  1.1780  0.1631
 8880TIP3    H148055   1.465   6.448  12.766 -1.2725  0.3830  1.3384
 8880TIP3    H248056   1.542   6.335  12.831 -0.4810 -0.1712 -0.5018
 8881TIP3   OH248057   5.198   2.842   3.161  0.7408 -0.2210 -0.4272
 8881TIP3    H148058   5.250   2.919   3.139 -0.6920  0.0173 -3.1520
 8881TIP3    H248059   5.126   2.842   3.098 -1.5662 -1.5657  2.0862
 8882TIP3   OH248060   6.528   5.723   0.505 -0.3633 -0.1380 -0.3064
 8882TIP3    H148061   6.474   5.773   0.567 -2.6942 -4.2450  1.1803
 8882TIP3    H248062   6.608   5.704   0.553  0.9100  2.7517 -1.1793
 8883TIP3   OH248063   1.953   1.147  16.587  0.5658 -0.0814 -0.8542
 8883TIP3    H148064   1.984   1.231  16.622  2.8494 -0.7790 -1.0865
 8883TIP3    H248065   1.954   1.088  16.662  2.9752 -0.9181 -1.4872
 8884TIP3   OH248066   1.705   0.298  11.486  0.1122 -1.0144 -0.6747
 8884TIP3    H148067   1.655   0.322  11.564 -0.0933 -1.1358 -0.7682
 8884TIP3    H248068   1.771   0.237  11.519  1.1153  0.2428 -0.3122
 8885TIP3   OH248069   1.739   1.434   2.893 -0.2036 -0.2503  0.0031
 8885TIP3    H148070   1.651   1.415   2.862 -0.1352 -0.6143  0.0206
 8885TIP3    H248071   1.795   1.375   2.841  0.1197  0.6514 -0.6801
 8886TIP3   OH248072   5.250   2.600  14.107  0.5456 -0.2092 -0.2495
 8886TIP3    H148073   5.311   2.559  14.046  0.9948 -1.6782  1.1636
 8886TIP3    H248074   5.169   2.609  14.057  0.1427 -3.6661 -0.3527
 8887TIP3   OH248075   3.761   4.807   1.379 -0.9456 -0.0701 -0.5894
 8887TIP3    H148076   3.816   4.884   1.391  0.7047 -0.9407 -2.2848
 8887TIP3    H248077   3.756   4.767   1.466 -1.0731  1.4315  0.1149
 8888TIP3   OH248078   1.943   6.048   2.089  0.5410  0.1296  0.8154
 8888TIP3    H148079   1.992   6.123   2.055  1.3835 -0.7418  0.0411
 8888TIP3    H248080   1.859   6.084   2.118  0.1732  1.0495 -1.3346
 8889TIP3   OH248081   5.079   0.483   4.445 -0.1440 -0.1059 -0.6750
 8889TIP3    H148082   5.033   0.555   4.400  0.0182 -0.6616 -1.7551
 8889TIP3    H248083   5.119   0.524   4.521  0.3401  1.0515 -1.5382
 8890TIP3   OH248084   1.366   1.159   4.413  0.2458 -0.3939 -0.2270
 8890TIP3    H148085   1.388   1.203   4.331 -1.5705  2.1225  0.5674
 8890TIP3    H248086   1.327   1.076   4.386  3.0688 -1.2767 -1.7823
 8891TIP3   OH248087   1.311   6.443  16.640 -0.2787  0.3341 -0.2993
 8891TIP3    H148088   1.406   6.450  16.633 -0.3046 -0.6230 -1.7022
 8891TIP3    H248089   1.287   6.509  16.704  1.4734 -0.2638  1.0236
 8892TIP3   OH248090   0.574   0.377  12.159  0.0036 -0.1906  0.3737
 8892TIP3    H148091   0.601   0.350  12.071  0.1728  1.6656 -0.1794
 8892TIP3    H248092   0.479   0.365  12.159 -0.0807  0.4076 -0.3066
 8893TIP3   OH248093   5.449   0.669   4.192 -0.1359  0.1164 -0.3971
 8893TIP3    H148094   5.389   0.597   4.171 -0.9082 -0.2046  2.5574
 8893TIP3    H248095   5.399   0.748   4.175  1.2720  0.0852 -5.2542
 8894TIP3   OH248096   2.135   3.069   4.996 -0.2197 -1.0699 -0.2019
 8894TIP3    H148097   2.044   3.068   5.025 -0.1955 -0.5660 -0.1028
 8894TIP3    H248098   2.131   3.101   4.906 -0.0093  0.3495  0.2862
 8895TIP3   OH248099   4.405   0.288  11.539  0.3946 -0.0079 -0.2946
 8895TIP3    H148100   4.318   0.327  11.532 -0.6213 -1.7057  1.9715
 8895TIP3    H248101   4.400   0.209  11.486  1.0340  0.6698 -1.3606
 8896TIP3   OH248102   5.063   1.170   6.380  0.0472  0.0972 -0.0359
 8896TIP3    H148103   5.062   1.124   6.464 -0.0982  0.7787  0.3420
 8896TIP3    H248104   5.149   1.150   6.343  0.1544 -0.1216  0.3244
 8897TIP3   OH248105   4.186   4.362  14.081  0.0275 -0.3767 -0.2091
 8897TIP3    H148106   4.094   4.335  14.082  0.0255 -0.4950 -2.1297
 8897TIP3    H248107   4.226   4.311  14.011  1.3113  0.4726 -0.1216
 8898TIP3   OH248108   4.473   5.909  14.497  0.4561 -1.0235 -0.2191
 8898TIP3    H148109   4.554   5.882  14.453  1.4456  0.5277  0.6137
 8898TIP3    H248110   4.457   5.840  14.562  0.6325 -1.7722 -0.9530
 8899TIP3   OH248111   4.373   4.906  14.677 -0.6818  0.1217 -0.3378
 8899TIP3    H148112   4.375   4.947  14.764  0.4901 -0.1291 -0.2400
 8899TIP3    H248113   4.280   4.895  14.658 -0.9598  0.7088  0.6386
 8900TIP3   OH248114   4.994   3.138  12.894 -0.1271 -0.1516  0.3462
 8900TIP3    H148115   5.087   3.119  12.882 -0.1149 -0.5678  1.0522
 8900TIP3    H248116   4.987   3.233  12.881  0.3933 -0.1211  0.2735
 8901TIP3   OH248117   4.540   2.643  13.647  0.6937 -0.0635  0.2201
 8901TIP3    H148118   4.519   2.693  13.725  0.4205  0.4728 -0.1895
 8901TIP3    H248119   4.632   2.618  13.658  0.8123  0.4719  0.4596
 8902TIP3   OH248120   1.768   6.566   5.731 -0.2321 -0.5669  0.1179
 8902TIP3    H148121   1.840   6.526   5.781  0.9274  0.9722 -0.2632
 8902TIP3    H248122   1.759   6.511   5.653  3.3233  1.4712 -1.8603
 8903TIP3   OH248123   2.567   5.273  13.867  0.4595 -0.1388 -0.7559
 8903TIP3    H148124   2.613   5.215  13.808  2.0323  0.8777 -0.5629
 8903TIP3    H248125   2.492   5.222  13.898 -0.5469 -0.5899 -3.8116
 8904TIP3   OH248126   6.228   1.959  16.944 -0.0167  0.2592 -0.1234
 8904TIP3    H148127   6.239   2.034  17.003  1.1296 -0.5227  0.6835
 8904TIP3    H248128   6.150   1.914  16.978  0.3564  0.0817  0.5071
 8905TIP3   OH248129   3.176   3.465   0.697 -0.0035 -0.0527  0.1058
 8905TIP3    H148130   3.135   3.510   0.623 -0.9064  2.6853  2.1972
 8905TIP3    H248131   3.103   3.424   0.744  0.1666  0.9281  1.2489
 8906TIP3   OH248132   1.986   2.870  16.849  0.9484  0.4130  0.7689
 8906TIP3    H148133   1.928   2.807  16.807  0.9914 -0.6363  2.2073
 8906TIP3    H248134   1.946   2.955  16.834  0.0577 -0.1205  0.1248
 8907TIP3   OH248135   6.241   1.472   5.918 -0.4463 -0.0560 -0.1364
 8907TIP3    H148136   6.187   1.527   5.861 -2.3018  0.2238  1.8476
 8907TIP3    H248137   6.181   1.441   5.986  0.9622 -3.1407 -0.2130
 8908TIP3   OH248138   3.834   3.096  11.666 -0.1901 -0.0821 -0.4191
 8908TIP3    H148139   3.815   3.158  11.596 -0.3487 -0.3176 -0.5853
 8908TIP3    H248140   3.774   3.023  11.650 -1.9718  0.9471  1.3880
 8909TIP3   OH248141   0.564   5.298   2.732  0.1005  0.1766  0.7028
 8909TIP3    H148142   0.496   5.280   2.797 -0.3078  0.3802  0.3356
 8909TIP3    H248143   0.604   5.212   2.714 -3.4640 -0.8925 -2.8534
 8910TIP3   OH248144   0.075   0.980   1.973  0.6569 -0.7470 -0.2652
 8910TIP3    H148145   0.130   1.058   1.980  1.9818 -1.7228  0.1943
 8910TIP3    H248146   0.000   0.999   2.030  1.2604 -0.0520  0.3023
 8911TIP3   OH248147   5.431   0.043   4.296  0.4868  0.7352  0.3193
 8911TIP3    H148148   5.353   0.099   4.292  1.4842  2.0817 -1.5355
 8911TIP3    H248149   5.402  -0.036   4.340 -0.9753  2.7247  3.1174
 8912TIP3   OH248150   3.294   6.358  13.893  0.1096 -0.3462  0.2615
 8912TIP3    H148151   3.200   6.343  13.879  0.1188 -0.2451  0.0931
 8912TIP3    H248152   3.297   6.410  13.973  0.1145 -1.8013  1.2210
 8913TIP3   OH248153   6.036   6.687  16.273  0.5508 -0.1117 -0.1865
 8913TIP3    H148154   6.114   6.670  16.220  0.3356 -0.5538 -0.3569
 8913TIP3    H248155   5.968   6.710  16.209  0.6973  0.8736  0.0010
 8914TIP3   OH248156   6.526   3.075   0.514 -0.5813  0.0779 -0.2341
 8914TIP3    H148157   6.509   3.039   0.427  0.9087  0.5968 -0.7533
 8914TIP3    H248158   6.570   3.004   0.561 -2.8919 -0.7983  0.6744
 8915TIP3   OH248159   4.462   6.407   5.685  0.1406 -0.7432  0.3853
 8915TIP3    H148160   4.422   6.492   5.666 -0.1649 -1.0447 -0.3802
 8915TIP3    H248161   4.388   6.347   5.688  0.5997 -1.4859 -2.0746
 8916TIP3   OH248162   4.181   6.260  15.969  0.0907 -0.3860  0.2427
 8916TIP3    H148163   4.164   6.238  15.877  2.4448 -0.8337 -0.1176
 8916TIP3    H248164   4.165   6.354  15.975 -0.6452 -0.4613 -0.4808
 8917TIP3   OH248165   6.635   0.951  13.339  0.0448  0.0959 -0.4920
 8917TIP3    H148166   6.642   0.856  13.332 -0.5524 -0.0052  0.1917
 8917TIP3    H248167   6.721   0.979  13.370 -0.2017 -0.3695  0.6468
 8918TIP3   OH248168   0.904   3.893   2.062 -0.1242  0.0662 -0.1353
 8918TIP3    H148169   0.944   3.875   1.977  0.0847  1.3436 -0.3192
 8918TIP3    H248170   0.827   3.946   2.042 -0.2956  0.0390  0.4400
 8919TIP3   OH248171   5.284   2.159   6.125 -0.4741  0.5119  0.4786
 8919TIP3    H148172   5.201   2.185   6.085 -1.7892 -0.0471  2.7741
 8919TIP3    H248173   5.282   2.064   6.126  0.3401  0.4852  0.2840
 8920TIP3   OH248174   5.685   3.966   5.512 -0.3940  0.4312  0.0147
 8920TIP3    H148175   5.675   3.967   5.607  0.0293 -0.6985  0.0792
 8920TIP3    H248176   5.768   4.010   5.495 -0.8243  1.2883  0.1137
 8921TIP3   OH248177   0.916   5.611   1.306 -0.7300  0.2998 -0.0726
 8921TIP3    H148178   0.891   5.570   1.223  0.3397 -0.0759 -0.2145
 8921TIP3    H248179   0.870   5.695   1.306 -0.2173  0.5946 -1.3629
 8922TIP3   OH248180   5.358   0.966  15.823  0.4569 -0.4106  0.3591
 8922TIP3    H148181   5.341   0.970  15.917 -0.6518  1.2314  0.1047
 8922TIP3    H248182   5.382   1.055  15.799 -1.6065 -0.2635 -1.3326
 8923TIP3   OH248183   1.562   5.854   1.116 -0.2324  0.5795  0.5438
 8923TIP3    H148184   1.504   5.794   1.163  1.8848 -0.1536  2.2896
 8923TIP3    H248185   1.556   5.936   1.165 -0.3029  0.7131  0.3155
 8924TIP3   OH248186   1.655   2.758  12.225  0.6557 -0.7185  0.2078
 8924TIP3    H148187   1.614   2.673  12.239  2.1701 -1.6371 -0.7863
 8924TIP3    H248188   1.749   2.739  12.220  1.0552  1.0807  0.5130
 8925TIP3   OH248189   4.727   0.538  11.887 -0.2792 -0.2611 -0.3654
 8925TIP3    H148190   4.693   0.505  11.805  2.6684 -1.6369 -1.1125
 8925TIP3    H248191   4.719   0.633  11.881 -0.5580 -0.3898 -2.0266
 8926TIP3   OH248192   5.849   5.158   4.582 -0.3200  0.7295 -0.0469
 8926TIP3    H148193   5.889   5.173   4.496 -0.3408 -2.1625 -0.6177
 8926TIP3    H248194   5.881   5.230   4.636  1.9770  1.0220 -1.7256
 8927TIP3   OH248195   3.220   0.098  15.596 -0.6034  0.3032 -0.1868
 8927TIP3    H148196   3.155   0.031  15.573 -0.2375 -0.2595  0.3811
 8927TIP3    H248197   3.169   0.176  15.616 -1.2583 -0.6565  2.1268
 8928TIP3   OH248198   2.753   4.766   2.782  0.2740  0.1387 -0.0789
 8928TIP3    H148199   2.825   4.713   2.746  0.1842  0.0373 -0.1068
 8928TIP3    H248200   2.765   4.761   2.877  2.6918  3.3527 -0.1033
 8929TIP3   OH248201   3.834   5.102   1.387 -0.3799  0.1650 -0.7589
 8929TIP3    H148202   3.852   5.166   1.318  0.4946  1.8911  1.0154
 8929TIP3    H248203   3.748   5.126   1.421 -0.0501  0.4264 -0.0887
 8930TIP3   OH248204   2.814   5.644   4.971 -0.1117 -0.3635  0.3115
 8930TIP3    H148205   2.801   5.732   5.007  0.2471  0.4227 -1.3842
 8930TIP3    H248206   2.729   5.601   4.983 -0.3624  0.2950  0.9714
 8931TIP3   OH248207   4.618   5.694  12.941 -0.2613 -0.4581  0.0539
 8931TIP3    H148208   4.645   5.645  12.863  1.2468 -0.6820  0.7105
 8931TIP3    H248209   4.590   5.626  13.002 -2.4949 -0.2336 -0.6430
 8932TIP3   OH248210   0.725   3.638  14.627 -0.4552  0.7496  0.0646
 8932TIP3    H148211   0.770   3.638  14.711 -1.1159 -0.5654  0.4145
 8932TIP3    H248212   0.650   3.580  14.639 -0.9656  1.1252 -1.2129
 8933TIP3   OH248213   5.831   5.828   0.340 -0.1401  0.4473  0.4296
 8933TIP3    H148214   5.763   5.845   0.274  0.1440  0.4257  0.1316
 8933TIP3    H248215   5.843   5.912   0.384 -0.4190  0.4301  0.5381
 8934TIP3   OH248216   4.128   0.217  11.975  0.5104 -0.6140 -0.3262
 8934TIP3    H148217   4.156   0.307  11.956 -1.5965  0.1137 -0.0621
 8934TIP3    H248218   4.208   0.172  12.003  1.8511  0.8065 -1.7663
 8935TIP3   OH248219   6.238   4.679   0.259 -0.1518  0.1960 -0.2119
 8935TIP3    H148220   6.287   4.599   0.239  1.8183  1.0658  1.0179
 8935TIP3    H248221   6.177   4.654   0.328 -0.5382 -0.5830 -0.8296
 8936TIP3   OH248222   4.153   6.028  17.182  0.2425  0.0770  0.0586
 8936TIP3    H148223   4.217   6.099  17.186  0.2883  0.0824 -0.5924
 8936TIP3    H248224   4.132   6.008  17.273  0.3363  0.8325  0.2503
 8937TIP3   OH248225   6.770   5.720  12.171  0.4440  0.0032 -0.4866
 8937TIP3    H148226   6.842   5.781  12.192  0.2829 -0.5576  1.7825
 8937TIP3    H248227   6.814   5.637  12.151  0.5067  0.0598 -0.5809
 8938TIP3   OH248228   1.381   6.285   0.544  0.2726  0.1071  0.2524
 8938TIP3    H148229   1.465   6.294   0.589  0.0987 -0.5720  0.7167
 8938TIP3    H248230   1.366   6.371   0.505  1.7211 -0.0987 -0.7859
 8939TIP3   OH248231   0.629   4.599   4.268  0.3153  0.5618  0.4045
 8939TIP3    H148232   0.686   4.676   4.267 -1.3680  1.9277  3.1820
 8939TIP3    H248233   0.652   4.550   4.189  1.5029  3.8546 -1.3588
 8940TIP3   OH248234   0.454   1.137  15.675 -0.7545  0.0990  0.3057
 8940TIP3    H148235   0.385   1.095  15.623 -1.4940  1.7380 -0.0781
 8940TIP3    H248236   0.438   1.231  15.664  2.3656  0.5541 -0.9026
 8941TIP3   OH248237   3.634   0.463   6.434 -0.2155  0.7589  0.1622
 8941TIP3    H148238   3.582   0.525   6.485  0.6744  0.9855  0.8069
 8941TIP3    H248239   3.684   0.519   6.374 -0.0513  0.6019  0.1554
 8942TIP3   OH248240   3.998   0.622  12.785  0.0349  0.4226 -0.9481
 8942TIP3    H148241   4.093   0.614  12.781  0.1154 -0.5452  2.0300
 8942TIP3    H248242   3.966   0.532  12.787 -0.7810  0.7226  0.4352
 8943TIP3   OH248243   5.206   1.689   6.325  0.1240 -0.4022 -0.4284
 8943TIP3    H148244   5.234   1.768   6.278 -0.4139  1.2054  1.8805
 8943TIP3    H248245   5.158   1.638   6.259  1.5997  0.5632 -2.3016
 8944TIP3   OH248246   3.777   3.808   5.293 -0.0231  0.6168  0.2346
 8944TIP3    H148247   3.855   3.863   5.304 -0.0122  0.5459  0.5127
 8944TIP3    H248248   3.780   3.780   5.201 -1.1586  2.8249 -0.5099
 8945TIP3   OH248249   5.011   4.208   0.212 -0.0409 -0.1521  0.4621
 8945TIP3    H148250   4.930   4.240   0.252 -1.3416 -0.9291 -1.4832
 8945TIP3    H248251   5.065   4.180   0.287 -1.4622  0.5683  1.7945
 8946TIP3   OH248252   0.086   0.666  16.372  0.3493  0.4612 -0.2082
 8946TIP3    H148253   0.053   0.709  16.451 -2.6642 -0.8379 -0.7160
 8946TIP3    H248254   0.148   0.600  16.405 -1.3434 -0.4853  1.1546
 8947TIP3   OH248255   2.732   6.232   5.118 -0.2964  0.4874  0.0641
 8947TIP3    H148256   2.809   6.289   5.124 -0.4176  0.7672 -0.8718
 8947TIP3    H248257   2.725   6.191   5.204  1.3729 -0.1443 -0.0813
 8948TIP3   OH248258   4.564   3.618  12.133 -0.4814 -0.5999  0.4251
 8948TIP3    H148259   4.642   3.562  12.137 -0.2650 -0.2215  1.8311
 8948TIP3    H248260   4.571   3.663  12.049  0.5241 -1.0009  0.2885
 8949TIP3   OH248261   1.313   4.100  16.261  0.1899 -0.6533 -0.0388
 8949TIP3    H148262   1.286   4.009  16.272 -0.1465 -0.3839  1.5281
 8949TIP3    H248263   1.265   4.147  16.330  0.7143  0.6256 -0.5411
 8950TIP3   OH248264   5.061   2.918   5.588 -0.2331 -0.3282  0.0806
 8950TIP3    H148265   5.134   2.869   5.550 -1.3496 -0.2810 -2.2123
 8950TIP3    H248266   4.998   2.851   5.613  0.1374 -0.3051  1.1007
 8951TIP3   OH248267   4.541   2.453  11.685 -0.6935 -0.3344  0.2970
 8951TIP3    H148268   4.508   2.442  11.774 -1.3762  1.6193  0.3081
 8951TIP3    H248269   4.635   2.465  11.695 -0.5824 -1.4176  0.6363
 8952TIP3   OH248270   2.043   3.023   6.099 -0.5077 -0.0116 -0.1736
 8952TIP3    H148271   1.968   2.991   6.049  0.9505 -0.0454 -2.3984
 8952TIP3    H248272   2.005   3.055   6.181 -2.7174 -1.7193 -0.4836
 8953TIP3   OH248273   2.732   0.248   0.349  0.6507 -0.0948  0.4236
 8953TIP3    H148274   2.660   0.186   0.340  1.8350 -1.6986  1.5685
 8953TIP3    H248275   2.792   0.225   0.277  0.2004  0.9957 -0.3083
 8954TIP3   OH248276   4.409   1.574  13.304  0.5001  0.0652  0.1538
 8954TIP3    H148277   4.444   1.661  13.284  1.7988  0.4040  3.5543
 8954TIP3    H248278   4.483   1.514  13.292 -0.0320 -0.4182 -0.8244
 8955TIP3   OH248279   0.963   2.125   2.928 -0.1228  0.1985  0.0663
 8955TIP3    H148280   1.026   2.150   2.861  0.4399 -1.4681 -0.0453
 8955TIP3    H248281   0.900   2.070   2.882 -0.7032  0.4429  0.5528
 8956TIP3   OH248282   3.091   1.849   1.512 -0.3201  0.0650  0.6832
 8956TIP3    H148283   3.153   1.922   1.518 -0.1597 -0.0607  0.5615
 8956TIP3    H248284   3.026   1.868   1.580  1.5139 -1.3701  2.9514
 8957TIP3   OH248285   3.886   2.397   0.876 -0.2283  0.0797 -0.1209
 8957TIP3    H148286   3.870   2.316   0.827  1.2063 -1.0264  1.1725
 8957TIP3    H248287   3.912   2.366   0.963 -1.1241  1.9665  0.8354
 8958TIP3   OH248288   4.860   3.501   0.299 -0.0850 -0.3519  0.0645
 8958TIP3    H148289   4.865   3.516   0.393  3.1294 -2.7840  0.3268
 8958TIP3    H248290   4.933   3.550   0.262 -0.7773 -0.1632 -1.1086
 8959TIP3   OH248291   3.309   4.050   3.849 -0.1486 -0.8614 -0.2664
 8959TIP3    H148292   3.244   3.993   3.808  0.2878 -0.5474 -1.3976
 8959TIP3    H248293   3.301   4.133   3.803  1.2989 -0.9249 -0.6361
 8960TIP3   OH248294   2.665   5.504  12.429 -0.5921 -0.1311 -0.5421
 8960TIP3    H148295   2.635   5.470  12.513  0.2058 -1.3414 -0.7415
 8960TIP3    H248296   2.688   5.426  12.378  1.2247  0.6991 -1.0216
 8961TIP3   OH248297   5.111   1.781   2.021 -0.2773 -0.1105 -0.9465
 8961TIP3    H148298   5.103   1.824   1.935 -1.1110  0.4367 -0.6035
 8961TIP3    H248299   5.102   1.853   2.084 -2.2932 -0.8639 -0.3566
 8962TIP3   OH248300   1.252   2.541   5.007 -0.1167 -0.7052 -0.0116
 8962TIP3    H148301   1.326   2.518   4.951 -1.2761  0.7792 -2.2353
 8962TIP3    H248302   1.291   2.590   5.080  1.1643 -0.3783 -0.8985
 8963TIP3   OH248303   5.056   2.651   4.435  0.1425  0.5659  1.1364
 8963TIP3    H148304   5.098   2.721   4.484  0.8212  1.4646 -0.6590
 8963TIP3    H248305   4.986   2.694   4.387 -0.9451 -0.4107  1.8343
 8964TIP3   OH248306   5.101   0.076  14.107 -0.1586  0.6582  0.5173
 8964TIP3    H148307   5.035   0.028  14.056 -0.8357  0.3375  1.6737
 8964TIP3    H248308   5.094   0.040  14.196  0.8986  1.3139  0.8809
 8965TIP3   OH248309   3.620   4.444  17.044  0.1450 -0.1892 -0.2184
 8965TIP3    H148310   3.560   4.513  17.017  2.7143  2.3289  0.1740
 8965TIP3    H248311   3.655   4.409  16.962  1.0733  1.0826 -0.3769
 8966TIP3   OH248312   2.003   6.716  12.468  0.4736 -0.0603 -0.3952
 8966TIP3    H148313   2.011   6.785  12.402 -0.4364  0.6939  0.2857
 8966TIP3    H248314   1.918   6.676  12.451 -0.5148  1.2396  1.3805
 8967TIP3   OH248315   2.562   1.338   1.156  0.5242 -0.0255  0.4783
 8967TIP3    H148316   2.575   1.244   1.163 -0.9541 -0.2335  0.4983
 8967TIP3    H248317   2.559   1.355   1.061  1.1160  0.0523  0.4716
 8968TIP3   OH248318   0.628   2.954  12.389 -0.3867  0.7501 -0.1734
 8968TIP3    H148319   0.618   2.887  12.322 -1.4970  1.6012 -0.8651
 8968TIP3    H248320   0.695   3.014  12.354  0.8507 -0.1592  0.5912
 8969TIP3   OH248321   3.888   6.375  11.286  0.3069 -0.3631 -0.6138
 8969TIP3    H148322   3.982   6.386  11.302  0.2415 -1.3008  0.5086
 8969TIP3    H248323   3.854   6.338  11.368 -1.0725  0.1209 -0.9541
 8970TIP3   OH248324   4.143   4.859   5.678 -0.7450 -0.2349 -0.2762
 8970TIP3    H148325   4.176   4.807   5.751  1.1514 -1.5583 -2.0247
 8970TIP3    H248326   4.193   4.940   5.682  0.0836 -0.7144 -0.6723
 8971TIP3   OH248327   3.621   5.687  13.824  0.7058  0.2851  0.0775
 8971TIP3    H148328   3.585   5.759  13.772  1.2151 -0.1821 -0.9331
 8971TIP3    H248329   3.711   5.714  13.844 -0.1207  1.4244  2.5475
 8972TIP3   OH248330   4.691   4.820  12.049  0.4316  0.2119  0.0171
 8972TIP3    H148331   4.723   4.902  12.011  0.4996  0.6914  1.0852
 8972TIP3    H248332   4.619   4.794  11.992  0.4083  1.0239 -0.3365
 8973TIP3   OH248333   3.450   6.023  14.475 -0.1795 -0.0600 -0.1858
 8973TIP3    H148334   3.420   6.089  14.538  3.4024  1.6336 -0.1819
 8973TIP3    H248335   3.544   6.014  14.491  0.2580 -1.8542 -3.2697
 8974TIP3   OH248336   2.304   3.088   0.654 -0.1185  0.2828  0.6281
 8974TIP3    H148337   2.347   3.009   0.621 -0.2682  0.3545  0.2651
 8974TIP3    H248338   2.288   3.141   0.576 -0.1464  0.6087  0.8564
 8975TIP3   OH248339   2.939   6.556   4.278  0.0585 -0.4603  0.0598
 8975TIP3    H148340   2.845   6.548   4.293  0.0747 -1.0643 -0.1180
 8975TIP3    H248341   2.968   6.622   4.340 -0.4242 -0.5378  0.3718
 8976TIP3   OH248342   6.756   2.091   1.871  0.1587 -0.3697 -0.4329
 8976TIP3    H148343   6.713   2.085   1.786 -0.0227  0.5035 -0.4104
 8976TIP3    H248344   6.840   2.048   1.859 -0.4021 -1.4011 -0.6965
 8977TIP3   OH248345   6.183   2.613  12.614  0.1472 -0.2167  0.0120
 8977TIP3    H148346   6.173   2.536  12.558  0.0478 -0.7948  0.8122
 8977TIP3    H248347   6.264   2.598  12.662 -0.4994 -0.4161  1.0701
 8978TIP3   OH248348   4.099   5.313  10.150  0.2822  0.2581  0.0092
 8978TIP3    H148349   4.040   5.385  10.174  1.3850  0.7505  1.3446
 8978TIP3    H248350   4.182   5.356  10.131  0.1328 -0.3939 -2.2130
 8979TIP3   OH248351   1.623   5.227   1.325  0.2143  0.3966 -0.3987
 8979TIP3    H148352   1.687   5.265   1.265 -0.7985 -0.5609 -2.1119
 8979TIP3    H248353   1.605   5.296   1.388  1.4332  1.3540 -1.0727
 8980TIP3   OH248354   2.719   5.904   1.258 -0.2307  0.4825  0.2908
 8980TIP3    H148355   2.794   5.904   1.317 -0.2921 -0.7531  0.3779
 8980TIP3    H248356   2.692   5.813   1.253 -1.8612  0.9499  0.4124
 8981TIP3   OH248357   3.469   1.734   5.568  0.0955 -0.3036  0.6564
 8981TIP3    H148358   3.412   1.727   5.646 -0.2956 -0.3772  0.3673
 8981TIP3    H248359   3.553   1.700   5.597  0.0016 -0.1684  1.1021
 8982TIP3   OH248360   5.132   4.793   4.532  0.2873 -0.1387 -0.1687
 8982TIP3    H148361   5.121   4.710   4.486 -0.5836 -0.0648 -0.1032
 8982TIP3    H248362   5.063   4.849   4.498 -0.3873 -0.0934  1.2451
 8983TIP3   OH248363   3.995   0.225  16.215 -0.2810  0.0835 -0.1952
 8983TIP3    H148364   4.085   0.243  16.240 -0.8102  1.0194  1.0730
 8983TIP3    H248365   3.976   0.290  16.147 -0.4181  0.7615  0.4830
 8984TIP3   OH248366   4.928   4.272   3.820 -0.4957 -0.4568  0.0644
 8984TIP3    H148367   4.947   4.281   3.727 -0.3487  1.4970  0.2510
 8984TIP3    H248368   4.968   4.189   3.845 -0.8886 -1.2029 -1.6882
 8985TIP3   OH248369   2.962   2.633  13.667 -0.3903  0.3779  0.0371
 8985TIP3    H148370   2.933   2.649  13.756  0.0804 -0.4890  0.3496
 8985TIP3    H248371   2.951   2.717  13.622 -0.4061  0.8725  0.9675
 8986TIP3   OH248372   0.887   3.285  14.399 -0.1992  0.6396  0.0578
 8986TIP3    H148373   0.807   3.336  14.411 -0.5904  0.2430 -0.8070
 8986TIP3    H248374   0.868   3.228  14.324  0.0512 -1.1251  1.2910
 8987TIP3   OH248375   2.563   0.996   4.922 -0.0692  0.9204 -0.5257
 8987TIP3    H148376   2.643   0.952   4.893  0.2295  1.7339 -0.9585
 8987TIP3    H248377   2.567   0.991   5.017 -0.5067 -0.8018 -0.5901
 8988TIP3   OH248378   6.715   1.044  12.562  0.5591 -0.2111  0.2872
 8988TIP3    H148379   6.718   1.134  12.595  0.8198 -0.0990 -0.0453
 8988TIP3    H248380   6.754   0.991  12.632 -1.6568 -0.3577  1.4693
 8989TIP3   OH248381   2.465   5.708  12.714  0.2257  0.1889  0.3957
 8989TIP3    H148382   2.486   5.800  12.698  0.5284  0.0547  0.0161
 8989TIP3    H248383   2.547   5.670  12.745  0.2497 -0.0870 -0.0104
 8990TIP3   OH248384   3.017   6.650   3.643 -0.1813  0.0486 -0.1240
 8990TIP3    H148385   2.939   6.595   3.636  0.5240 -0.9478 -0.2336
 8990TIP3    H248386   2.991   6.733   3.604 -1.0970 -0.3750 -0.4296
 8991TIP3   OH248387   2.281   3.499  14.847 -0.0337 -0.2571 -0.1785
 8991TIP3    H148388   2.336   3.510  14.924 -0.8688  3.0960  0.0151
 8991TIP3    H248389   2.191   3.503  14.880 -0.4040  1.7730 -1.3388
 8992TIP3   OH248390   4.483   4.800  16.903  0.1610  0.0524 -0.3120
 8992TIP3    H148391   4.438   4.884  16.909  1.2605  0.6966 -0.8106
 8992TIP3    H248392   4.473   4.773  16.812  1.8924  0.8434 -0.7484
 8993TIP3   OH248393   2.812   0.027  12.206  0.2438 -0.3024 -0.2904
 8993TIP3    H148394   2.817   0.122  12.195  1.5068 -0.3014  0.1723
 8993TIP3    H248395   2.718   0.008  12.209 -0.0203  1.0096  0.3254
 8994TIP3   OH248396   3.511   2.254  16.123  0.1016  0.2224  0.2826
 8994TIP3    H148397   3.488   2.161  16.124  0.3845  0.1490  0.7490
 8994TIP3    H248398   3.459   2.292  16.194 -0.2004  0.4643 -0.0750
 8995TIP3   OH248399   1.466   6.125   2.295  0.1416 -0.6074 -0.0838
 8995TIP3    H148400   1.456   6.058   2.227  0.2139  1.1840 -1.8987
 8995TIP3    H248401   1.378   6.162   2.304 -0.0332 -1.3521  1.3673
 8996TIP3   OH248402   2.025   1.253   3.276  0.1024  0.4169 -0.1426
 8996TIP3    H148403   1.976   1.203   3.210  0.5198  0.0096 -0.1505
 8996TIP3    H248404   2.099   1.290   3.228  1.4907 -1.4636  0.4498
 8997TIP3   OH248405   2.088   1.099   5.131 -0.1290 -0.5309 -0.5412
 8997TIP3    H148406   2.056   1.013   5.156 -1.0076 -0.7104 -2.2760
 8997TIP3    H248407   2.040   1.121   5.051  1.1351  0.9377 -0.9172
 8998TIP3   OH248408   3.755   2.165  10.787  0.0675  0.2556  0.3817
 8998TIP3    H148409   3.665   2.132  10.792 -0.0710  0.5312 -0.1626
 8998TIP3    H248410   3.778   2.156  10.695 -0.0594  1.8633  0.1736
 8999TIP3   OH248411   3.834   5.980  14.352  0.8554 -0.2348 -0.5574
 8999TIP3    H148412   3.796   5.905  14.398 -1.3134  0.2345 -1.5134
 8999TIP3    H248413   3.802   6.056  14.400 -0.7834  0.2266 -2.3072
 9000TIP3   OH248414   4.206   1.637  12.597 -0.2012 -0.0876  0.7918
 9000TIP3    H148415   4.129   1.605  12.549 -1.5393  1.2256  1.9907
 9000TIP3    H248416   4.172   1.661  12.683  1.4505  1.0079  1.1649
 9001TIP3   OH248417   0.039   4.091   0.446  0.2783  0.4306  0.0303
 9001TIP3    H148418   0.059   4.071   0.537 -0.6312 -0.3110  0.0776
 9001TIP3    H248419   0.081   4.175   0.429  0.0246  0.8057  1.2742
 9002TIP3   OH248420   4.472   6.405   2.817  0.0433  0.7182 -0.3745
 9002TIP3    H148421   4.433   6.352   2.747  0.9568  0.8050 -0.9488
 9002TIP3    H248422   4.466   6.495   2.784 -2.1014  1.0587  0.8771
 9003TIP3   OH248423   3.497   5.171  11.444 -0.1253  0.1090 -1.0801
 9003TIP3    H148424   3.493   5.232  11.370  0.0540  0.6245 -0.6731
 9003TIP3    H248425   3.571   5.202  11.496 -0.2517 -0.2485 -0.6828
 9004TIP3   OH248426   3.704   6.275  11.100  0.1540 -0.0394  0.2379
 9004TIP3    H148427   3.649   6.321  11.037 -0.3728  1.1600  1.5355
 9004TIP3    H248428   3.778   6.334  11.116  0.7867 -0.7662 -0.0091
 9005TIP3   OH248429   4.521   0.085  16.328 -0.3745 -0.5380  0.3521
 9005TIP3    H148430   4.582   0.014  16.348  0.7958 -0.0973 -1.5046
 9005TIP3    H248431   4.573   0.164  16.335 -0.8224 -0.1260 -0.8925
 9006TIP3   OH248432   0.686   5.084   0.508 -0.4374 -0.1727 -0.2011
 9006TIP3    H148433   0.770   5.105   0.466 -0.3486  0.9470  0.5113
 9006TIP3    H248434   0.644   5.023   0.448  1.3574 -1.5806 -0.0645
 9007TIP3   OH248435   6.111   2.718  15.581  0.3426 -0.1693 -0.2065
 9007TIP3    H148436   6.082   2.630  15.559  0.5263 -0.3571  0.2903
 9007TIP3    H248437   6.132   2.713  15.674 -1.0901  0.7783  0.1914
 9008TIP3   OH248438   4.268   0.926  16.858 -0.0222  0.1552 -0.6901
 9008TIP3    H148439   4.340   0.939  16.796  1.3985 -0.9828  0.6659
 9008TIP3    H248440   4.190   0.919  16.803  1.1938 -0.7689 -2.3564
 9009TIP3   OH248441   5.436   3.549   3.854  0.4159  0.3728  0.2000
 9009TIP3    H148442   5.525   3.516   3.865 -0.9884 -3.4060  1.2405
 9009TIP3    H248443   5.406   3.510   3.771 -1.1552 -0.7081  1.2384
 9010TIP3   OH248444   0.861   5.817   5.601 -0.4702 -0.3914  0.1914
 9010TIP3    H148445   0.799   5.744   5.598 -1.0454  0.0356  1.5522
 9010TIP3    H248446   0.820   5.885   5.548 -0.6848 -0.4792  0.2443
 9011TIP3   OH248447   2.691   4.206   1.223 -0.2570  0.5042  0.1808
 9011TIP3    H148448   2.643   4.202   1.140  1.2456  4.4435 -0.9809
 9011TIP3    H248449   2.746   4.128   1.223 -0.2106  0.4982 -2.5958
 9012TIP3   OH248450   3.982   5.534   5.724 -0.2549 -0.9711  0.1139
 9012TIP3    H148451   4.053   5.581   5.768  0.8879 -2.2756 -0.3073
 9012TIP3    H248452   3.903   5.562   5.769  0.6055 -0.0318  1.0547
 9013TIP3   OH248453   3.610   1.353   5.852  0.3248 -0.5187 -0.3655
 9013TIP3    H148454   3.541   1.374   5.914  1.1400  0.4439  0.2360
 9013TIP3    H248455   3.688   1.338   5.906  0.7125 -1.0943 -1.0595
 9014TIP3   OH248456   1.927   3.991  15.202  0.2435 -0.0218  0.8460
 9014TIP3    H148457   1.843   4.009  15.245 -0.6676  1.6374 -1.5816
 9014TIP3    H248458   1.986   4.058  15.235 -0.2432  0.7608  0.1403
 9015TIP3   OH248459   3.773   3.611  15.419  0.3470 -0.4752  0.0049
 9015TIP3    H148460   3.708   3.598  15.488  0.1124  0.0900 -0.1137
 9015TIP3    H248461   3.788   3.523  15.385 -0.6364 -0.5591 -0.2234
 9016TIP3   OH248462   2.798   0.601   3.510  0.1987  0.1164  0.1042
 9016TIP3    H148463   2.763   0.690   3.513  0.3054  0.0779  3.4632
 9016TIP3    H248464   2.725   0.546   3.534  0.6962 -0.5627  0.0649
 9017TIP3   OH248465   3.907   6.319   1.625 -0.0337 -0.6408  0.0378
 9017TIP3    H148466   3.960   6.324   1.705 -0.4151 -1.5709  0.3621
 9017TIP3    H248467   3.817   6.326   1.655 -0.1390 -0.1637 -0.3981
 9018TIP3   OH248468   2.409   2.937  16.256 -0.3237  0.3849 -0.0592
 9018TIP3    H148469   2.341   2.992  16.296 -0.7181 -0.6295  0.7075
 9018TIP3    H248470   2.490   2.988  16.267 -0.7463  1.0025  0.2565
 9019TIP3   OH248471   4.587   2.466   0.470 -0.0795 -0.1845 -0.4300
 9019TIP3    H148472   4.564   2.553   0.504 -0.5897 -0.3714 -0.2912
 9019TIP3    H248473   4.566   2.471   0.377  0.4489  0.0303 -0.5384
 9020TIP3   OH248474   1.883   6.116  16.982  0.3392  0.2537 -0.1334
 9020TIP3    H148475   1.920   6.187  16.930 -2.6672  0.2437 -2.4564
 9020TIP3    H248476   1.809   6.156  17.029  1.3017 -0.3884  1.9987
 9021TIP3   OH248477   2.493   5.821  11.276 -0.4058 -0.0323 -1.0206
 9021TIP3    H148478   2.474   5.731  11.251 -1.6896 -0.2382  0.6386
 9021TIP3    H248479   2.585   5.833  11.252  0.1448 -2.1845 -0.1033
 9022TIP3   OH248480   1.728   3.634  12.706  0.2123  0.4565  0.3246
 9022TIP3    H148481   1.720   3.541  12.687  1.9325  0.2649  0.5032
 9022TIP3    H248482   1.700   3.641  12.798 -1.0770  0.3136 -0.0434
 9023TIP3   OH248483   4.723   0.320  17.207 -0.1861 -0.0849 -0.1218
 9023TIP3    H148484   4.679   0.363  17.281 -3.6231 -0.9631 -1.5407
 9023TIP3    H248485   4.795   0.270  17.247 -0.4605  1.3740  2.3203
 9024TIP3   OH248486   2.830   5.591  13.811  0.2761  0.0909  0.0785
 9024TIP3    H148487   2.806   5.616  13.722 -0.0833  1.3466  0.5196
 9024TIP3    H248488   2.860   5.501  13.803 -2.0959 -0.6556 -0.9307
 9025TIP3   OH248489   4.550   3.580   1.675  0.5317  0.1114  0.5456
 9025TIP3    H148490   4.468   3.593   1.722 -1.1219  0.1738 -2.2445
 9025TIP3    H248491   4.575   3.667   1.644  1.1159 -0.0616  0.5226
 9026TIP3   OH248492   6.112   0.078   3.737 -0.1993  0.7767 -0.5714
 9026TIP3    H148493   6.207   0.087   3.746 -0.2915  2.1733 -0.9164
 9026TIP3    H248494   6.076   0.118   3.816 -0.4806 -0.5882  0.0060
 9027TIP3   OH248495   4.675   5.519  14.312 -0.0184  0.2836 -0.8411
 9027TIP3    H148496   4.650   5.526  14.404  2.9966  2.9402 -0.1388
 9027TIP3    H248497   4.621   5.585  14.268 -0.9832 -0.5313 -0.8994
 9028TIP3   OH248498   1.433   5.768   3.594 -0.0595 -0.1693  0.2053
 9028TIP3    H148499   1.361   5.767   3.658  0.9390 -2.2443  1.3542
 9028TIP3    H248500   1.511   5.748   3.646  1.0753  0.1603 -1.3519
 9029TIP3   OH248501   3.998   1.046   3.455 -0.4854  0.8833 -0.4102
 9029TIP3    H148502   4.005   0.964   3.503 -0.7641  1.6300  0.9601
 9029TIP3    H248503   4.088   1.076   3.443 -0.4585  1.4558  1.0559
 9030TIP3   OH248504   2.884   3.629   0.253 -0.4433 -0.1455  0.0073
 9030TIP3    H148505   2.838   3.640   0.170 -0.6575  0.7020  0.2300
 9030TIP3    H248506   2.897   3.719   0.285  1.2076 -0.3845  0.0379
 9031TIP3   OH248507   4.208   3.481  15.774 -0.0800 -0.1563  0.1307
 9031TIP3    H148508   4.265   3.409  15.804  1.9586  1.1260 -0.5470
 9031TIP3    H248509   4.134   3.437  15.733  1.5233 -1.8934 -0.9731
 9032TIP3   OH248510   1.762   5.516   6.748 -0.2618 -0.2785  0.2782
 9032TIP3    H148511   1.696   5.472   6.694  0.0160 -0.3887  0.0230
 9032TIP3    H248512   1.841   5.516   6.694 -0.6729  1.9923 -0.3858
 9033TIP3   OH248513   3.640   1.687   4.814 -0.2099 -0.2990 -0.3118
 9033TIP3    H148514   3.689   1.713   4.736 -0.2180  2.4776  0.5422
 9033TIP3    H248515   3.706   1.668   4.879 -0.2195  0.7269  0.0070
 9034TIP3   OH248516   2.050   0.537   5.533 -0.6139  0.3034 -0.7175
 9034TIP3    H148517   1.992   0.548   5.609 -1.2140  0.1257 -1.1424
 9034TIP3    H248518   1.992   0.548   5.457 -0.1470 -0.1882 -1.1488
 9035TIP3   OH248519   1.118   4.272  11.860  0.0095  0.8591  0.1460
 9035TIP3    H148520   1.129   4.298  11.951  0.5540 -0.4572  0.4730
 9035TIP3    H248521   1.075   4.346  11.818 -0.0345  1.5579  1.4248
 9036TIP3   OH248522   1.235   1.329   3.644 -0.5244  0.6564 -0.0065
 9036TIP3    H148523   1.314   1.341   3.698 -0.8298  0.7415  0.4223
 9036TIP3    H248524   1.183   1.264   3.692  0.1156 -0.7759 -1.2084
 9037TIP3   OH248525   4.246   4.414  16.126  0.1197 -0.4025  0.3425
 9037TIP3    H148526   4.287   4.464  16.197 -0.0467 -1.1553  0.9783
 9037TIP3    H248527   4.167   4.464  16.105  1.4864  1.2009 -1.0806
 9038TIP3   OH248528   5.481   0.087   2.303 -0.2562  0.0254  0.1982
 9038TIP3    H148529   5.551   0.022   2.301 -1.2688 -1.0594 -0.8744
 9038TIP3    H248530   5.506   0.153   2.238  0.0836 -0.0323  0.2734
 9039TIP3   OH248531   4.234   4.929   5.079 -0.0679  0.2441  0.2435
 9039TIP3    H148532   4.267   4.960   5.164  1.2602 -0.0170 -0.1583
 9039TIP3    H248533   4.201   5.008   5.036  1.9854  0.9154 -0.1886
 9040TIP3   OH248534   1.041   3.040   4.386  0.1705 -0.1982  0.0001
 9040TIP3    H148535   0.973   2.977   4.411 -0.1221 -0.5119 -1.5238
 9040TIP3    H248536   1.100   2.991   4.329  0.6087  0.5942 -0.2420
 9041TIP3   OH248537   6.266   5.126  15.506 -0.2154 -0.3366 -0.6061
 9041TIP3    H148538   6.193   5.077  15.468 -0.7729 -0.8078  1.0556
 9041TIP3    H248539   6.264   5.210  15.459 -0.6837 -1.0140 -1.8398
 9042TIP3   OH248540   3.934   1.786  16.167 -0.8525  0.3146  0.4585
 9042TIP3    H148541   3.952   1.819  16.079 -0.7612  1.2574  0.8285
 9042TIP3    H248542   4.005   1.725  16.185 -0.7474  0.2905 -0.0372
 9043TIP3   OH248543   4.138   5.906   2.253 -0.5209  0.2978  0.4044
 9043TIP3    H148544   4.110   5.985   2.206  0.1963  0.8689  0.9253
 9043TIP3    H248545   4.073   5.840   2.230 -2.2855  1.5889  1.5984
 9044TIP3   OH248546   2.978   0.128  16.031 -0.2725 -0.1486 -0.0671
 9044TIP3    H148547   2.951   0.039  16.010 -1.6792  0.3360 -0.3728
 9044TIP3    H248548   2.957   0.138  16.124  0.1419 -0.2224  0.0354
 9045TIP3   OH248549   6.490   4.462  11.096  0.3515 -0.3817  0.3001
 9045TIP3    H148550   6.397   4.485  11.104  0.8898  1.6064  1.0862
 9045TIP3    H248551   6.491   4.367  11.103 -1.3360 -0.2413  3.5130
 9046TIP3   OH248552   5.987   5.916  15.815  0.0623  0.1252 -0.4030
 9046TIP3    H148553   6.056   5.941  15.754  2.4488 -0.8686  1.7814
 9046TIP3    H248554   5.950   5.836  15.777  1.1873 -0.2044 -0.8416
 9047TIP3   OH248555   6.150   1.370   6.700  0.7285  0.2045  0.1470
 9047TIP3    H148556   6.095   1.448   6.701 -0.9620 -0.9128 -1.8077
 9047TIP3    H248557   6.237   1.402   6.723  0.0966  2.7030 -0.7972
 9048TIP3   OH248558   4.421   0.579  13.468 -0.6245  0.3475 -0.9789
 9048TIP3    H148559   4.495   0.634  13.493 -1.3754  0.8788  0.1702
 9048TIP3    H248560   4.359   0.640  13.427 -2.7003  1.0034  2.8749
 9049TIP3   OH248561   5.841   1.013  15.862 -0.8190  0.1658  0.0630
 9049TIP3    H148562   5.864   0.966  15.782  1.2797  1.3855 -0.0829
 9049TIP3    H248563   5.887   0.966  15.932  0.7737  1.5720 -0.0073
 9050TIP3   OH248564   5.708   3.223  13.453  0.1415  0.2173 -0.2121
 9050TIP3    H148565   5.669   3.261  13.531  1.5837 -0.1531  0.6915
 9050TIP3    H248566   5.763   3.293  13.417  1.6081 -0.4888  0.6197
 9051TIP3   OH248567   1.004   0.565  12.368  0.0752 -0.2594 -0.3766
 9051TIP3    H148568   1.086   0.573  12.320 -0.0893  2.4619 -0.2694
 9051TIP3    H248569   0.936   0.583  12.303 -0.2943  0.2287  0.1384
 9052TIP3   OH248570   0.034   0.215   2.157 -0.2475  0.1903 -0.2543
 9052TIP3    H148571   0.070   0.255   2.078  2.0911 -0.2895  0.5237
 9052TIP3    H248572  -0.020   0.284   2.197  2.1822  1.9617  0.0593
 9053TIP3   OH248573   4.329   6.074   4.710  0.0755 -0.0073 -0.2061
 9053TIP3    H148574   4.257   6.052   4.770  0.2899  1.3405  0.5593
 9053TIP3    H248575   4.296   6.050   4.624 -0.5696 -1.1693  0.3480
 9054TIP3   OH248576   3.830   0.183  16.426 -0.5952  0.6325  0.3361
 9054TIP3    H148577   3.882   0.184  16.346 -2.6459 -0.8838 -1.0795
 9054TIP3    H248578   3.818   0.090  16.446 -1.1195  0.9762  1.7438
 9055TIP3   OH248579   0.032   5.599   4.071 -0.4701 -0.4869 -0.5468
 9055TIP3    H148580   0.028   5.514   4.026 -2.3453  0.1794 -1.6703
 9055TIP3    H248581  -0.037   5.651   4.031  0.0181  1.2620  0.8240
 9056TIP3   OH248582   1.897   5.083  15.798 -0.1388  0.2277 -0.0089
 9056TIP3    H148583   1.964   5.082  15.867 -0.6666  0.5326  0.5165
 9056TIP3    H248584   1.946   5.082  15.717  0.5005  0.0938  0.3739
 9057TIP3   OH248585   5.958   5.830  12.278 -0.6869 -0.3967  0.5513
 9057TIP3    H148586   5.866   5.812  12.296 -1.3498  1.1732 -1.0827
 9057TIP3    H248587   5.967   5.925  12.291  0.7190 -0.5510  0.8088
 9058TIP3   OH248588   0.518   3.765   5.521 -0.4387  0.0602  0.4022
 9058TIP3    H148589   0.501   3.858   5.536 -0.5063  0.3399 -1.2338
 9058TIP3    H248590   0.450   3.738   5.459 -0.5505 -1.1425  1.0269
 9059TIP3   OH248591   3.432   1.091   3.118  0.2221  0.2093 -0.6801
 9059TIP3    H148592   3.442   1.171   3.068 -0.0713 -0.7559 -2.3371
 9059TIP3    H248593   3.347   1.100   3.162 -0.1388  0.4870 -1.4369
 9060TIP3   OH248594   6.544   5.293   4.470  0.0296  0.1688 -0.1319
 9060TIP3    H148595   6.578   5.225   4.412 -0.2067 -0.8428  0.8905
 9060TIP3    H248596   6.452   5.301   4.446  0.1073  0.2804 -0.3944
 9061TIP3   OH248597   5.453   2.236   6.607 -0.4928 -0.3093  0.2186
 9061TIP3    H148598   5.519   2.287   6.654 -0.3604  0.0868 -0.3894
 9061TIP3    H248599   5.502   2.164   6.567 -0.1825  0.7268 -1.3444
 9062TIP3   OH248600   2.188   2.483   2.617  0.4984 -0.4301 -0.5843
 9062TIP3    H148601   2.212   2.566   2.577  2.1982 -1.4036 -1.6496
 9062TIP3    H248602   2.172   2.424   2.544  0.0335 -1.2469  0.1544
 9063TIP3   OH248603   4.627   5.494   1.603 -0.2225  0.0880 -0.1170
 9063TIP3    H148604   4.659   5.496   1.513  0.4524 -0.3583  0.1036
 9063TIP3    H248605   4.533   5.479   1.596 -0.2812  0.7873 -0.7682
 9064TIP3   OH248606   3.596   0.884   4.504  0.1476  0.4721  0.5316
 9064TIP3    H148607   3.510   0.913   4.535 -0.4500  1.6120 -2.1156
 9064TIP3    H248608   3.635   0.961   4.462  0.8684 -1.0175 -1.6301
 9065TIP3   OH248609   1.583   4.761  11.256 -0.1732  0.2638  0.2165
 9065TIP3    H148610   1.548   4.845  11.286  2.4646  1.1814  0.8898
 9065TIP3    H248611   1.542   4.747  11.171 -0.3299  2.4553 -0.1067
 9066TIP3   OH248612   0.218   0.070   3.047  0.1685 -0.1061 -0.1392
 9066TIP3    H148613   0.231   0.159   3.079  0.6488 -0.4247  0.5534
 9066TIP3    H248614   0.172   0.026   3.118  0.3025 -0.5281 -0.3162
 9067TIP3   OH248615   1.903   1.276  14.016  0.4447 -0.2528 -0.0447
 9067TIP3    H148616   1.988   1.238  13.993  0.3822  0.4362 -1.4610
 9067TIP3    H248617   1.914   1.303  14.108  1.9970  0.4553 -0.4113
 9068TIP3   OH248618   6.282   3.554  15.756  0.1316  0.7561  0.5006
 9068TIP3    H148619   6.330   3.472  15.770 -0.4890  0.3755  0.4366
 9068TIP3    H248620   6.298   3.576  15.665  0.6183  0.9128  0.6230
 9069TIP3   OH248621   5.618   3.018  13.160 -0.0538 -0.3982  0.5811
 9069TIP3    H148622   5.557   3.031  13.233  0.8095 -0.6001  1.3428
 9069TIP3    H248623   5.562   3.016  13.082 -0.7082  3.3402  0.8471
 9070TIP3   OH248624   0.805   2.173   0.812 -0.3919 -0.1857 -0.1564
 9070TIP3    H148625   0.815   2.253   0.761 -0.1152 -0.6996 -0.9106
 9070TIP3    H248626   0.890   2.161   0.855 -0.2732 -0.3521 -0.4408
 9071TIP3   OH248627   0.731   2.073  13.299  0.0656 -0.3250  0.2165
 9071TIP3    H148628   0.778   2.059  13.381 -0.3691  0.4084  0.5979
 9071TIP3    H248629   0.640   2.085  13.325 -0.4843 -2.4987 -0.5769
 9072TIP3   OH248630   0.904   6.572   5.872  0.2501 -0.8280  0.1991
 9072TIP3    H148631   0.827   6.521   5.846  0.6174 -2.0535  1.4008
 9072TIP3    H248632   0.917   6.548   5.964 -0.4392  2.5975  1.2479
 9073TIP3   OH248633   3.929   1.746   4.339  0.6173  0.8935  0.3067
 9073TIP3    H148634   3.957   1.834   4.364 -0.2102  0.8138  1.6042
 9073TIP3    H248635   4.007   1.692   4.351  1.2823  1.5272 -1.0247
 9074TIP3   OH248636   4.754   4.360  10.690  0.2551  0.2972 -0.5076
 9074TIP3    H148637   4.810   4.282  10.694  0.3532  0.4002  0.0780
 9074TIP3    H248638   4.666   4.327  10.705  0.5599  0.6140  2.0742
 9075TIP3   OH248639   5.041   0.525  13.760 -0.0717  0.1578  0.0266
 9075TIP3    H148640   5.050   0.481  13.845 -0.0067  1.9090  0.9435
 9075TIP3    H248641   4.948   0.544  13.753 -0.2223 -0.7913 -0.7301
 9076TIP3   OH248642   3.986   0.196   0.926  0.4218  0.6388 -0.6728
 9076TIP3    H148643   3.977   0.128   0.859  1.1087  0.4653 -0.5992
 9076TIP3    H248644   4.065   0.171   0.974  0.0717  0.9008  0.0449
 9077TIP3   OH248645   1.500   3.703  13.868 -0.0391  0.1419  0.0392
 9077TIP3    H148646   1.546   3.782  13.895 -2.1838  0.9687  1.3781
 9077TIP3    H248647   1.498   3.648  13.946 -2.5534  0.7434  0.4365
 9078TIP3   OH248648   4.723   5.595  12.685 -0.0616 -0.2249  0.2601
 9078TIP3    H148649   4.788   5.659  12.655 -0.9226 -0.5038 -2.3566
 9078TIP3    H248650   4.764   5.510  12.666 -0.2712 -0.4279  0.7105
 9079TIP3   OH248651   5.833   3.313  16.107  0.3293  0.3928 -0.4864
 9079TIP3    H148652   5.891   3.272  16.043  1.4538  1.5539 -0.2503
 9079TIP3    H248653   5.878   3.302  16.190 -0.3183  0.3608 -0.1418
 9080TIP3   OH248654   3.789   1.257   2.742  0.2236 -0.1331  0.5256
 9080TIP3    H148655   3.850   1.204   2.690  0.4043 -0.2680  0.8701
 9080TIP3    H248656   3.772   1.204   2.820 -1.3034 -0.6402 -0.1342
 9081TIP3   OH248657   4.245   4.566  12.547 -0.2233 -0.6050 -0.2152
 9081TIP3    H148658   4.302   4.643  12.542 -1.4096  0.3004 -0.0261
 9081TIP3    H248659   4.171   4.588  12.490 -0.8404 -1.3816  0.2804
 9082TIP3   OH248660   2.796   2.762  11.653 -0.3594  0.0454  0.2342
 9082TIP3    H148661   2.835   2.727  11.732  0.1587  0.4101  0.1431
 9082TIP3    H248662   2.810   2.857  11.659 -1.1998  0.1770  0.1902
 9083TIP3   OH248663   2.888   2.736   4.612  0.1921  0.3325  0.2201
 9083TIP3    H148664   2.807   2.684   4.616  2.0444 -2.7254 -0.6008
 9083TIP3    H248665   2.878   2.800   4.682 -3.1867  0.4199 -0.2302
 9084TIP3   OH248666   6.425   3.561   1.361 -0.0369  0.2693 -0.3888
 9084TIP3    H148667   6.439   3.590   1.451 -0.6031  1.0556 -0.5488
 9084TIP3    H248668   6.504   3.588   1.314 -0.0508  0.4922 -0.2826
 9085TIP3   OH248669   0.846   0.179   4.808 -0.0776 -0.2709  0.1448
 9085TIP3    H148670   0.780   0.111   4.795  0.4490 -0.6354 -0.6926
 9085TIP3    H248671   0.922   0.148   4.758  0.6953  0.1801  1.0214
 9086TIP3   OH248672   6.362   2.017   0.200 -0.1330  0.2825  0.6832
 9086TIP3    H148673   6.336   1.974   0.119 -1.7764  1.7522  0.3962
 9086TIP3    H248674   6.383   1.945   0.260 -1.0546 -0.8620 -0.3383
 9087TIP3   OH248675   5.826   4.479   2.973 -0.3854  0.0162 -0.3779
 9087TIP3    H148676   5.806   4.521   2.889 -3.3225 -0.3039  0.1218
 9087TIP3    H248677   5.829   4.386   2.953 -3.3383 -0.2450  0.2517
 9088TIP3   OH248678   6.772   1.281   1.584  0.1955  0.6684  0.4808
 9088TIP3    H148679   6.769   1.186   1.573  0.5114  0.6004  0.9752
 9088TIP3    H248680   6.746   1.315   1.498  3.3958  0.1547 -0.7594
 9089TIP3   OH248681   0.996   0.522   4.553 -0.2037 -0.1075 -0.4545
 9089TIP3    H148682   1.058   0.595   4.546  0.3320 -0.5056  0.1011
 9089TIP3    H248683   1.045   0.446   4.521 -1.3079  0.0688 -2.6284
 9090TIP3   OH248684   6.509   0.086  17.138 -0.0446  0.0382  0.3818
 9090TIP3    H148685   6.572   0.143  17.094 -0.7950  0.0719 -0.6593
 9090TIP3    H248686   6.457   0.049  17.068 -0.2513 -1.1297  1.1327
 9091TIP3   OH248687   2.013   2.241   3.498  0.5625  0.2658  0.5539
 9091TIP3    H148688   1.972   2.301   3.435 -0.2986 -0.0956  0.7668
 9091TIP3    H248689   1.986   2.275   3.583  0.3977 -0.1880  0.6850
 9092TIP3   OH248690   1.353   1.063   3.938  0.4087 -0.0362 -0.2414
 9092TIP3    H148691   1.412   1.047   3.865 -2.0098  0.8167 -2.4518
 9092TIP3    H248692   1.293   1.131   3.907 -2.5684 -1.7761  1.4041
 9093TIP3   OH248693   2.133   3.012   2.418  0.2802  0.3129 -0.0875
 9093TIP3    H148694   2.045   2.997   2.454  1.2142 -0.5123  1.9090
 9093TIP3    H248695   2.165   3.089   2.463  1.0189 -0.0552  0.0278
 9094TIP3   OH248696   3.264   2.709  15.511 -0.1152 -0.6021 -0.1008
 9094TIP3    H148697   3.330   2.758  15.463 -0.4156 -1.3372 -1.2881
 9094TIP3    H248698   3.303   2.693  15.597  1.3485 -1.2718 -0.8854
 9095TIP3   OH248699   5.927   1.418  17.096 -0.3292  0.9549 -0.2450
 9095TIP3    H148700   5.863   1.406  17.166  0.5788 -0.6925  0.3358
 9095TIP3    H248701   5.994   1.474  17.133 -0.1968  0.6491 -0.0187
 9096TIP3   OH248702   5.236   4.846  16.204 -0.1479 -0.3971 -0.2579
 9096TIP3    H148703   5.190   4.806  16.278  0.1606  2.4500  1.5641
 9096TIP3    H248704   5.172   4.846  16.133 -1.5644 -0.2252  0.9985
 9097TIP3   OH248705   6.186   3.321  14.436  0.1699  0.5593  0.1134
 9097TIP3    H148706   6.095   3.305  14.461 -0.3298  1.4955 -1.0582
 9097TIP3    H248707   6.206   3.252  14.374  0.5028 -0.0737  0.9096
 9098TIP3   OH248708   5.888   5.971   4.949 -0.5646  0.1888  0.7851
 9098TIP3    H148709   5.904   6.019   4.868 -0.5224  0.8266  1.1714
 9098TIP3    H248710   5.826   5.903   4.925  0.5373 -0.5236 -0.1069
 9099TIP3   OH248711   2.344   6.717  11.771  0.0293  0.3895 -0.1920
 9099TIP3    H148712   2.333   6.627  11.800  1.4692 -0.4767 -2.2048
 9099TIP3    H248713   2.436   6.723  11.744 -0.5480  1.8999 -1.9254
 9100TIP3   OH248714   3.230   2.118   2.730  0.4636  0.1040 -0.5364
 9100TIP3    H148715   3.259   2.189   2.788 -0.8235 -0.1137  0.3849
 9100TIP3    H248716   3.260   2.038   2.773 -0.2898 -0.0457 -0.2893
 9101TIP3   OH248717   4.759   4.517  15.970  0.0919 -0.4718 -0.3012
 9101TIP3    H148718   4.743   4.466  15.890  1.4914 -0.0826 -0.8420
 9101TIP3    H248719   4.743   4.455  16.041 -0.3734 -1.0493 -0.9004
 9102TIP3   OH248720   0.232   3.034  13.705  0.2345 -0.2957 -0.4314
 9102TIP3    H148721   0.296   3.018  13.635  1.2401 -0.4026  0.4826
 9102TIP3    H248722   0.264   2.981  13.779  0.2104  1.1894  0.6815
 9103TIP3   OH248723   4.521   6.246  13.597 -0.4359 -0.1197  0.1751
 9103TIP3    H148724   4.439   6.286  13.567  0.1010 -0.4367 -1.7522
 9103TIP3    H248725   4.501   6.153  13.605 -0.4577 -0.0961  0.4030
 9104TIP3   OH248726   0.880   5.951   1.638  0.2457 -0.7675 -0.7429
 9104TIP3    H148727   0.859   6.012   1.709  0.5792 -1.3714 -0.1241
 9104TIP3    H248728   0.968   5.976   1.610  1.2256 -2.2278  0.8719
 9105TIP3   OH248729   3.912   5.388   0.579 -0.7585  0.3665  0.5381
 9105TIP3    H148730   3.965   5.313   0.606 -0.2076  0.7210  0.4392
 9105TIP3    H248731   3.899   5.439   0.659  0.4633  1.1604  0.2328
 9106TIP3   OH248732   6.636   3.313  13.493 -0.5256 -0.0829  0.4840
 9106TIP3    H148733   6.657   3.236  13.441 -3.0249 -0.7817  0.4587
 9106TIP3    H248734   6.682   3.298  13.576  2.0547  0.2233 -0.8422
 9107TIP3   OH248735   6.719   1.811  12.131 -0.3402 -0.3617  0.6513
 9107TIP3    H148736   6.742   1.737  12.075  0.6547 -1.4957  2.5076
 9107TIP3    H248737   6.666   1.868  12.075 -0.1611 -1.9113 -1.1454
 9108TIP3   OH248738   5.630   1.743  12.363 -0.4784 -0.3867  0.0772
 9108TIP3    H148739   5.656   1.683  12.294 -0.0542 -1.0597  0.8164
 9108TIP3    H248740   5.640   1.830  12.325 -1.0477 -0.7789 -0.9807
 9109TIP3   OH248741   4.648   4.791  15.899  0.3195  0.2111  0.1532
 9109TIP3    H148742   4.604   4.783  15.814  2.5473  0.8548 -1.1126
 9109TIP3    H248743   4.679   4.703  15.918 -0.4047  0.0146  0.4249
 9110TIP3   OH248744   4.973   3.863   5.260 -0.4043  0.9652 -0.5428
 9110TIP3    H148745   5.036   3.898   5.323 -0.8055 -0.1896  0.5125
 9110TIP3    H248746   4.892   3.911   5.278 -1.1622 -0.9467  1.4053
 9111TIP3   OH248747   2.515   4.422  13.534 -0.2663  0.6177  0.2966
 9111TIP3    H148748   2.461   4.358  13.488  1.0589 -0.6989  0.5420
 9111TIP3    H248749   2.550   4.374  13.609 -0.0878  1.9370  1.0708
 9112TIP3   OH248750   5.872   3.384   5.536 -0.5119 -0.1952  0.1477
 9112TIP3    H148751   5.958   3.343   5.521 -0.2899  0.9348 -1.7978
 9112TIP3    H248752   5.809   3.315   5.515 -0.0975 -0.6655  0.4316
 9113TIP3   OH248753   1.201   6.715  14.061 -0.7306 -0.5806 -0.2269
 9113TIP3    H148754   1.238   6.687  13.977  0.3496  1.6097 -0.5150
 9113TIP3    H248755   1.115   6.749  14.040  0.4112  2.0725 -0.8436
 9114TIP3   OH248756   6.386   4.100   3.671 -0.2892  0.3131 -0.0645
 9114TIP3    H148757   6.380   4.010   3.702 -1.4850  1.1027  2.0711
 9114TIP3    H248758   6.476   4.109   3.640  0.1040 -1.3180  0.5722
 9115TIP3   OH248759   5.702   4.292   1.893 -0.2020  0.1756  0.1990
 9115TIP3    H148760   5.706   4.382   1.859 -0.9773 -0.2695 -1.0730
 9115TIP3    H248761   5.766   4.291   1.965 -0.9500  2.0400  0.9238
 9116TIP3   OH248762   2.893   4.953  13.466 -0.5071  0.6216  0.4207
 9116TIP3    H148763   2.813   4.900  13.472 -0.8277  1.2077  1.5195
 9116TIP3    H248764   2.861   5.043  13.454  0.0067  0.7597  0.0692
 9117TIP3   OH248765   6.715   3.270   1.060  0.2611  0.3850  0.1897
 9117TIP3    H148766   6.753   3.249   1.145 -0.4668 -0.3753  0.3274
 9117TIP3    H248767   6.771   3.224   0.997 -0.0501 -0.2143  0.3504
 9118TIP3   OH248768   1.763   3.603  15.239  0.0979 -0.0827  0.8804
 9118TIP3    H148769   1.839   3.634  15.288 -0.4206  0.4587  1.3652
 9118TIP3    H248770   1.737   3.522  15.283  0.9109 -0.7157  0.1829
 9119TIP3   OH248771   2.323   1.360  13.905 -0.0754 -0.0065 -0.4217
 9119TIP3    H148772   2.309   1.370  14.000  1.0586  2.1168 -0.4382
 9119TIP3    H248773   2.407   1.404  13.889  0.0165 -0.8575 -2.3366
 9120TIP3   OH248774   3.815   6.736  10.397  0.2924 -0.0943  0.1863
 9120TIP3    H148775   3.871   6.732  10.319  0.2565  0.7842  0.1135
 9120TIP3    H248776   3.764   6.816  10.387  0.9702  0.5479  1.5606
 9121TIP3   OH248777   1.553   0.130   2.464 -0.4098  0.6737 -0.7629
 9121TIP3    H148778   1.602   0.190   2.408 -0.4069  0.7508 -0.6788
 9121TIP3    H248779   1.514   0.067   2.404 -0.5447  0.8558 -0.8655
 9122TIP3   OH248780   2.822   5.082  15.729  0.4900 -0.1934 -0.3702
 9122TIP3    H148781   2.764   5.011  15.702 -0.5640  1.1205 -1.6643
 9122TIP3    H248782   2.779   5.161  15.697  2.8157  0.8418 -1.0111
 9123TIP3   OH248783   3.456   2.536  16.029  0.1950 -0.3648  0.0882
 9123TIP3    H148784   3.516   2.611  16.025  1.0229 -0.9468  1.3267
 9123TIP3    H248785   3.496   2.477  16.093 -1.9302 -0.5592  1.2882
 9124TIP3   OH248786   1.045   2.169  12.803  0.6419  0.3816  0.1941
 9124TIP3    H148787   1.081   2.248  12.844 -0.3084  0.8112  0.2239
 9124TIP3    H248788   1.110   2.101  12.820  2.0510  1.4271 -0.8715
 9125TIP3   OH248789   3.933   1.390  16.946  0.4096  0.1618  0.8999
 9125TIP3    H148790   3.885   1.338  17.011 -0.9920  0.6580  0.2918
 9125TIP3    H248791   3.978   1.326  16.892 -2.6397 -0.5807 -0.8889
 9126TIP3   OH248792   2.259   3.138   1.076 -0.1788 -0.4741  0.2258
 9126TIP3    H148793   2.252   3.056   1.026  0.9660 -1.3278  1.4127
 9126TIP3    H248794   2.271   3.109   1.167  3.2156  0.9226  0.2915
 9127TIP3   OH248795   6.102   6.513  10.968 -0.4841  0.2303  0.0582
 9127TIP3    H148796   6.108   6.419  10.983 -2.0330  0.1979  0.5491
 9127TIP3    H248797   6.192   6.545  10.980 -0.2605 -0.9264  1.6837
 9128TIP3   OH248798   2.518   0.360  12.220 -0.5038 -0.8286  0.3651
 9128TIP3    H148799   2.430   0.394  12.203 -0.5784 -0.7342  0.9254
 9128TIP3    H248800   2.573   0.401  12.153 -0.7013 -0.0517  0.6699
 9129TIP3   OH248801   6.654   2.407   0.278 -0.0203  0.1683  0.2245
 9129TIP3    H148802   6.633   2.320   0.246 -1.3419  0.8554 -0.7948
 9129TIP3    H248803   6.698   2.391   0.362  1.2472 -1.5285 -0.7302
 9130TIP3   OH248804   3.418   3.927   1.360  0.4228 -0.0086  1.0574
 9130TIP3    H148805   3.422   3.831   1.363 -1.8744 -0.1260  1.0577
 9130TIP3    H248806   3.438   3.954   1.449  0.6148 -0.5010  1.1684
 9131TIP3   OH248807   3.949   5.820  17.145 -0.2648 -0.3369 -0.2157
 9131TIP3    H148808   3.883   5.857  17.087 -0.4206 -0.3214 -0.0302
 9131TIP3    H248809   3.996   5.897  17.179 -0.2335 -0.3414 -0.2495
 9132TIP3   OH248810   2.423   0.029   2.905  0.0691  0.5655 -0.4403
 9132TIP3    H148811   2.342   0.080   2.901 -0.1500  0.2463 -0.1063
 9132TIP3    H248812   2.403  -0.043   2.965  0.3175 -0.0255 -1.0635
 9133TIP3   OH248813   4.174   3.255  10.784 -0.2831 -0.4692 -0.1447
 9133TIP3    H148814   4.153   3.345  10.809  2.0036 -0.2593  1.2398
 9133TIP3    H248815   4.135   3.201  10.852  0.7146 -0.3207  0.5511
 9134TIP3   OH248816   1.452   1.058  14.985  0.2188  0.1125  0.2587
 9134TIP3    H148817   1.387   1.022  15.046  0.9557 -0.5776  0.6396
 9134TIP3    H248818   1.505   1.117  15.038  0.1101  0.4359  0.0127
 9135TIP3   OH248819   1.710   2.315   1.788 -0.5927  0.2167 -0.1957
 9135TIP3    H148820   1.731   2.232   1.831 -1.6787  0.1741  0.2711
 9135TIP3    H248821   1.623   2.337   1.820 -0.5224  1.2828 -0.7194
 9136TIP3   OH248822   1.068   0.905  12.428 -0.2307  0.1545 -0.0526
 9136TIP3    H148823   1.009   0.859  12.369 -0.8494  0.4977  0.2847
 9136TIP3    H248824   1.026   0.898  12.514  1.2145 -1.2881  0.5477
 9137TIP3   OH248825   4.185   5.938   4.028 -0.0414  0.2510  0.2950
 9137TIP3    H148826   4.173   6.019   3.978 -1.2426  0.0817  0.2927
 9137TIP3    H248827   4.098   5.897   4.029  0.7720 -1.5790 -0.6249
 9138TIP3   OH248828   3.791   0.070   1.847 -0.1676 -0.1152 -0.4071
 9138TIP3    H148829   3.792   0.099   1.756  0.6481  0.8359 -0.1003
 9138TIP3    H248830   3.881   0.080   1.878 -0.6120  0.4265  0.7670
 9139TIP3   OH248831   4.833   3.453   2.150 -0.4503 -0.2952 -0.0046
 9139TIP3    H148832   4.856   3.545   2.159  0.0281 -0.3098 -1.0067
 9139TIP3    H248833   4.817   3.441   2.057  1.0285 -1.5665 -0.1227
 9140TIP3   OH248834   1.418   1.258   4.182  0.1206  0.3463 -0.4297
 9140TIP3    H148835   1.394   1.347   4.155  0.6469  0.3751 -0.8180
 9140TIP3    H248836   1.435   1.212   4.100 -0.1166 -0.1010 -0.2265
 9141TIP3   OH248837   6.111   0.123   5.357  0.0399  0.5163 -0.3299
 9141TIP3    H148838   6.123   0.050   5.297 -0.9785  0.2622 -0.2385
 9141TIP3    H248839   6.017   0.140   5.356  0.0351  0.6621  1.0052
 9142TIP3   OH248840   5.206   1.183   4.771  0.4564 -0.1581  0.2419
 9142TIP3    H148841   5.251   1.101   4.792 -1.2562 -0.9879  0.7162
 9142TIP3    H248842   5.268   1.251   4.797  1.4684 -1.2791  0.8256
 9143TIP3   OH248843   1.981   6.239   5.081  0.0051 -0.2998  0.4155
 9143TIP3    H148844   2.005   6.151   5.110  1.4274 -0.8779 -2.3458
 9143TIP3    H248845   2.061   6.275   5.042 -1.2773  1.1095 -1.0174
 9144TIP3   OH248846   4.349   5.874  15.135  0.3964 -0.1132  0.1059
 9144TIP3    H148847   4.327   5.794  15.182  2.3348 -0.9953 -0.4520
 9144TIP3    H248848   4.367   5.938  15.204  1.0203 -0.7733  0.5623
 9145TIP3   OH248849   1.773   0.665   5.573  0.2389  0.8637 -0.4313
 9145TIP3    H148850   1.717   0.617   5.512 -2.1833  1.4160  1.3042
 9145TIP3    H248851   1.775   0.754   5.538 -0.7553  1.0691  0.0332
 9146TIP3   OH248852   0.856   0.904  15.488 -0.0498  0.1312 -0.4103
 9146TIP3    H148853   0.806   0.980  15.459 -2.0630 -0.5604  1.1573
 9146TIP3    H248854   0.947   0.932  15.481 -0.7534  2.8530  0.5685
 9147TIP3   OH248855   2.080   1.029   1.940 -0.2755 -0.3884  0.2614
 9147TIP3    H148856   2.073   1.053   1.847 -1.3058 -1.2776  0.0985
 9147TIP3    H248857   2.020   1.089   1.984 -0.3691 -0.4796  0.2580
 9148TIP3   OH248858   6.716   5.558  14.946 -0.1916 -0.1137 -0.2204
 9148TIP3    H148859   6.629   5.596  14.954 -0.7079 -1.3060 -0.0768
 9148TIP3    H248860   6.767   5.597  15.017 -0.8740 -0.1521  0.2878
 9149TIP3   OH248861   1.692   6.246  17.157  0.3502 -0.0509 -0.2479
 9149TIP3    H148862   1.605   6.235  17.194  0.4991 -0.2249  0.0506
 9149TIP3    H248863   1.685   6.326  17.105 -0.2788 -0.6581 -1.0989
 9150TIP3   OH248864   5.343   3.654  13.867 -0.2048  0.3797 -0.5277
 9150TIP3    H148865   5.314   3.719  13.930 -1.0922 -0.2696 -0.2504
 9150TIP3    H248866   5.300   3.573  13.895  2.4972 -0.8125  0.3765
 9151TIP3   OH248867   6.661   1.662  11.037  0.1449  0.2742  0.0146
 9151TIP3    H148868   6.656   1.758  11.042  1.3542  0.4536 -1.5994
 9151TIP3    H248869   6.755   1.644  11.029 -0.0368 -1.0783  0.8692
 9152TIP3   OH248870   0.169   6.509   5.008  0.0005  0.0182  0.0538
 9152TIP3    H148871   0.168   6.587   5.065 -0.3875 -0.1999  0.3474
 9152TIP3    H248872   0.214   6.538   4.929 -1.9169  1.1277 -0.6631
 9153TIP3   OH248873   0.884   0.324  15.777 -0.1338  0.3056  0.0566
 9153TIP3    H148874   0.875   0.229  15.775  1.5059  0.1462 -4.5372
 9153TIP3    H248875   0.794   0.356  15.766 -0.3677 -0.7322 -1.1488
 9154TIP3   OH248876   0.889   3.123   3.497  0.1762  0.1424 -0.5076
 9154TIP3    H148877   0.862   3.032   3.510  3.0165 -0.5700  0.7968
 9154TIP3    H248878   0.906   3.131   3.403 -2.2969  0.0196 -1.0076
 9155TIP3   OH248879   6.546   5.007  13.542  0.8141  0.2438  0.0539
 9155TIP3    H148880   6.503   5.062  13.608  1.6734  1.5009 -0.4192
 9155TIP3    H248881   6.600   5.068  13.491 -0.1386 -0.6460 -2.0817
 9156TIP3   OH248882   2.510   5.154   4.609  0.4996  0.7368  0.1372
 9156TIP3    H148883   2.571   5.217   4.647  0.6443  0.8275 -0.2510
 9156TIP3    H248884   2.564   5.101   4.550 -0.2895  2.3938 -2.0906
 9157TIP3   OH248885   5.905   0.351  14.842 -0.1453 -0.4238 -0.2741
 9157TIP3    H148886   5.811   0.370  14.844  0.5360  3.3138  0.3874
 9157TIP3    H248887   5.928   0.354  14.749 -0.1097  2.0936 -0.2144
 9158TIP3   OH248888   0.273   3.560  14.191 -0.4759  1.3212 -0.0849
 9158TIP3    H148889   0.186   3.534  14.162  0.4630 -0.6068 -1.3403
 9158TIP3    H248890   0.302   3.626  14.128 -0.8541  1.6541  0.0909
 9159TIP3   OH248891   5.983   2.685   5.993  0.0283 -0.4093 -0.2148
 9159TIP3    H148892   6.033   2.625   6.049  2.7064  1.1911 -0.8298
 9159TIP3    H248893   6.046   2.751   5.966 -2.3444  1.4601 -1.3768
 9160TIP3   OH248894   3.273   1.707   1.745  0.6743 -0.3423 -0.4905
 9160TIP3    H148895   3.263   1.796   1.780  1.3513  0.0324 -1.2345
 9160TIP3    H248896   3.349   1.672   1.792  1.1348 -0.0994 -1.0455
 9161TIP3   OH248897   0.598   2.035  14.361 -0.1564 -0.1191 -0.1819
 9161TIP3    H148898   0.691   2.019  14.350 -0.0538  1.0428 -1.1271
 9161TIP3    H248899   0.573   2.084  14.282 -1.8572 -1.6337 -0.6167
 9162TIP3   OH248900   6.696   4.637   1.357  0.3482 -0.5235 -0.0390
 9162TIP3    H148901   6.720   4.586   1.434 -0.9102 -2.7927 -1.1135
 9162TIP3    H248902   6.686   4.573   1.287 -0.9187  1.2296 -1.5310
 9163TIP3   OH248903   1.424   1.345   3.882 -0.4920 -1.0062 -0.4799
 9163TIP3    H148904   1.423   1.439   3.862 -2.3266 -0.8225  0.2956
 9163TIP3    H248905   1.515   1.326   3.904  0.1719  0.2891 -1.9935
 9164TIP3   OH248906   5.475   0.404  14.144  0.2087 -0.2514  0.0374
 9164TIP3    H148907   5.402   0.465  14.143  0.5826  0.2106 -2.2571
 9164TIP3    H248908   5.469   0.358  14.060  3.1303  0.5156 -0.6404
 9165TIP3   OH248909   0.247   1.889   2.858  0.3542  0.1867 -0.1431
 9165TIP3    H148910   0.219   1.954   2.922  0.6849 -0.4875  0.6888
 9165TIP3    H248911   0.181   1.894   2.789  0.8258  1.9842 -0.4872
 9166TIP3   OH248912   2.421   6.117   5.688 -0.2886 -0.6294  0.2508
 9166TIP3    H148913   2.413   6.204   5.726  3.4252 -0.3533  0.5677
 9166TIP3    H248914   2.422   6.133   5.593 -2.9527 -0.7027  0.1682
 9167TIP3   OH248915   1.110   2.352  15.352  0.2527  0.2299  0.1817
 9167TIP3    H148916   1.037   2.291  15.358  0.8835 -0.4886  0.7887
 9167TIP3    H248917   1.080   2.431  15.397  0.3681 -0.5821  1.6938
 9168TIP3   OH248918   4.677   2.899   0.746 -0.4475 -0.5310 -0.4935
 9168TIP3    H148919   4.660   2.987   0.712  0.3048 -0.3767 -0.4648
 9168TIP3    H248920   4.606   2.846   0.711 -1.4332  0.2791  0.2357
 9169TIP3   OH248921   5.794   4.491   1.357 -0.3893 -0.1425  0.2453
 9169TIP3    H148922   5.845   4.425   1.405  1.1640  1.7980  1.3266
 9169TIP3    H248923   5.703   4.462   1.368  0.2877 -2.4522  0.1498
 9170TIP3   OH248924   5.291   4.190   0.962 -0.7049 -0.0844  0.9052
 9170TIP3    H148925   5.243   4.132   1.021 -0.9303 -0.1199  0.6878
 9170TIP3    H248926   5.359   4.134   0.925 -3.0778 -1.1695 -1.9843
 9171TIP3   OH248927   2.909   3.211  15.381 -1.0948  0.4441  0.1622
 9171TIP3    H148928   2.892   3.127  15.422  0.0730  0.2651  0.2964
 9171TIP3    H248929   2.888   3.198  15.289 -4.5105  1.0824  0.8140
 9172TIP3   OH248930   2.008   3.778   1.901 -0.3079 -0.0186 -0.2314
 9172TIP3    H148931   2.085   3.834   1.886 -0.3244  0.4476  1.2444
 9172TIP3    H248932   2.043   3.689   1.902 -0.1567  0.0102 -1.8351
 9173TIP3   OH248933   3.386   0.457  11.999  0.1891 -0.5684 -0.0612
 9173TIP3    H148934   3.365   0.550  11.985 -0.2079 -0.9347 -2.0973
 9173TIP3    H248935   3.345   0.436  12.083  0.5004  1.1614  0.5556
 9174TIP3   OH248936   1.681   2.770   0.387  0.4140 -0.1519  0.1466
 9174TIP3    H148937   1.656   2.849   0.339 -0.2112 -1.2453 -1.3631
 9174TIP3    H248938   1.637   2.779   0.472 -1.0390  0.3441 -0.6345
 9175TIP3   OH248939   3.491   1.663   1.896 -0.0841 -0.2299 -0.0549
 9175TIP3    H148940   3.514   1.755   1.911  1.4427 -0.1863 -2.4472
 9175TIP3    H248941   3.573   1.615   1.909 -1.0176 -1.3827  1.8745
 9176TIP3   OH248942   5.914   5.320   0.147  0.0207 -0.1191  0.1790
 9176TIP3    H148943   5.909   5.357   0.236 -1.0957  0.7154 -0.2156
 9176TIP3    H248944   5.822   5.311   0.120  0.3699  1.7535 -1.7581
 9177TIP3   OH248945   1.681   2.256   0.669  0.1968 -0.0476  0.2088
 9177TIP3    H148946   1.627   2.251   0.748 -0.1464  1.8535  0.1132
 9177TIP3    H248947   1.626   2.303   0.606  1.7863  1.5445 -0.0218
 9178TIP3   OH248948   2.196   4.864  14.667 -0.1625  0.2790 -0.0305
 9178TIP3    H148949   2.259   4.795  14.687 -2.1081 -0.9358  2.1627
 9178TIP3    H248950   2.161   4.841  14.581  0.3707 -0.6002 -0.0134
 9179TIP3   OH248951   3.366   6.557  13.679 -0.1067 -0.0497 -0.0666
 9179TIP3    H148952   3.358   6.541  13.773 -0.6795 -1.4202 -0.3451
 9179TIP3    H248953   3.334   6.646  13.667  1.6813  0.8196  1.2915
 9180TIP3   OH248954   0.476   5.882  15.846  0.0734 -0.0696  0.4459
 9180TIP3    H148955   0.406   5.923  15.795 -0.1378 -0.3522  0.5018
 9180TIP3    H248956   0.490   5.941  15.920  0.5709  0.4804 -0.0857
 9181TIP3   OH248957   1.960   4.858   1.618  0.5614  0.1618 -0.5533
 9181TIP3    H148958   1.963   4.764   1.602  0.4185 -0.1011  0.9017
 9181TIP3    H248959   2.031   4.894   1.566 -0.4380 -0.5414 -2.4521
 9182TIP3   OH248960   5.591   1.951  15.327  0.2480  0.1942 -0.6472
 9182TIP3    H148961   5.674   1.945  15.374 -0.5710  2.5295  1.2259
 9182TIP3    H248962   5.591   2.040  15.290 -1.8846  0.6586  0.3732
 9183TIP3   OH248963   4.009   3.340  15.649  0.2749  0.1554 -0.2465
 9183TIP3    H148964   3.913   3.341  15.639  0.0847  5.5438  0.7035
 9183TIP3    H248965   4.041   3.306  15.565 -2.3985 -1.3768 -0.7179
 9184TIP3   OH248966   5.430   6.443  13.385 -0.4166 -0.6105 -0.2467
 9184TIP3    H148967   5.495   6.514  13.380 -0.6524 -0.4796 -1.6994
 9184TIP3    H248968   5.362   6.478  13.443  0.1885 -0.2378  0.2526
 9185TIP3   OH248969   2.603   3.443  13.283 -0.1668  0.2566 -0.4398
 9185TIP3    H148970   2.626   3.370  13.224  0.8959 -0.4525  0.8236
 9185TIP3    H248971   2.556   3.505  13.227 -1.0375 -1.3664 -1.5537
 9186TIP3   OH248972   2.515   3.924   5.431 -0.5446  0.0450 -0.1586
 9186TIP3    H148973   2.480   3.859   5.371  1.8347 -2.3176  0.8769
 9186TIP3    H248974   2.462   3.916   5.510 -0.7746 -0.0678 -0.3272
 9187TIP3   OH248975   1.152   5.359   2.414  0.6653 -0.0118  0.0242
 9187TIP3    H148976   1.086   5.366   2.345 -1.0704  0.9449  1.7297
 9187TIP3    H248977   1.109   5.310   2.484  1.6757  0.8105  1.2586
 9188TIP3   OH248978   1.692   2.334  13.591 -0.3783  0.0422 -0.4071
 9188TIP3    H148979   1.671   2.241  13.581 -0.0573 -0.1476  0.6035
 9188TIP3    H248980   1.770   2.347  13.536 -1.1386  0.0028 -1.5237
 9189TIP3   OH248981   4.662   1.648   0.027 -0.9106  0.1706  0.3986
 9189TIP3    H148982   4.581   1.671   0.073 -0.8210  0.2714  0.5066
 9189TIP3    H248983   4.700   1.732   0.003 -0.6971  0.1309  0.5940
 9190TIP3   OH248984   3.217   5.512  13.667 -0.4336 -0.3054 -0.1009
 9190TIP3    H148985   3.176   5.431  13.696  0.3321 -0.1545  1.4674
 9190TIP3    H248986   3.145   5.574  13.658 -0.6968 -0.3562  1.5375
 9191TIP3   OH248987   2.544   0.131  11.488 -0.1266  0.1312  0.2514
 9191TIP3    H148988   2.605   0.061  11.511 -0.0058  0.0992 -0.1641
 9191TIP3    H248989   2.529   0.119  11.394 -1.7948 -0.6594  0.6116
 9192TIP3   OH248990   1.370   2.026  14.527 -0.2946 -0.4617  0.3050
 9192TIP3    H148991   1.454   1.990  14.499 -0.0276  1.1442 -1.0718
 9192TIP3    H248992   1.317   2.028  14.447 -0.8796  0.5454  0.7072
 9193TIP3   OH248993   6.431   2.987  10.343 -0.5642 -0.6372 -0.4642
 9193TIP3    H148994   6.391   2.901  10.341 -2.0401  0.0592 -1.7568
 9193TIP3    H248995   6.516   2.976  10.300  0.1286 -1.8364  1.1405
 9194TIP3   OH248996   0.220   4.830   0.565 -0.1529 -0.0603  0.2901
 9194TIP3    H148997   0.308   4.792   0.563 -0.0933  0.0133  1.1121
 9194TIP3    H248998   0.227   4.911   0.515  0.5403  0.5376  1.3434
 9195TIP3   OH248999   5.314   0.965  14.935 -0.2206 -0.6316 -0.0300
 9195TIP3    H149000   5.359   1.049  14.943  0.1743 -0.6479 -1.8708
 9195TIP3    H249001   5.221   0.987  14.943 -0.0819 -0.1066  0.1378
 9196TIP3   OH249002   6.349   2.558  13.304  0.4700 -0.0343 -0.3461
 9196TIP3    H149003   6.391   2.639  13.274 -0.8489  1.1051  0.8160
 9196TIP3    H249004   6.421   2.498  13.320  1.3914  0.3898 -2.7079
 9197TIP3   OH249005   2.960   2.209   3.542 -0.1532 -0.5836 -0.3082
 9197TIP3    H149006   2.961   2.301   3.567 -0.3913 -1.1478  1.8725
 9197TIP3    H249007   2.868   2.191   3.524 -0.8442 -1.4802  3.6621
 9198TIP3   OH249008   1.203   6.322  14.457  0.3928 -0.2040  0.6624
 9198TIP3    H149009   1.202   6.234  14.495 -1.9083 -0.1451  0.8484
 9198TIP3    H249010   1.217   6.309  14.364 -0.3402 -0.8091  0.6340
 9199TIP3   OH249011   0.831   5.317  11.222 -0.4103 -0.2069  0.3966
 9199TIP3    H149012   0.807   5.385  11.160  0.9387  0.9702  1.1331
 9199TIP3    H249013   0.778   5.241  11.196  0.1155  0.2565 -2.1493
 9200TIP3   OH249014   6.196   5.889   4.641 -0.3320  0.2983 -0.3333
 9200TIP3    H149015   6.249   5.898   4.720 -1.5714  1.4536  0.4071
 9200TIP3    H249016   6.249   5.837   4.581  0.6140 -0.6124  1.2752
 9201TIP3   OH249017   5.335   4.427   1.096  0.1668  0.2518  0.3822
 9201TIP3    H149018   5.318   4.357   1.033 -0.0502 -0.1557  0.8907
 9201TIP3    H249019   5.430   4.440   1.093  0.5322 -1.8467  2.1628
 9202TIP3   OH249020   3.140   5.200  13.720 -0.0443 -0.1276  0.4507
 9202TIP3    H149021   3.228   5.194  13.757 -0.9348  0.4244  2.7832
 9202TIP3    H249022   3.126   5.115  13.679  0.6367 -1.2003  2.3379
 9203TIP3   OH249023   2.486   5.924   5.382  0.2318  0.2942 -0.1542
 9203TIP3    H149024   2.496   5.879   5.466  0.2425 -0.1926 -0.4121
 9203TIP3    H249025   2.392   5.941   5.375  0.3339  1.0626  0.3266
 9204TIP3   OH249026   4.284   4.722   3.501  0.1328  0.0864  0.3908
 9204TIP3    H149027   4.226   4.797   3.490  2.0065  1.6349  0.8472
 9204TIP3    H249028   4.238   4.665   3.563 -0.1962  2.0293  1.9778
 9205TIP3   OH249029   2.352   4.248   3.529  0.0969  0.0761 -0.1375
 9205TIP3    H149030   2.439   4.246   3.489  0.4974  1.0227  0.6573
 9205TIP3    H249031   2.328   4.341   3.529  0.2279  0.1236  2.0556
 9206TIP3   OH249032   5.914   3.366  12.863  0.6885  0.3422 -1.0938
 9206TIP3    H149033   5.870   3.336  12.943 -1.4105  1.6284 -1.7360
 9206TIP3    H249034   5.914   3.290  12.805 -1.6968  0.5916 -1.4870
 9207TIP3   OH249035   5.992   6.498   0.442  0.2236 -0.2037 -0.2450
 9207TIP3    H149036   6.008   6.446   0.521  1.1072  2.1249  1.1572
 9207TIP3    H249037   5.916   6.552   0.465  0.3659  0.3409 -1.0827
 9208TIP3   OH249038   0.028   3.389  14.690 -0.4303  0.6200  0.1757
 9208TIP3    H149039   0.046   3.296  14.703  0.8830  0.7152 -0.8953
 9208TIP3    H249040  -0.060   3.391  14.652  0.5203 -0.3722 -2.2207
 9209TIP3   OH249041   2.834   2.584  16.277 -0.1619  0.3194  0.1775
 9209TIP3    H149042   2.911   2.639  16.294 -1.5502  1.5728  2.7832
 9209TIP3    H249043   2.790   2.626  16.203  0.0526  1.3976  0.6489
 9210TIP3   OH249044   5.207   2.323   6.863  0.0740  0.0985  0.2244
 9210TIP3    H149045   5.144   2.381   6.905  0.3489  1.1248 -0.7514
 9210TIP3    H249046   5.288   2.375   6.858  0.6386 -0.7564  0.3360
 9211TIP3   OH249047   2.484   4.849   0.432 -0.0473 -0.4305 -0.2931
 9211TIP3    H149048   2.450   4.760   0.422 -2.6594  0.5334 -0.5801
 9211TIP3    H249049   2.427   4.902   0.376  0.7157  1.5843  0.7873
 9212TIP3   OH249050   2.606   4.086  12.322  0.4018  0.0996  0.7690
 9212TIP3    H149051   2.530   4.139  12.299  0.5200  0.0985  0.3705
 9212TIP3    H249052   2.660   4.086  12.243 -0.0109 -1.3232  0.4700
 9213TIP3   OH249053   5.978   0.522   5.844  0.0574 -0.0450  0.0551
 9213TIP3    H149054   5.928   0.445   5.815  0.4706 -0.0957 -0.5180
 9213TIP3    H249055   6.062   0.514   5.801  0.5842  0.0315  1.0490
 9214TIP3   OH249056   0.732   2.950   2.826 -0.3719  0.0725 -0.5115
 9214TIP3    H149057   0.653   2.908   2.861 -1.0337  1.3570 -0.4400
 9214TIP3    H249058   0.775   2.881   2.775 -1.1812 -0.8325  0.0070
 9215TIP3   OH249059   2.748   5.065   0.461 -0.1044 -0.2156  0.4556
 9215TIP3    H149060   2.809   5.116   0.515 -0.2431  0.6466 -0.1901
 9215TIP3    H249061   2.713   5.128   0.398  1.4143 -1.5806 -1.8189
 9216TIP3   OH249062   0.283   0.874   4.388 -0.3903 -0.6377 -0.1476
 9216TIP3    H149063   0.330   0.936   4.443  0.3995  0.8106 -2.3986
 9216TIP3    H249064   0.352   0.829   4.338 -1.2407  0.1851 -2.1047
 9217TIP3   OH249065   3.407   5.313   3.601 -0.0104  0.0371  0.1870
 9217TIP3    H149066   3.333   5.354   3.554  0.4364  0.3738 -0.2270
 9217TIP3    H249067   3.410   5.360   3.685 -1.1374 -0.9139  0.7860
 9218TIP3   OH249068   6.544   4.099   2.983 -0.0518  0.1434 -0.1884
 9218TIP3    H149069   6.470   4.108   2.923  0.7125 -0.0253 -1.1609
 9218TIP3    H249070   6.516   4.032   3.045 -0.7902  0.2140 -0.4396
 9219TIP3   OH249071   2.471   4.550   1.585  0.4227  0.3151  0.5822
 9219TIP3    H149072   2.461   4.635   1.628  3.4642  0.8302  0.3352
 9219TIP3    H249073   2.550   4.559   1.531 -0.8707 -1.7027 -1.7836
 9220TIP3   OH249074   5.710   3.711   1.169  0.3126  0.4306  0.2139
 9220TIP3    H149075   5.703   3.730   1.075  0.8889 -0.9410 -0.1236
 9220TIP3    H249076   5.635   3.756   1.208 -0.7167 -0.1166 -1.0841
 9221TIP3   OH249077   2.169   6.395   5.741  0.3360 -0.1676 -0.2266
 9221TIP3    H149078   2.170   6.306   5.706  0.9273 -0.7025  1.1224
 9221TIP3    H249079   2.245   6.399   5.799  0.6721  1.4176 -0.7469
 9222TIP3   OH249080   5.822   3.686   0.760 -0.4611 -0.0485  1.2133
 9222TIP3    H149081   5.869   3.753   0.809  0.3148 -0.7012  1.3763
 9222TIP3    H249082   5.756   3.734   0.711 -1.0329  0.6439  2.6437
 9223TIP3   OH249083   4.042   4.239  11.844  0.0158 -0.3277  0.3799
 9223TIP3    H149084   4.086   4.218  11.927 -1.2884 -2.0023  0.6755
 9223TIP3    H249085   4.089   4.188  11.778  1.0772  1.0343  0.0595
 9224TIP3   OH249086   0.565   3.003  14.519  0.3870  0.3444 -0.2663
 9224TIP3    H149087   0.489   2.945  14.524 -0.9336  1.9894 -0.6377
 9224TIP3    H249088   0.591   3.000  14.427 -0.0299  0.7793 -0.3983
 9225TIP3   OH249089   4.149   0.135   1.376  0.1275 -0.1343 -0.0969
 9225TIP3    H149090   4.172   0.047   1.405 -0.8759 -0.8087 -1.3616
 9225TIP3    H249091   4.186   0.142   1.288  0.6916  0.9153  0.2135
 9226TIP3   OH249092   0.319   0.155  14.559 -0.1639 -0.0875  0.0672
 9226TIP3    H149093   0.357   0.236  14.527 -2.0064  0.3896 -0.9642
 9226TIP3    H249094   0.224   0.165  14.546 -0.3484 -2.8481 -1.1903
 9227TIP3   OH249095   3.898   1.379  16.452 -0.3190 -0.0400  0.4426
 9227TIP3    H149096   3.929   1.291  16.474 -1.5932 -1.1568 -1.9908
 9227TIP3    H249097   3.825   1.364  16.392 -0.4781  2.6899 -0.1023
 9228TIP3   OH249098   1.565   1.999   4.603 -0.0984  0.2906 -0.3326
 9228TIP3    H149099   1.511   1.923   4.625  1.0418  0.1858  2.3042
 9228TIP3    H249100   1.503   2.072   4.596 -0.9262 -0.4211 -0.4021
 9229TIP3   OH249101   0.797   5.546  11.040 -0.3759 -0.2296  0.1891
 9229TIP3    H149102   0.842   5.628  11.020 -2.4754  0.9661  0.3476
 9229TIP3    H249103   0.768   5.513  10.955 -0.3434 -0.3461  0.2217
 9230TIP3   OH249104   2.517   4.969  11.703 -0.2502  0.7930  0.5826
 9230TIP3    H149105   2.532   5.062  11.689  0.7249  0.2427 -2.3522
 9230TIP3    H249106   2.600   4.927  11.679 -0.5999 -0.8360  2.0960
 9231TIP3   OH249107   1.911   2.593  11.333 -0.1153  0.5937 -0.7256
 9231TIP3    H149108   2.006   2.587  11.339 -0.0074  2.7654  0.1991
 9231TIP3    H249109   1.878   2.533  11.400  0.6148  0.5570 -0.4005
 9232TIP3   OH249110   6.581   0.367  12.778  0.1200 -0.3609  0.3673
 9232TIP3    H149111   6.513   0.434  12.787  0.1527 -0.4055  1.0081
 9232TIP3    H249112   6.538   0.293  12.735 -0.7099 -1.0462  2.3053
 9233TIP3   OH249113   3.830   3.559   1.880  0.0426  0.2440 -0.2632
 9233TIP3    H149114   3.786   3.605   1.808  0.3680  0.9330 -0.0180
 9233TIP3    H249115   3.815   3.466   1.860 -0.1192  0.4326 -1.0683
 9234TIP3   OH249116   6.550   4.788  12.121 -0.6800 -1.2450  0.4249
 9234TIP3    H149117   6.512   4.730  12.056 -0.6226 -0.3343 -0.4373
 9234TIP3    H249118   6.563   4.733  12.198 -0.7902 -2.3249 -0.3180
 9235TIP3   OH249119   6.407   1.393   6.793 -0.7025  0.3447  0.0147
 9235TIP3    H149120   6.421   1.437   6.710 -2.4594 -0.3072 -0.6577
 9235TIP3    H249121   6.486   1.342   6.808 -0.0500  1.1101 -0.8558
 9236TIP3   OH249122   1.565   0.159  17.151 -0.3119 -0.5299  0.3987
 9236TIP3    H149123   1.584   0.252  17.162 -1.1933 -0.2343 -0.6083
 9236TIP3    H249124   1.492   0.156  17.090  0.0941 -1.9090 -0.0269
 9237TIP3   OH249125   1.086   5.076  14.273  0.0602 -0.0583 -0.1156
 9237TIP3    H149126   1.033   5.150  14.305  0.1448  0.1987 -0.5615
 9237TIP3    H249127   1.021   5.008  14.253 -0.1559  0.4073 -1.0666
 9238TIP3   OH249128   6.019   1.676  15.995  0.0053 -0.1737 -0.4724
 9238TIP3    H149129   6.054   1.712  15.913 -0.3016 -1.0225 -0.9793
 9238TIP3    H249130   6.093   1.683  16.056 -0.3473  2.2441 -0.2584
 9239TIP3   OH249131   1.412   6.615   1.985  0.3233 -0.6573 -0.0721
 9239TIP3    H149132   1.334   6.565   2.008 -2.1840  2.6384 -1.0580
 9239TIP3    H249133   1.398   6.641   1.895  2.4253  0.3165 -0.1391
 9240TIP3   OH249134   5.136   4.672  15.378 -0.2461  0.1520  0.5344
 9240TIP3    H149135   5.156   4.723  15.456 -0.6607  0.8055  0.2271
 9240TIP3    H249136   5.047   4.641  15.391 -0.0589 -0.3540  0.6411
 9241TIP3   OH249137   1.468   4.287  11.635 -0.2355  0.0475 -0.1142
 9241TIP3    H149138   1.434   4.261  11.721  0.7212  0.8004  0.5068
 9241TIP3    H249139   1.406   4.249  11.572 -0.0071 -1.9552  0.8326
 9242TIP3   OH249140   0.818   5.323   4.696 -0.1955 -0.0498 -0.1696
 9242TIP3    H149141   0.819   5.326   4.791 -1.6148 -1.2231 -0.0929
 9242TIP3    H249142   0.787   5.234   4.675  1.4086 -0.2795 -1.7250
 9243TIP3   OH249143   5.492   3.330  14.929  0.0188 -0.1858 -0.4136
 9243TIP3    H149144   5.565   3.331  14.991  0.2952  1.5351 -0.7308
 9243TIP3    H249145   5.524   3.379  14.853 -1.8669  1.7586 -0.0410
 9244TIP3   OH249146   2.902   3.496  13.742 -0.2810 -0.6045 -0.4730
 9244TIP3    H149147   2.898   3.401  13.740  1.9563 -0.7107 -1.2946
 9244TIP3    H249148   2.876   3.524  13.655  0.8644 -0.5795 -0.8231
 9245TIP3   OH249149   5.663   2.883  11.314 -0.5676 -0.0701  0.2613
 9245TIP3    H149150   5.624   2.938  11.246 -0.2604  0.7209  0.7150
 9245TIP3    H249151   5.744   2.928  11.337 -1.0827  0.1029  1.7442
 9246TIP3   OH249152   4.368   3.563  12.864 -0.1494 -0.4829 -0.2284
 9246TIP3    H149153   4.341   3.473  12.846  0.4743 -0.6827 -0.1577
 9246TIP3    H249154   4.389   3.600  12.779 -2.0415  0.1341 -0.4561
 9247TIP3   OH249155   0.421   2.075  11.892 -0.3692  0.2564 -0.2032
 9247TIP3    H149156   0.452   2.063  11.802 -2.4059 -1.0213 -0.7675
 9247TIP3    H249157   0.497   2.108  11.939  1.4288 -1.4066 -1.8619
 9248TIP3   OH249158   3.976   2.748  14.994  0.2061  0.8510  0.5849
 9248TIP3    H149159   4.062   2.721  14.962 -0.2205  0.7793 -0.5432
 9248TIP3    H249160   3.954   2.826  14.943 -0.9042  0.1810 -0.0046
 9249TIP3   OH249161   4.879   0.349  15.773  0.3021 -0.5589 -0.0018
 9249TIP3    H149162   4.888   0.262  15.813  1.3141 -0.0590  0.8707
 9249TIP3    H249163   4.887   0.410  15.846 -3.2648  0.2088 -0.1853
 9250TIP3   OH249164   3.916   6.030  11.073  0.2393  0.2833  0.7297
 9250TIP3    H149165   3.950   5.952  11.117 -1.0098 -1.1579 -0.8084
 9250TIP3    H249166   3.871   6.078  11.143 -2.1237 -2.2178  1.0277
 9251TIP3   OH249167   1.856   5.563   5.178 -0.1100  0.3172 -0.0942
 9251TIP3    H149168   1.828   5.609   5.257  1.1978 -1.3145  1.3654
 9251TIP3    H249169   1.805   5.482   5.178  1.4489 -0.6858  0.2564
 9252TIP3   OH249170   4.028   6.599   1.076  0.0735  0.2466 -0.3129
 9252TIP3    H149171   4.004   6.539   1.005 -1.9892 -0.5593  0.9991
 9252TIP3    H249172   3.965   6.671   1.069 -0.4305 -0.0493  0.9082
 9253TIP3   OH249173   1.809   1.277  16.814  0.6507  0.1632  0.0690
 9253TIP3    H149174   1.886   1.325  16.844  0.0715  1.1109  0.0568
 9253TIP3    H249175   1.735   1.328  16.846  0.0181  0.5872 -1.9622
 9254TIP3   OH249176   1.199   1.535   1.785 -0.1905 -0.0600 -0.0406
 9254TIP3    H149177   1.150   1.567   1.860 -1.2981 -1.5815 -0.1029
 9254TIP3    H249178   1.274   1.490   1.823 -0.9292 -1.1210  0.1695
 9255TIP3   OH249179   6.322   3.532   2.709 -0.0838 -0.5626 -0.6420
 9255TIP3    H149180   6.245   3.545   2.653  0.5342 -1.0857 -1.6253
 9255TIP3    H249181   6.351   3.620   2.731 -1.6782 -0.3411  0.7533
 9256TIP3   OH249182   2.621   3.643   4.571 -0.1700 -0.1287  0.0448
 9256TIP3    H149183   2.549   3.676   4.624 -1.3636 -0.1802 -1.5146
 9256TIP3    H249184   2.661   3.722   4.533 -0.6427 -0.2184 -0.6503
 9257TIP3   OH249185   4.132   5.132  13.396  0.0266  0.0802  0.2459
 9257TIP3    H149186   4.142   5.111  13.303  0.5552  0.9930  0.0855
 9257TIP3    H249187   4.063   5.199  13.398 -0.0724 -0.0286  0.5246
 9258TIP3   OH249188   0.753   6.343  11.783 -0.3343  0.0075 -0.2028
 9258TIP3    H149189   0.670   6.365  11.825 -0.4655 -0.9556  0.0614
 9258TIP3    H249190   0.753   6.393  11.701 -1.5441 -0.6338 -0.5964
 9259TIP3   OH249191   5.779   5.449  15.021 -0.5379  0.4254  0.3487
 9259TIP3    H149192   5.776   5.511  14.948 -0.0491 -0.0321 -0.0618
 9259TIP3    H249193   5.772   5.363  14.980  1.9949  0.0483  0.6357
 9260TIP3   OH249194   5.268   0.426   5.111  0.1349 -0.2681  0.1406
 9260TIP3    H149195   5.266   0.517   5.142 -1.7889  0.1816 -1.2437
 9260TIP3    H249196   5.263   0.374   5.191 -1.5244  0.8567  0.8101
 9261TIP3   OH249197   6.718   2.066   6.481  0.0054 -0.0770  0.4275
 9261TIP3    H149198   6.787   2.094   6.541  0.3148 -0.5592  0.2922
 9261TIP3    H249199   6.735   1.974   6.465 -0.6685 -0.2017  0.3932
 9262TIP3   OH249200   6.620   6.476   1.562 -0.0450  0.4505 -0.1245
 9262TIP3    H149201   6.706   6.455   1.597 -0.1190  0.2122 -0.0860
 9262TIP3    H249202   6.561   6.414   1.603 -0.0884 -0.0168 -0.8793
 9263TIP3   OH249203   0.824   5.525   1.915  0.0629 -0.3525 -0.5848
 9263TIP3    H149204   0.830   5.444   1.966 -0.8905 -0.3132 -0.3983
 9263TIP3    H249205   0.732   5.529   1.888 -0.6018  2.2293  1.9214
 9264TIP3   OH249206   4.421   1.206   2.866  0.4494  0.3067  0.2020
 9264TIP3    H149207   4.472   1.167   2.795  0.7782  0.7545  0.1886
 9264TIP3    H249208   4.467   1.180   2.946  1.6342  2.0490  0.1096
 9265TIP3   OH249209   3.869   5.375  17.155 -0.5056  0.1136 -0.3923
 9265TIP3    H149210   3.872   5.430  17.077 -0.3362  0.2497 -0.2899
 9265TIP3    H249211   3.776   5.357  17.168 -0.5276  0.0295 -0.6671
 9266TIP3   OH249212   0.332   3.826  13.390  0.1680 -0.1994 -0.3745
 9266TIP3    H149213   0.410   3.772  13.377  0.2995  0.1574 -1.1076
 9266TIP3    H249214   0.367   3.915  13.404 -0.0866 -0.1390 -0.1066
 9267TIP3   OH249215   1.198   1.755   3.104  0.0378  0.1747 -0.4916
 9267TIP3    H149216   1.238   1.676   3.142 -0.4610 -0.1687 -0.6679
 9267TIP3    H249217   1.180   1.811   3.179 -0.1623 -0.1422 -0.2974
 9268TIP3   OH249218   2.009   4.143   2.865 -0.0830 -0.0398 -0.7368
 9268TIP3    H149219   2.069   4.094   2.809  0.5223 -2.2653  1.7781
 9268TIP3    H249220   2.048   4.230   2.871  2.1690 -1.0491 -0.2383
 9269TIP3   OH249221   3.831   2.066  16.846 -0.1714  0.3146 -0.1539
 9269TIP3    H149222   3.873   2.015  16.776 -1.4708 -0.1830 -0.5772
 9269TIP3    H249223   3.903   2.116  16.884  0.7347 -0.1591 -1.1917
 9270TIP3   OH249224   0.321   1.928  14.372 -0.5844  0.1859 -0.4962
 9270TIP3    H149225   0.304   1.854  14.430 -1.0506  0.9092  0.3012
 9270TIP3    H249226   0.416   1.937  14.372 -0.5443 -0.2305 -0.3586
 9271TIP3   OH249227   4.939   6.453  14.496  0.5057 -0.2294  0.1747
 9271TIP3    H149228   5.000   6.413  14.558  1.6616  0.8167 -0.2799
 9271TIP3    H249229   4.915   6.537  14.535  1.3695  0.5110 -0.8574
 9272TIP3   OH249230   4.766   1.873  15.269  0.1076  0.0524 -0.0935
 9272TIP3    H149231   4.850   1.874  15.315  0.5052  1.0247 -0.8348
 9272TIP3    H249232   4.753   1.781  15.246  0.3684 -0.2933  1.0949
 9273TIP3   OH249233   1.949   5.232  13.204  0.1567  0.2695  0.2271
 9273TIP3    H149234   1.899   5.184  13.269 -1.7350  0.8283 -0.8008
 9273TIP3    H249235   1.988   5.165  13.149 -3.7585 -0.1632 -2.1873
 9274TIP3   OH249236   2.679   4.209   6.234 -0.0697  0.2118  0.3324
 9274TIP3    H149237   2.605   4.242   6.184 -1.1855 -0.5619  1.4515
 9274TIP3    H249238   2.745   4.279   6.227 -1.2799  1.3675  0.2039
 9275TIP3   OH249239   3.810   2.053  16.173 -0.2220 -0.6382  0.4730
 9275TIP3    H149240   3.843   2.013  16.093 -0.4382 -1.3224  0.7194
 9275TIP3    H249241   3.822   1.985  16.240 -2.4551 -1.0266  0.4947
 9276TIP3   OH249242   0.955   0.140  15.536  0.0876 -0.3608  0.2433
 9276TIP3    H149243   0.903   0.071  15.495  0.3998 -0.7856  0.5646
 9276TIP3    H249244   1.037   0.098  15.560 -0.1079 -0.1256  1.3524
 9277TIP3   OH249245   2.245   5.691   5.249  0.0183 -0.4262  0.2841
 9277TIP3    H149246   2.260   5.649   5.334  3.5755  0.1622  0.0127
 9277TIP3    H249247   2.265   5.784   5.265  1.1103 -0.3838 -1.2977
 9278TIP3   OH249248   4.597   3.049  14.766 -0.0962 -0.1510 -0.0505
 9278TIP3    H149249   4.597   2.977  14.703  0.2764 -1.7514  1.7506
 9278TIP3    H249250   4.689   3.074  14.774  0.2192 -1.8996  2.0265
 9279TIP3   OH249251   3.679   1.840  12.840 -0.0620  1.0313  0.9035
 9279TIP3    H149252   3.771   1.812  12.840 -0.3895 -0.0791  0.3312
 9279TIP3    H249253   3.634   1.774  12.786 -1.1436  1.7298  0.9364
 9280TIP3   OH249254   4.470   5.788  16.806  0.2673 -0.0304 -0.6520
 9280TIP3    H149255   4.468   5.832  16.721 -0.9867 -0.9583 -1.1265
 9280TIP3    H249256   4.444   5.855  16.869 -1.9046 -0.1053 -1.4035
 9281TIP3   OH249257   3.208   3.379   2.697 -0.3422  0.5781 -0.1091
 9281TIP3    H149258   3.278   3.424   2.744 -0.0523  0.2864 -0.2639
 9281TIP3    H249259   3.148   3.350   2.765 -0.3494  0.8950  0.0188
 9282TIP3   OH249260   3.932   4.277  14.144  0.2354  0.3017 -0.2581
 9282TIP3    H149261   3.876   4.353  14.157  2.1719  1.9831 -1.5787
 9282TIP3    H249262   3.911   4.246  14.056  0.3935  0.0651 -0.2144
 9283TIP3   OH249263   3.012   5.715  13.588  0.0158  0.2548  0.3209
 9283TIP3    H149264   2.975   5.783  13.644 -1.3322 -1.9456  2.1991
 9283TIP3    H249265   2.938   5.681  13.538  0.1800 -1.4971  1.2213
 9284TIP3   OH249266   0.469   3.693   0.116 -0.2594  0.2473 -0.4321
 9284TIP3    H149267   0.385   3.720   0.155  0.8738  1.2475  1.3644
 9284TIP3    H249268   0.492   3.612   0.161  0.5225  0.8281  0.2196
 9285TIP3   OH249269   3.103   3.746   1.012 -0.1160  0.4434  0.0546
 9285TIP3    H149270   3.012   3.728   1.034  0.5658 -1.5805  1.3572
 9285TIP3    H249271   3.138   3.791   1.089  1.1927 -3.0142  1.5889
 9286TIP3   OH249272   6.669   1.377  16.853 -0.2527  0.4750  0.1000
 9286TIP3    H149273   6.664   1.468  16.826 -2.4999  0.8112  1.5018
 9286TIP3    H249274   6.737   1.374  16.920 -0.7736  1.2802  0.6627
 9287TIP3   OH249275   0.449   3.511   3.161  0.2551  0.3398  0.3841
 9287TIP3    H149276   0.432   3.527   3.254  2.8809  0.5121  0.8990
 9287TIP3    H249277   0.454   3.416   3.153  2.9256  0.3707  1.0645
 9288TIP3   OH249278   1.219   3.859  14.196  0.1371  0.4569  0.0811
 9288TIP3    H149279   1.167   3.831  14.121  1.6833  0.4268 -1.0093
 9288TIP3    H249280   1.187   3.947  14.216  0.8851  1.1615 -1.7260
 9289TIP3   OH249281   6.274   0.625  14.399 -0.0283  0.2200 -0.4419
 9289TIP3    H149282   6.247   0.573  14.323  0.5341  1.0009 -1.1782
 9289TIP3    H249283   6.350   0.674  14.369 -0.1177  0.9319  0.4756
 9290TIP3   OH249284   3.008   0.745   1.448 -0.5881 -0.2885  0.6153
 9290TIP3    H149285   2.929   0.696   1.471 -1.6350  1.2920  0.5225
 9290TIP3    H249286   2.975   0.820   1.399  0.7930  1.5675  2.4559
 9291TIP3   OH249287   0.018   1.285   0.127 -0.1584  0.2569 -0.2251
 9291TIP3    H149288  -0.032   1.322   0.198  0.6461  0.9799 -0.0321
 9291TIP3    H249289   0.051   1.201   0.161  0.4779  0.7418  0.3626
 9292TIP3   OH249290   2.972   5.499   4.108  0.0189 -0.7536  0.1471
 9292TIP3    H149291   3.049   5.445   4.129  0.1491 -0.1193  1.3793
 9292TIP3    H249292   2.963   5.493   4.013 -0.3249 -3.4199  0.3080
 9293TIP3   OH249293   1.131   5.762  12.123 -0.3370 -0.0859  0.2664
 9293TIP3    H149294   1.156   5.838  12.070  0.5502 -0.4460  0.1665
 9293TIP3    H249295   1.211   5.710  12.130 -1.1561 -1.4392 -0.3818
 9294TIP3   OH249296   6.582   2.484  13.427  0.0229 -0.5079  0.1263
 9294TIP3    H149297   6.633   2.410  13.462  0.7526 -0.3912 -0.6848
 9294TIP3    H249298   6.646   2.555  13.420 -0.3689 -0.2136 -0.4221
 9295TIP3   OH249299   2.957   5.273   0.557  0.2037 -0.3790  0.2307
 9295TIP3    H149300   2.974   5.368   0.558  0.2548 -0.3883  1.7644
 9295TIP3    H249301   3.039   5.234   0.528  0.3098  0.0202 -0.0165
 9296TIP3   OH249302   1.581   3.255  12.717 -0.1568 -0.3217  0.3538
 9296TIP3    H149303   1.625   3.181  12.676  2.3003  0.4823  1.4175
 9296TIP3    H249304   1.496   3.262  12.673  0.2935 -2.6907 -0.9067
 9297TIP3   OH249305   1.620   0.248  13.929  0.3615 -0.3926 -0.2680
 9297TIP3    H149306   1.533   0.268  13.896  0.8112  0.1997 -1.1197
 9297TIP3    H249307   1.630   0.303  14.007 -0.5491 -1.4892  0.6364
 9298TIP3   OH249308   6.744   5.783   1.685  0.3676  0.4328  0.2623
 9298TIP3    H149309   6.672   5.752   1.741  0.5849 -1.3836 -0.4428
 9298TIP3    H249310   6.818   5.726   1.706  1.3440  1.6804  0.2899
 9299TIP3   OH249311   2.144   5.145   6.342  0.1059 -0.4630  0.0879
 9299TIP3    H149312   2.055   5.119   6.318  0.9973 -2.2094 -1.4657
 9299TIP3    H249313   2.143   5.148   6.438 -1.6796 -0.1979  0.0816
 9300TIP3   OH249314   1.619   3.214  16.086 -0.4868 -0.0765 -0.0167
 9300TIP3    H149315   1.582   3.160  16.016 -2.9025 -0.0164  1.1706
 9300TIP3    H249316   1.569   3.296  16.082  0.7570  0.7151  0.4608
 9301TIP3   OH249317   3.369   4.977   1.066 -0.4997  0.5253  0.1528
 9301TIP3    H149318   3.279   4.945   1.074 -0.1232 -0.4125  0.8057
 9301TIP3    H249319   3.414   4.909   1.016 -0.3268  1.3580 -0.8319
 9302TIP3   OH249320   3.045   6.358  17.237 -0.4225  0.3771 -0.7082
 9302TIP3    H149321   2.959   6.385  17.270 -0.7122 -0.2026 -0.9754
 9302TIP3    H249322   3.059   6.272  17.276 -0.9436 -0.4959 -2.3859
 9303TIP3   OH249323   3.354   2.867   5.009 -0.5079 -0.1320 -0.1125
 9303TIP3    H149324   3.399   2.789   5.041  0.0610  0.1561 -0.2044
 9303TIP3    H249325   3.367   2.932   5.078 -1.8938 -0.4393  0.4444
 9304TIP3   OH249326   1.929   3.404   2.110  0.3795 -0.3005 -0.3189
 9304TIP3    H149327   1.841   3.425   2.140  0.0672 -1.2805 -0.5336
 9304TIP3    H249328   1.987   3.448   2.172 -0.2579  0.2690 -0.1246
 9305TIP3   OH249329   1.530   0.750   5.159  0.6181  0.0930 -0.1498
 9305TIP3    H149330   1.474   0.795   5.095  0.2460 -0.0787  0.0555
 9305TIP3    H249331   1.611   0.732   5.111  0.8297  1.1122 -0.1992
 9306TIP3   OH249332   6.664   4.641   3.714  0.4199 -0.0898  0.5119
 9306TIP3    H149333   6.683   4.728   3.678  1.0176 -0.1503  0.6866
 9306TIP3    H249334   6.585   4.654   3.767 -0.0961  0.1328 -0.2993
 9307TIP3   OH249335   2.212   3.385   5.565 -0.2366  0.2492  0.6647
 9307TIP3    H149336   2.258   3.340   5.636 -0.8051 -0.1518  0.7804
 9307TIP3    H249337   2.192   3.472   5.600  0.0542  0.2750  0.7648
 9308TIP3   OH249338   0.765   0.802  11.521 -0.1599 -0.9455  0.6528
 9308TIP3    H149339   0.850   0.805  11.565  0.8213  1.3673 -1.3251
 9308TIP3    H249340   0.706   0.850  11.580  0.6547  0.2365  0.5289
 9309TIP3   OH249341   2.646   5.501   3.634 -0.4698 -0.0816  0.2511
 9309TIP3    H149342   2.609   5.414   3.618 -0.0131 -0.2732  0.2257
 9309TIP3    H249343   2.689   5.524   3.553  0.6222 -0.4416  0.7194
 9310TIP3   OH249344   2.526   0.655   4.069 -0.2958 -0.3937 -0.2082
 9310TIP3    H149345   2.542   0.596   3.995 -2.6540  0.7975 -1.7242
 9310TIP3    H249346   2.446   0.702   4.046 -0.6270  0.6187  2.7434
 9311TIP3   OH249347   3.895   0.878   5.045 -0.4482 -0.6777 -0.2056
 9311TIP3    H149348   3.863   0.795   5.081 -0.7329 -0.6588 -0.4125
 9311TIP3    H249349   3.897   0.863   4.950  0.5828 -0.8323 -0.1619
 9312TIP3   OH249350   2.581   3.610   2.306  0.1799  0.0766  0.2094
 9312TIP3    H149351   2.497   3.587   2.345  0.8926 -0.8277  1.2588
 9312TIP3    H249352   2.578   3.706   2.297 -1.8716 -0.1394 -1.9706
 9313TIP3   OH249353   4.773   5.408   6.142  0.4798  0.1249 -0.2543
 9313TIP3    H149354   4.846   5.382   6.086  0.8213  0.2687  0.1235
 9313TIP3    H249355   4.739   5.325   6.176 -0.9929 -0.1160 -2.2344
 9314TIP3   OH249356   0.797   6.507   5.443 -0.2955  0.1703  0.1406
 9314TIP3    H149357   0.886   6.503   5.476  0.6045  1.4553 -1.9917
 9314TIP3    H249358   0.757   6.580   5.490  0.6196  1.2644 -0.7551
 9315TIP3   OH249359   4.833   3.241  15.804 -0.0379 -0.5260 -0.0409
 9315TIP3    H149360   4.769   3.311  15.792  0.0254 -0.6725 -1.3130
 9315TIP3    H249361   4.866   3.223  15.716 -0.3382 -2.4234  0.2113
 9316TIP3   OH249362   1.408   4.504   2.814 -0.3314  0.7626  0.2272
 9316TIP3    H149363   1.471   4.435   2.793 -1.0826  0.0157  0.4080
 9316TIP3    H249364   1.461   4.583   2.819  0.4692  0.2937 -0.5001
 9317TIP3   OH249365   3.743   5.690  11.968 -0.2180  0.3095  0.2546
 9317TIP3    H149366   3.688   5.755  12.011 -0.7488  1.2450 -1.7895
 9317TIP3    H249367   3.833   5.718  11.986 -0.3868 -0.5271  2.5494
 9318TIP3   OH249368   4.765   1.513  15.626 -0.4104 -0.7517  0.2655
 9318TIP3    H149369   4.796   1.430  15.662 -0.5249 -0.0508  2.0205
 9318TIP3    H249370   4.678   1.525  15.664  0.1878  0.8608  1.1951
 9319TIP3   OH249371   0.744   5.268  14.760  0.0226 -0.2327 -0.1810
 9319TIP3    H149372   0.649   5.253  14.758 -0.4878  2.5361  1.2023
 9319TIP3    H249373   0.759   5.337  14.696  0.6459  1.4989  1.7911
 9320TIP3   OH249374   1.841   2.494  10.813 -0.0386  0.0521 -0.1344
 9320TIP3    H149375   1.918   2.450  10.847 -0.7819 -0.5431  0.7984
 9320TIP3    H249376   1.858   2.587  10.828  1.6574  0.1286 -2.3790
 9321TIP3   OH249377   4.022   2.823   6.937  0.4315  0.3068 -0.2102
 9321TIP3    H149378   4.026   2.850   6.846  2.5986  0.7218 -0.0154
 9321TIP3    H249379   4.110   2.790   6.957 -1.2973 -4.3541  0.3474
 9322TIP3   OH249380   1.987   5.063   2.390  0.2478 -0.0297  0.3742
 9322TIP3    H149381   1.960   5.044   2.300  0.6458  0.0369  0.2408
 9322TIP3    H249382   1.937   5.001   2.444  1.3148 -1.2713 -0.0392
 9323TIP3   OH249383   1.018   2.264   0.094 -0.2998  0.2015  0.0416
 9323TIP3    H149384   1.051   2.175   0.105 -1.5111 -0.1837  0.7306
 9323TIP3    H249385   0.939   2.254   0.040 -3.2590  0.1947  4.0892
 9324TIP3   OH249386   2.930   1.302  12.357  0.2898  0.2156 -0.2255
 9324TIP3    H149387   2.868   1.279  12.287 -0.6968  0.6659  0.4799
 9324TIP3    H249388   2.932   1.224  12.412 -1.2644  0.9279  0.8856
 9325TIP3   OH249389   1.927   4.123   4.341 -0.1560 -0.2565 -0.1718
 9325TIP3    H149390   1.856   4.078   4.295  0.5400 -1.1442 -0.3921
 9325TIP3    H249391   2.003   4.113   4.284  0.4725 -0.4859  0.6971
 9326TIP3   OH249392   1.986   5.228  13.697 -0.3330  0.4817  0.4701
 9326TIP3    H149393   2.057   5.275  13.742 -0.5171  0.6882  0.5459
 9326TIP3    H249394   1.910   5.286  13.706 -0.3574  0.5529 -0.1690
 9327TIP3   OH249395   0.210   5.151  15.351 -0.2042  0.6245 -0.2811
 9327TIP3    H149396   0.300   5.144  15.321 -0.2338 -0.0091 -0.2266
 9327TIP3    H249397   0.187   5.243  15.337  1.1898  1.3280  1.8272
 9328TIP3   OH249398   0.204   3.370   2.467 -0.1684 -0.0469  0.0831
 9328TIP3    H149399   0.193   3.336   2.556  1.2270 -0.4342  0.1287
 9328TIP3    H249400   0.269   3.312   2.428  0.0202  0.7755 -0.8351
 9329TIP3   OH249401   2.798   1.832  15.180 -0.2409  0.2836 -0.3189
 9329TIP3    H149402   2.828   1.824  15.271 -2.4427  2.7243  0.6872
 9329TIP3    H249403   2.875   1.811  15.128  1.1605 -0.8838  2.1087
 9330TIP3   OH249404   0.374   5.433  12.301  0.6704 -0.0094  0.7948
 9330TIP3    H149405   0.429   5.419  12.223  0.6924  0.8449  0.6539
 9330TIP3    H249406   0.301   5.372  12.290 -0.5815  1.7410 -1.1091
 9331TIP3   OH249407   5.659   6.122  14.673  0.6650  0.0658 -0.0461
 9331TIP3    H149408   5.708   6.187  14.722  0.6240  0.7121 -0.8517
 9331TIP3    H249409   5.708   6.112  14.591  0.1896 -0.2696 -0.2913
 9332TIP3   OH249410   2.803   1.048   3.889  0.6681 -0.5616 -0.2924
 9332TIP3    H149411   2.827   1.101   3.813  0.6964 -0.5153 -0.2507
 9332TIP3    H249412   2.708   1.041   3.885  0.3304  2.3739  1.6320
 9333TIP3   OH249413   0.051   5.446   2.553  0.4188 -0.6979  0.1626
 9333TIP3    H149414  -0.030   5.399   2.530  0.2619 -0.2925 -0.1160
 9333TIP3    H249415   0.067   5.421   2.644  0.2329 -1.1434  0.0775
 9334TIP3   OH249416   6.267   5.180  16.953  0.1819  0.2981 -0.4395
 9334TIP3    H149417   6.338   5.172  17.017 -0.5741  0.7698  0.4752
 9334TIP3    H249418   6.275   5.103  16.898  0.7724 -0.1739  0.2993
 9335TIP3   OH249419   0.265   0.886  15.237 -0.8053 -0.1852 -0.2710
 9335TIP3    H149420   0.230   0.884  15.148 -1.5427 -1.2475  0.0295
 9335TIP3    H249421   0.278   0.979  15.256 -1.9892  0.1336 -0.9729
 9336TIP3   OH249422   5.817   1.108   3.674 -0.8459  0.3161  0.2502
 9336TIP3    H149423   5.730   1.148   3.680 -0.7859  0.5446 -0.3724
 9336TIP3    H249424   5.807   1.023   3.717 -1.4977  0.1479 -0.2242
 9337TIP3   OH249425   5.399   2.452  15.952  0.6073  0.2026  0.5171
 9337TIP3    H149426   5.338   2.459  15.879 -0.4460 -0.3413  1.3291
 9337TIP3    H249427   5.402   2.541  15.989  1.1699  0.4854 -0.2054
 9338TIP3   OH249428   0.704   5.548  13.012  0.2959  0.1475 -0.1506
 9338TIP3    H149429   0.691   5.453  13.001  0.1535  0.4385 -2.9535
 9338TIP3    H249430   0.799   5.560  13.005  0.5164  0.0040  2.3088
 9339TIP3   OH249431   0.205   5.996  14.940 -0.1133 -0.2126  0.2997
 9339TIP3    H149432   0.141   6.017  15.008 -0.5296 -3.1630  0.8588
 9339TIP3    H249433   0.259   5.927  14.978  1.6898  0.3086 -1.2028
 9340TIP3   OH249434   1.627   5.642   6.057 -0.6438 -0.1883  0.3257
 9340TIP3    H149435   1.633   5.734   6.082  1.7148 -0.1189 -0.4435
 9340TIP3    H249436   1.715   5.607   6.072 -0.5976 -1.4640 -2.6889
 9341TIP3   OH249437   2.930   6.058  15.526  0.8397  0.0225  0.2608
 9341TIP3    H149438   2.885   5.974  15.520 -1.2517  1.0529  1.2093
 9341TIP3    H249439   2.975   6.056  15.610 -2.7521  1.5150  2.3121
 9342TIP3   OH249440   4.588   4.481  14.977 -0.1914  0.1679 -0.0938
 9342TIP3    H149441   4.556   4.452  15.063  1.1440  0.9908  0.6744
 9342TIP3    H249442   4.509   4.514  14.933 -1.1175 -1.4186  0.3205
 9343TIP3   OH249443   1.782   6.243  14.146  0.2212 -0.0617 -0.1065
 9343TIP3    H149444   1.853   6.205  14.197 -0.3978  0.1727  0.9459
 9343TIP3    H249445   1.825   6.287  14.073  1.1721  0.3923  0.7272
 9344TIP3   OH249446   2.116   3.644  11.595 -0.1355  0.3489  0.7192
 9344TIP3    H149447   2.117   3.559  11.552  2.0539  0.8823 -0.3635
 9344TIP3    H249448   2.071   3.629  11.678  1.4540 -2.2153  1.1773
 9345TIP3   OH249449   0.320   5.212  11.598  0.5921  0.0507  0.1867
 9345TIP3    H149450   0.338   5.276  11.529 -1.5050  0.4737  0.0027
 9345TIP3    H249451   0.400   5.159  11.603  1.9548  1.9917 -0.3833
 9346TIP3   OH249452   3.422   1.378  13.682  0.3191  0.0173 -0.2516
 9346TIP3    H149453   3.450   1.318  13.751  2.3976  2.3796  1.0720
 9346TIP3    H249454   3.425   1.327  13.602 -2.2856 -2.8355  1.3864
 9347TIP3   OH249455   6.431   6.382  16.350 -0.3535 -0.3049 -0.5108
 9347TIP3    H149456   6.473   6.406  16.267  0.6396 -0.3963 -0.0486
 9347TIP3    H249457   6.488   6.419  16.417 -0.2482 -1.6411  0.1666
 9348TIP3   OH249458   4.302   2.776  12.482  0.4491  0.3115 -0.3534
 9348TIP3    H149459   4.395   2.754  12.492 -0.2519 -2.0212  1.5933
 9348TIP3    H249460   4.271   2.789  12.572 -1.2759  0.3228 -0.9391
 9349TIP3   OH249461   0.281   4.350  14.684 -0.2439  0.5732 -0.5983
 9349TIP3    H149462   0.215   4.354  14.614 -1.1789 -0.6824  0.1920
 9349TIP3    H249463   0.250   4.412  14.750 -1.6234 -1.2854  0.5704
 9350TIP3   OH249464   6.117   3.226  16.257  0.3834  0.7497  0.4305
 9350TIP3    H149465   6.141   3.167  16.186  1.8590  1.0153  0.6873
 9350TIP3    H249466   6.113   3.169  16.334 -1.9552  0.3259  0.0360
 9351TIP3   OH249467   1.585   2.602  11.456 -0.2821 -0.0712  0.2531
 9351TIP3    H149468   1.618   2.665  11.392  0.4602 -0.7602 -0.0598
 9351TIP3    H249469   1.556   2.655  11.530  1.4168  0.5588  0.4737
 9352TIP3   OH249470   4.631   2.733  13.037 -0.5610 -1.0638 -0.4179
 9352TIP3    H149471   4.647   2.730  12.942 -1.2841 -0.8401 -0.5462
 9352TIP3    H249472   4.695   2.797  13.070  0.1441 -1.6375 -0.6572
 9353TIP3   OH249473   2.336   1.876   1.763 -0.5339  0.1517 -0.7446
 9353TIP3    H149474   2.243   1.854   1.763 -0.0754 -1.9529  0.5442
 9353TIP3    H249475   2.375   1.812   1.823  1.5966  1.6223 -0.5221
 9354TIP3   OH249476   2.170   1.566   2.032  0.5798 -0.3778  0.8037
 9354TIP3    H149477   2.248   1.548   2.084  1.3011  2.7591  0.9162
 9354TIP3    H249478   2.171   1.661   2.019 -2.4840 -0.4445 -0.3802
 9355TIP3   OH249479   4.103   4.495  15.247  0.0081  0.0444  0.2554
 9355TIP3    H149480   4.090   4.588  15.261 -0.1714 -0.0327  0.6169
 9355TIP3    H249481   4.030   4.469  15.190  1.2133  0.5214 -1.5354
 9356TIP3   OH249482   5.867   2.237   0.302  0.3455  0.1695 -0.2858
 9356TIP3    H149483   5.870   2.145   0.276 -1.4981  0.1446 -0.4720
 9356TIP3    H249484   5.947   2.250   0.354  0.9558 -1.3491 -0.8137
 9357TIP3   OH249485   0.984   5.522  12.024  0.2163  0.2321  0.5265
 9357TIP3    H149486   0.950   5.513  12.113 -1.5237 -0.3409 -0.1746
 9357TIP3    H249487   1.051   5.590  12.031  0.1268  0.1651  2.2755
 9358TIP3   OH249488   1.617   3.478   0.385  0.2992  0.3466  0.4583
 9358TIP3    H149489   1.566   3.539   0.438  0.1877 -0.0556  0.8107
 9358TIP3    H249490   1.626   3.522   0.300 -0.4452  0.5215  0.4640
 9359TIP3   OH249491   5.081   4.165  11.271 -0.4229 -0.3342  0.2190
 9359TIP3    H149492   5.121   4.244  11.306  1.6637 -0.5279 -1.6217
 9359TIP3    H249493   5.026   4.132  11.343 -0.4140  2.1087  1.4081
 9360TIP3   OH249494   6.501   1.614   4.605 -0.1500 -0.1835 -0.2039
 9360TIP3    H149495   6.477   1.690   4.657 -0.7204 -0.6309  0.1935
 9360TIP3    H249496   6.551   1.650   4.531 -1.1845  0.6598 -0.5064
 9361TIP3   OH249497   2.018   5.496   2.931 -0.2204 -0.0488 -0.1932
 9361TIP3    H149498   2.004   5.457   2.845 -0.1609 -0.2051 -0.1336
 9361TIP3    H249499   1.975   5.436   2.992 -0.4256  0.1584 -0.1295
 9362TIP3   OH249500   6.090   1.507   3.156 -0.2592  0.5159 -0.2738
 9362TIP3    H149501   6.032   1.431   3.152  2.1723 -1.4755  1.1546
 9362TIP3    H249502   6.081   1.540   3.245  1.5728 -0.4640  0.2957
 9363TIP3   OH249503   0.126   6.069  13.819  0.1349 -0.1693  0.0895
 9363TIP3    H149504   0.070   5.991  13.814  1.2327 -0.8483 -3.9138
 9363TIP3    H249505   0.065   6.142  13.828 -1.2531 -1.1569 -1.0160
 9364TIP3   OH249506   0.677   2.513   0.530  0.7346 -0.0428  0.0580
 9364TIP3    H149507   0.772   2.518   0.540  0.6092  0.7732  0.9371
 9364TIP3    H249508   0.643   2.507   0.619 -0.1657  2.4949 -0.0603
 9365TIP3   OH249509   5.647   3.544   6.235 -0.4019 -0.3677 -1.0430
 9365TIP3    H149510   5.627   3.591   6.316  1.7452 -2.2919  0.6658
 9365TIP3    H249511   5.723   3.590   6.199  1.2673 -2.0023  0.2721
 9366TIP3   OH249512   2.168   6.625  15.880 -0.1365  0.2330  0.2128
 9366TIP3    H149513   2.235   6.675  15.927 -0.7293  0.6825  0.5814
 9366TIP3    H249514   2.094   6.623  15.940 -0.9476  0.9202 -0.7573
 9367TIP3   OH249515   5.557   1.319  16.131 -0.4017  1.2152  0.1427
 9367TIP3    H149516   5.582   1.410  16.146  1.6515  0.4751  1.3817
 9367TIP3    H249517   5.468   1.324  16.095  0.3304  3.7876 -1.4429
 9368TIP3   OH249518   4.214   0.597   2.152  0.3147  0.2837 -0.0369
 9368TIP3    H149519   4.277   0.526   2.135 -1.0539 -0.6399 -1.3442
 9368TIP3    H249520   4.217   0.651   2.073 -2.5506 -1.3227 -1.2946
 9369TIP3   OH249521   1.177   5.117  17.110  0.2709  1.0036  0.3650
 9369TIP3    H149522   1.241   5.105  17.040 -1.3389  0.6195 -1.0605
 9369TIP3    H249523   1.210   5.191  17.160  1.2934  1.4692 -0.9719
 9370TIP3   OH249524   0.501   4.572   1.488 -0.3723 -0.5169 -0.0880
 9370TIP3    H149525   0.535   4.496   1.441  1.3660 -0.2748  0.7553
 9370TIP3    H249526   0.489   4.543   1.578 -0.2692  0.0437  0.1117
 9371TIP3   OH249527   0.934   5.951   4.790  0.7077  0.0889 -0.2973
 9371TIP3    H149528   0.906   5.981   4.877 -0.4360  2.5448 -1.4765
 9371TIP3    H249529   1.007   6.009   4.768 -1.7960  2.3875 -2.7930
 9372TIP3   OH249530   6.373   3.679   2.457  0.1550  0.7731 -0.0486
 9372TIP3    H149531   6.385   3.585   2.441  2.6145  0.8817  1.0043
 9372TIP3    H249532   6.286   3.684   2.498  0.9625 -1.3302  2.0450
 9373TIP3   OH249533   3.375   1.558   2.283 -0.5613  0.6220 -0.3152
 9373TIP3    H149534   3.398   1.518   2.200  3.0008  3.0946 -0.6492
 9373TIP3    H249535   3.282   1.538   2.295  0.2580 -4.8096 -1.9340
 9374TIP3   OH249536   0.904   5.090   2.293  0.2546  0.2851 -0.3661
 9374TIP3    H149537   0.818   5.064   2.260  0.5952 -0.6435 -0.5365
 9374TIP3    H249538   0.886   5.159   2.357 -0.6906 -0.5771  0.3040
 9375TIP3   OH249539   5.777   1.804   1.795 -0.0260 -0.0912 -0.5144
 9375TIP3    H149540   5.777   1.709   1.786 -1.1913 -0.3342  1.7890
 9375TIP3    H249541   5.686   1.830   1.781  0.0198  0.5430  0.3558
 9376TIP3   OH249542   0.386   0.775  15.627 -0.3089  0.2500 -0.0354
 9376TIP3    H149543   0.382   0.685  15.592  0.8580 -0.3288  1.2876
 9376TIP3    H249544   0.340   0.828  15.561 -0.4036 -1.2054 -1.1732
 9377TIP3   OH249545   6.111   4.141   2.125 -0.0442 -0.3572 -0.0491
 9377TIP3    H149546   6.119   4.073   2.191  1.0746 -0.5039 -0.3233
 9377TIP3    H249547   6.164   4.214   2.159 -0.8457  0.1939  0.0216
 9378TIP3   OH249548   3.620   4.883  15.959 -0.2187 -0.0943  0.2220
 9378TIP3    H149549   3.694   4.827  15.936  0.6253  0.8661  0.5638
 9378TIP3    H249550   3.543   4.828  15.943  0.6093 -1.5231  1.0529
 9379TIP3   OH249551   6.762   4.605   3.416 -0.1402  0.3728 -0.0853
 9379TIP3    H149552   6.816   4.631   3.341  0.4322  0.6624  0.4158
 9379TIP3    H249553   6.821   4.615   3.492 -0.5805 -0.3163  0.3513
 9380TIP3   OH249554   1.457   5.096   3.032  0.5122 -0.0795  0.6142
 9380TIP3    H149555   1.484   5.188   3.025  0.4997 -0.1352 -0.2810
 9380TIP3    H249556   1.485   5.057   2.950  0.2028 -0.7963  0.8483
 9381TIP3   OH249557   5.601   3.854  15.589  0.2545 -0.3845 -0.3603
 9381TIP3    H149558   5.696   3.862  15.594  0.1988 -0.4703  1.2245
 9381TIP3    H249559   5.583   3.762  15.609 -0.2516  0.0108  1.0642
 9382TIP3   OH249560   6.544   0.271   3.868  0.2191  0.1689 -0.6583
 9382TIP3    H149561   6.554   0.177   3.851 -0.1738  0.5031 -2.8887
 9382TIP3    H249562   6.572   0.282   3.958  0.6277 -2.0451 -0.4870
 9383TIP3   OH249563   5.368   4.366   5.857 -0.0683 -0.2101 -0.4482
 9383TIP3    H149564   5.311   4.372   5.934  0.7575 -0.2879  0.1768
 9383TIP3    H249565   5.450   4.330   5.891 -0.4554 -2.4131 -1.7685
 9384TIP3   OH249566   6.477   3.855  14.919 -0.5343 -0.3230  0.0591
 9384TIP3    H149567   6.545   3.787  14.919 -0.5196 -0.3233 -1.3852
 9384TIP3    H249568   6.433   3.845  15.004  2.3837  0.8356  1.8080
 9385TIP3   OH249569   3.736   0.236   3.255  0.7212 -0.3130 -0.1368
 9385TIP3    H149570   3.717   0.208   3.165 -0.1665 -2.1694  0.6071
 9385TIP3    H249571   3.820   0.196   3.276 -0.8532 -3.0609  1.1538
 9386TIP3   OH249572   1.420   2.107  11.565 -0.1078  0.1018 -0.0791
 9386TIP3    H149573   1.512   2.092  11.585  0.3228  2.3321 -0.2434
 9386TIP3    H249574   1.395   2.034  11.507  1.6242 -0.3249 -0.2981
 9387TIP3   OH249575   2.805   6.690  14.098 -0.8274  0.3275 -0.1123
 9387TIP3    H149576   2.872   6.655  14.156  1.7761  1.1695 -2.5380
 9387TIP3    H249577   2.789   6.621  14.034 -1.1017  0.7521 -0.5066
 9388TIP3   OH249578   3.629   1.305   3.520 -0.0170 -0.7227  0.2251
 9388TIP3    H149579   3.708   1.320   3.573  1.3130  0.1951 -1.9654
 9388TIP3    H249580   3.661   1.274   3.436 -2.0830 -1.6343 -0.2580
 9389TIP3   OH249581   0.753   3.101  13.473 -0.5654  0.1242  0.0247
 9389TIP3    H149582   0.842   3.135  13.481 -0.7432  0.8665 -1.0588
 9389TIP3    H249583   0.736   3.058  13.556  0.4994  0.7202  0.5559
 9390TIP3   OH249584   4.019   2.778   2.562 -0.1554  0.0595 -0.8740
 9390TIP3    H149585   3.949   2.837   2.534  1.1670  2.5281  0.8524
 9390TIP3    H249586   4.074   2.767   2.485 -1.3110 -0.3026 -1.6701
 9391TIP3   OH249587   0.224   4.178  16.297 -0.4773  0.1352 -0.5017
 9391TIP3    H149588   0.138   4.217  16.282 -1.2054 -0.9047  0.8485
 9391TIP3    H249589   0.276   4.248  16.336 -0.4753  0.9739 -1.9652
 9392TIP3   OH249590   4.586   2.652   0.148  0.2124 -0.0063 -0.0561
 9392TIP3    H149591   4.593   2.675   0.056  0.4095 -0.1550 -0.0784
 9392TIP3    H249592   4.534   2.723   0.186  0.6237  0.3612 -0.1672
 9393TIP3   OH249593   5.322   2.187   2.077 -0.8861  0.1083 -0.0290
 9393TIP3    H149594   5.236   2.190   2.035 -0.6471 -0.5076 -0.5835
 9393TIP3    H249595   5.382   2.227   2.014 -0.6616 -0.0646  0.0703
 9394TIP3   OH249596   0.940   1.449  15.914 -0.0236  0.0722 -0.3859
 9394TIP3    H149597   0.861   1.448  15.969 -0.5288  1.0700 -1.0699
 9394TIP3    H249598   0.950   1.541  15.890  0.4269 -0.3041 -1.6277
 9395TIP3   OH249599   6.125   0.155  13.352  0.0659 -0.0882 -0.2261
 9395TIP3    H149600   6.101   0.085  13.291  2.8545  0.5252 -2.1244
 9395TIP3    H249601   6.196   0.201  13.308  0.2136  2.1670  2.2756
 9396TIP3   OH249602   3.931   1.949   3.645 -0.3444 -0.1863  0.1241
 9396TIP3    H149603   3.862   1.883   3.643  1.4151 -2.0771 -1.6358
 9396TIP3    H249604   3.952   1.964   3.553  2.5998 -0.8250  0.6335
 9397TIP3   OH249605   3.803   2.551   2.297 -0.7008 -0.3034 -0.6458
 9397TIP3    H149606   3.847   2.525   2.378 -1.6381  0.8598  0.2592
 9397TIP3    H249607   3.727   2.493   2.292  0.3124 -1.5719 -1.6357
 9398TIP3   OH249608   3.811   5.132  13.129  0.2650  0.4377  0.6414
 9398TIP3    H149609   3.764   5.130  13.213 -0.9016  0.0797 -0.0117
 9398TIP3    H249610   3.750   5.092  13.067  1.3698  0.1417 -0.2573
 9399TIP3   OH249611   3.123   2.127  13.713  0.1259  0.3182 -0.4552
 9399TIP3    H149612   3.188   2.149  13.779  0.0644 -0.8940  0.0244
 9399TIP3    H249613   3.058   2.198  13.720  0.8563  0.9764 -0.2285
 9400TIP3   OH249614   1.875   3.946  14.061 -0.7322  0.1688 -0.4009
 9400TIP3    H149615   1.908   3.906  14.142 -0.9887 -0.6072 -0.6646
 9400TIP3    H249616   1.918   3.897  13.991 -1.8728 -0.3670 -0.7415
 9401TIP3   OH249617   4.118   1.733  15.613  0.4168  0.4383 -0.2266
 9401TIP3    H149618   4.200   1.738  15.565 -0.0289 -0.2006 -1.0805
 9401TIP3    H249619   4.090   1.641  15.603 -0.9330  0.9048 -0.8857
 9402TIP3   OH249620   6.679   4.961  11.790  0.1519 -1.0248  0.4501
 9402TIP3    H149621   6.667   5.041  11.841 -0.0171  0.0308 -1.1935
 9402TIP3    H249622   6.774   4.955  11.776 -0.0015  0.1809 -1.3672
 9403TIP3   OH249623   2.069   2.842  14.711 -0.1498 -0.0928 -0.0789
 9403TIP3    H149624   2.156   2.847  14.751 -0.5471  0.2527  0.7411
 9403TIP3    H249625   2.043   2.934  14.699 -0.2005 -0.1923 -0.7744
 9404TIP3   OH249626   1.301   1.275   4.658 -0.3204  0.4982  0.4161
 9404TIP3    H149627   1.317   1.368   4.643  0.5132  0.3469  0.3682
 9404TIP3    H249628   1.339   1.231   4.582 -1.6000  0.1877 -0.0619
 9405TIP3   OH249629   0.472   6.619  15.272  0.4260 -0.4338 -0.2837
 9405TIP3    H149630   0.551   6.574  15.241 -0.4820 -0.2394 -3.0062
 9405TIP3    H249631   0.487   6.711  15.252  0.5144 -0.0576  1.4429
 9406TIP3   OH249632   3.341   4.568  11.709 -0.2065  0.4729 -0.6441
 9406TIP3    H149633   3.336   4.561  11.614 -0.2793  0.3290 -0.6302
 9406TIP3    H249634   3.288   4.495  11.742  0.4773  0.0318 -0.4933
 9407TIP3   OH249635   4.356   0.738   1.317 -0.3258  0.1266  0.1019
 9407TIP3    H149636   4.389   0.709   1.402  0.0562  2.9456  0.9855
 9407TIP3    H249637   4.261   0.728   1.323 -0.3344  0.6909  1.0280
 9408TIP3   OH249638   3.284   2.354   2.871 -0.0545 -1.3687  0.6783
 9408TIP3    H149639   3.369   2.346   2.914  0.6681 -0.9001 -0.6148
 9408TIP3    H249640   3.248   2.437   2.902  0.9689 -0.4785 -0.4493
 9409TIP3   OH249641   0.776   4.112  12.881 -0.3713 -0.0803 -0.2010
 9409TIP3    H149642   0.777   4.018  12.864 -0.6700  0.1040 -1.2644
 9409TIP3    H249643   0.693   4.142  12.844  0.9067  1.0283 -2.2225
 9410TIP3   OH249644   3.248   4.268  16.003 -0.4892  0.5748  0.6577
 9410TIP3    H149645   3.159   4.298  16.020 -0.1568  1.9663  0.0058
 9410TIP3    H249646   3.299   4.302  16.076 -0.2013  1.1937  0.1730
 9411TIP3   OH249647   3.646   0.656   2.613  0.2275 -0.1177 -0.3473
 9411TIP3    H149648   3.664   0.571   2.654  1.1237  0.1283 -0.2093
 9411TIP3    H249649   3.669   0.644   2.521 -2.5705 -0.9083 -0.9643
 9412TIP3   OH249650   5.235   5.471   2.248 -0.3568 -0.1451  0.3672
 9412TIP3    H149651   5.192   5.462   2.333  1.8433 -3.3939  1.2280
 9412TIP3    H249652   5.182   5.418   2.189 -0.9425  0.7595  0.0778
 9413TIP3   OH249653   4.206   0.894   0.803 -0.5595 -0.1594  0.3304
 9413TIP3    H149654   4.187   0.987   0.814 -1.0971 -0.1390 -0.6675
 9413TIP3    H249655   4.224   0.884   0.709  0.7856 -0.8388  0.6456
 9414TIP3   OH249656   3.985   4.760  15.258  0.2407 -0.2757  0.1101
 9414TIP3    H149657   4.019   4.798  15.177  0.3215 -0.6653 -0.0410
 9414TIP3    H249658   3.979   4.834  15.319 -0.9607  0.2457 -0.6257
 9415TIP3   OH249659   3.021   6.450   6.257 -1.0006  0.3481  0.3467
 9415TIP3    H149660   3.012   6.355   6.251 -0.4714  0.3723 -0.7331
 9415TIP3    H249661   3.018   6.468   6.351 -0.0399 -0.8352  0.6062
 9416TIP3   OH249662   5.184   2.513  11.863  0.1193  0.0779  0.2474
 9416TIP3    H149663   5.243   2.471  11.800 -0.6706 -0.1540 -0.3485
 9416TIP3    H249664   5.174   2.448  11.933  0.8427  0.2548  0.5130
 9417TIP3   OH249665   0.895   5.968  14.058  0.0458  0.1713  1.0451
 9417TIP3    H149666   0.863   5.943  14.144 -1.7634 -1.1678  0.0161
 9417TIP3    H249667   0.877   5.893  14.002 -0.2593  1.5983 -0.8489
 9418TIP3   OH249668   0.711   4.651   0.389 -0.2599  0.2158 -0.0935
 9418TIP3    H149669   0.721   4.556   0.392 -0.8340  0.1155 -1.1603
 9418TIP3    H249670   0.704   4.672   0.296 -1.4405  1.1540  0.1875
 9419TIP3   OH249671   3.251   2.851  16.974 -0.5040 -0.0788 -0.0779
 9419TIP3    H149672   3.240   2.756  16.968 -0.0143 -0.0918 -0.7384
 9419TIP3    H249673   3.337   2.869  16.936 -0.0842  0.5117  1.0967
 9420TIP3   OH249674   1.105   6.731  16.572  0.0087 -0.4574 -0.1746
 9420TIP3    H149675   1.066   6.701  16.490 -1.2052  1.7398 -0.4296
 9420TIP3    H249676   1.078   6.665  16.636 -1.5901 -0.6104 -0.9603
 9421TIP3   OH249677   1.645   5.942  14.873 -0.3337 -0.2100  0.2065
 9421TIP3    H149678   1.654   5.887  14.950 -0.6775 -1.1119 -0.3844
 9421TIP3    H249679   1.648   5.881  14.799  0.8738  0.7289 -0.5426
 9422TIP3   OH249680   4.749   2.989  15.123 -0.4480 -0.4077  0.4991
 9422TIP3    H149681   4.752   2.943  15.207 -2.0845  2.5740  2.2381
 9422TIP3    H249682   4.660   3.024  15.118 -0.5443 -0.9831 -2.7554
 9423TIP3   OH249683   0.115   6.056   1.335  0.0383 -0.1194 -0.0850
 9423TIP3    H149684   0.149   6.145   1.341  0.7621 -0.2307 -2.0445
 9423TIP3    H249685   0.074   6.040   1.420  0.5320  1.8132  0.5474
 9424TIP3   OH249686   0.618   3.209  12.990  0.1817 -0.2103  0.4264
 9424TIP3    H149687   0.605   3.238  13.080 -3.7036  0.1472 -0.1895
 9424TIP3    H249688   0.636   3.115  12.998 -0.2758 -0.2144  1.5485
 9425TIP3   OH249689   2.000   4.459   1.882 -0.7515 -0.1192  0.2756
 9425TIP3    H149690   1.915   4.500   1.874  0.1853  1.6375 -0.9693
 9425TIP3    H249691   2.037   4.462   1.794  0.8966 -0.2100  0.9409
 9426TIP3   OH249692   2.035   0.873   1.217  0.8216 -0.3847  0.0949
 9426TIP3    H149693   1.983   0.801   1.253  0.5902 -0.6774 -0.8051
 9426TIP3    H249694   2.006   0.880   1.126  1.0444  0.6621  0.0938
 9427TIP3   OH249695   3.426   6.242  14.920 -0.1008  0.2656  0.3452
 9427TIP3    H149696   3.355   6.197  14.876  0.9169 -0.2168 -0.8481
 9427TIP3    H249697   3.503   6.227  14.864  1.5663 -1.5828  3.0015
 9428TIP3   OH249698   0.484   5.163  15.300 -0.5177  0.4204  0.3631
 9428TIP3    H149699   0.476   5.070  15.279  0.3033  0.1302  1.2816
 9428TIP3    H249700   0.562   5.168  15.355 -0.3840  1.6985  0.0702
 9429TIP3   OH249701   6.405   2.140   5.058 -1.1466  0.4959 -0.4384
 9429TIP3    H149702   6.317   2.151   5.023 -0.5091  0.1939 -2.1950
 9429TIP3    H249703   6.463   2.171   4.988  0.1802 -0.2516  0.2963
 9430TIP3   OH249704   4.610   4.544  13.966  0.1619 -0.2407  0.1378
 9430TIP3    H149705   4.516   4.562  13.959  0.0149 -1.1485 -0.3548
 9430TIP3    H249706   4.636   4.582  14.050 -0.6507  0.0082  0.2769
 9431TIP3   OH249707   6.418   5.338   5.526 -0.2404 -0.2207 -0.7136
 9431TIP3    H149708   6.477   5.404   5.489  0.5942 -0.6326 -0.1447
 9431TIP3    H249709   6.348   5.329   5.462 -1.2468  2.4149 -0.0513
 9432TIP3   OH249710   4.514   1.950  14.731  0.4434  0.3360 -0.2598
 9432TIP3    H149711   4.487   2.031  14.775  0.5183  0.1502  0.1304
 9432TIP3    H249712   4.606   1.940  14.753  1.0539  1.3916 -2.2545
 9433TIP3   OH249713   3.331   0.005   1.015  0.1071  0.3389 -0.1449
 9433TIP3    H149714   3.347   0.079   0.957 -3.3727 -1.0979 -3.1308
 9433TIP3    H249715   3.401  -0.058   0.994  3.0286  2.5730  2.3575
 9434TIP3   OH249716   2.708   5.015   1.063 -0.2566  0.0643 -0.2637
 9434TIP3    H149717   2.799   5.035   1.087 -0.2754 -0.6533  0.4048
 9434TIP3    H249718   2.695   5.059   0.979  0.3755  1.0811  0.1660
 9435TIP3   OH249719   6.588   0.889  14.083  0.3469 -0.0270 -0.4582
 9435TIP3    H149720   6.509   0.850  14.046  0.6220  0.1248 -1.2011
 9435TIP3    H249721   6.656   0.873  14.018  0.2120  2.6961 -1.3487
 9436TIP3   OH249722   4.309   1.921  14.246 -0.4142  0.1494  0.3604
 9436TIP3    H149723   4.366   1.893  14.318 -0.5385 -0.7055  0.1286
 9436TIP3    H249724   4.365   1.917  14.168 -0.2384  1.2188  0.4264
 9437TIP3   OH249725   4.402   4.856   4.178 -0.4458 -0.7001  0.3680
 9437TIP3    H149726   4.383   4.924   4.114  0.2932 -1.3794 -0.5844
 9437TIP3    H249727   4.421   4.903   4.259  0.2808  0.2377 -0.3347
 9438TIP3   OH249728   5.258   0.319   4.706 -0.0788 -0.5445 -0.4613
 9438TIP3    H149729   5.271   0.409   4.675  0.9505 -0.0422  1.3475
 9438TIP3    H249730   5.172   0.321   4.749  0.4116 -0.1726  0.4925
 9439TIP3   OH249731   5.913   2.045  13.551 -1.2797 -0.3036  0.0216
 9439TIP3    H149732   5.963   1.974  13.512 -0.3911  0.2486  0.1416
 9439TIP3    H249733   5.855   2.075  13.481 -0.4034  0.0202 -0.5686
 9440TIP3   OH249734   2.227   6.284   0.661  0.2245  0.0853 -0.0449
 9440TIP3    H149735   2.196   6.345   0.594  0.2934 -0.5086 -0.6124
 9440TIP3    H249736   2.267   6.341   0.727 -0.6653  0.7449 -0.0531
 9441TIP3   OH249737   1.544   2.230  14.586  0.4292  0.1853 -0.2541
 9441TIP3    H149738   1.601   2.202  14.515  0.8584 -0.3837  0.3121
 9441TIP3    H249739   1.463   2.182  14.572  1.1118 -1.2591  0.6271
 9442TIP3   OH249740   5.492   6.328   6.570 -0.0829  0.0091 -0.2575
 9442TIP3    H149741   5.504   6.335   6.476  0.1384  1.2905 -0.1511
 9442TIP3    H249742   5.418   6.386   6.589 -0.1792 -0.3025  0.3434
 9443TIP3   OH249743   2.012   3.639  16.577  0.7093  0.6294  0.2733
 9443TIP3    H149744   2.008   3.552  16.537 -0.8717 -0.0469  1.7845
 9443TIP3    H249745   2.035   3.622  16.668 -1.6209  1.5825  1.0946
 9444TIP3   OH249746   6.622   4.490  15.208  0.8946  0.0594 -0.1501
 9444TIP3    H149747   6.562   4.540  15.264  2.3621  0.4708  1.0959
 9444TIP3    H249748   6.697   4.548  15.196  2.3490 -1.5761  0.7847
 9445TIP3   OH249749   6.682   4.098  15.322 -0.1170  0.2669 -0.3836
 9445TIP3    H149750   6.772   4.105  15.353  0.0142 -0.9341 -0.4968
 9445TIP3    H249751   6.630   4.079  15.400  0.0120 -1.1793 -0.6368
 9446TIP3   OH249752   4.137   0.637  14.869  0.4882 -0.2367  0.1183
 9446TIP3    H149753   4.232   0.629  14.873  0.7010  1.9125 -0.2151
 9446TIP3    H249754   4.116   0.705  14.932 -0.6417  0.6157 -1.1490
 9447TIP3   OH249755   4.839   0.895   0.681  0.3607 -0.4915 -0.4677
 9447TIP3    H149756   4.755   0.850   0.668  0.4443 -0.5554 -0.7867
 9447TIP3    H249757   4.837   0.968   0.619  0.6160 -0.6004 -0.6068
 9448TIP3   OH249758   6.539   3.491  13.718 -0.3834 -0.3333  0.3778
 9448TIP3    H149759   6.485   3.566  13.744 -1.6889 -1.5897  1.4358
 9448TIP3    H249760   6.627   3.515  13.744 -0.5279  1.4650 -0.7031
 9449TIP3   OH249761   0.070   5.547  11.522  0.4906  0.1642 -0.1684
 9449TIP3    H149762   0.116   5.489  11.461 -1.3048  0.1639 -1.5705
 9449TIP3    H249763   0.103   5.522  11.608  1.0361 -1.7776 -0.9063
 9450TIP3   OH249764   3.409   4.607   1.762 -0.0336 -0.0790 -0.1811
 9450TIP3    H149765   3.480   4.659   1.799  0.3683 -0.5714 -0.2519
 9450TIP3    H249766   3.355   4.584   1.837 -0.1633  0.3566 -0.1362
 9451TIP3   OH249767   6.216   0.087  12.914  0.2226 -0.2386 -0.0105
 9451TIP3    H149768   6.175   0.173  12.922 -0.6944 -0.7601  0.9104
 9451TIP3    H249769   6.212   0.068  12.820 -3.2643 -1.0372  0.2259
 9452TIP3   OH249770   0.002   3.535   1.148 -0.3221 -0.0575 -0.0479
 9452TIP3    H149771  -0.069   3.491   1.101  0.6960 -0.1405 -1.5170
 9452TIP3    H249772   0.067   3.467   1.163  0.3997  0.5052 -0.6032
 9453TIP3   OH249773   4.787   3.600  12.361  0.0049  0.2910 -0.3291
 9453TIP3    H149774   4.859   3.650  12.323 -0.6950  1.4756 -0.1117
 9453TIP3    H249775   4.711   3.656  12.350 -0.1836  0.7479  3.0565
 9454TIP3   OH249776   3.872   5.141  12.633  0.0626 -0.3795  0.5061
 9454TIP3    H149777   3.904   5.077  12.570 -0.6382 -0.0690 -0.1764
 9454TIP3    H249778   3.949   5.192  12.657  0.1052  0.3749 -1.1386
 9455TIP3   OH249779   6.266   4.441  10.782  0.0051 -0.4010  0.2996
 9455TIP3    H149780   6.296   4.491  10.706 -1.7386  0.2689  0.0286
 9455TIP3    H249781   6.213   4.371  10.746 -0.6897 -0.1863  0.8911
 9456TIP3   OH249782   5.664   1.942  12.621  0.1054 -0.1867 -0.5451
 9456TIP3    H149783   5.732   1.899  12.672 -0.6498  0.2694  0.8621
 9456TIP3    H249784   5.590   1.881  12.623  0.3614 -0.5464 -1.8116
 9457TIP3   OH249785   1.936   2.285  15.230  0.1015 -0.0017  0.3092
 9457TIP3    H149786   1.900   2.369  15.259 -1.1407 -0.5509  0.3957
 9457TIP3    H249787   1.899   2.221  15.292 -0.3929 -0.8363 -0.8383
 9458TIP3   OH249788   6.447   3.826  15.221  0.2216 -0.1828  0.4031
 9458TIP3    H149789   6.524   3.824  15.279 -0.1988  0.0311  0.9784
 9458TIP3    H249790   6.433   3.735  15.196 -0.0524 -0.3781  1.2569
 9459TIP3   OH249791   2.652   1.416  15.314 -0.4723 -0.5430  0.0126
 9459TIP3    H149792   2.744   1.414  15.339 -0.2005 -1.8355 -1.0429
 9459TIP3    H249793   2.651   1.462  15.230 -0.7802 -0.6542 -0.0451
 9460TIP3   OH249794   5.589   3.918  12.013 -0.1246 -0.1167  0.3288
 9460TIP3    H149795   5.502   3.887  12.038  0.1247 -1.0815  0.0368
 9460TIP3    H249796   5.632   3.938  12.096 -0.3547 -0.3948  0.5190
 9461TIP3   OH249797   3.861   5.601  13.016 -0.1246 -0.3209  0.4414
 9461TIP3    H149798   3.808   5.522  13.007 -0.8651  0.1595  0.6202
 9461TIP3    H249799   3.818   5.652  13.084 -0.3603  0.8112 -0.5376
 9462TIP3   OH249800   0.493   0.200   6.703  0.5353  0.1432  0.5883
 9462TIP3    H149801   0.518   0.283   6.744  1.5689 -0.2958  0.8439
 9462TIP3    H249802   0.406   0.218   6.666  1.6168  1.9642 -1.1711
 9463TIP3   OH249803   6.160   5.893  12.612  0.1567  0.0259  0.2406
 9463TIP3    H149804   6.064   5.887  12.618  0.2307  0.9657  2.9504
 9463TIP3    H249805   6.175   5.961  12.547 -1.0746  1.5599  1.5026
 9464TIP3   OH249806   1.107   0.513  12.976  0.4473 -0.1576  0.3555
 9464TIP3    H149807   1.086   0.575  12.907 -0.5719 -0.2700  0.5581
 9464TIP3    H249808   1.140   0.567  13.048  1.1668 -0.0098 -0.0843
 9465TIP3   OH249809   2.673   3.142  13.994 -0.2700 -0.3424 -0.0812
 9465TIP3    H149810   2.714   3.056  13.983  0.5387  0.0361 -0.0495
 9465TIP3    H249811   2.608   3.146  13.924 -0.3052 -0.9781 -0.0861
 9466TIP3   OH249812   2.621   1.284  12.190 -0.5009 -0.1494 -0.3829
 9466TIP3    H149813   2.584   1.285  12.103 -0.4101  1.2795 -0.4244
 9466TIP3    H249814   2.625   1.376  12.215  0.9448 -0.4314  0.4910
 9467TIP3   OH249815   5.515   6.732   6.560 -0.5013 -0.1814  0.4486
 9467TIP3    H149816   5.444   6.778   6.513  1.0548  1.8462  0.0091
 9467TIP3    H249817   5.530   6.785   6.638  1.5174  0.2312 -0.1993
 9468TIP3   OH249818   4.443   3.190   6.283  0.0427 -0.2762  0.4440
 9468TIP3    H149819   4.509   3.259   6.278  0.5830 -0.8405 -0.3666
 9468TIP3    H249820   4.368   3.231   6.325  0.2079  0.9383 -0.4348
 9469TIP3   OH249821   2.133   6.290  15.241  0.0177  0.3911  0.2579
 9469TIP3    H149822   2.228   6.280  15.244  0.3889  3.1765 -0.6048
 9469TIP3    H249823   2.106   6.242  15.163  0.7209 -0.2928  0.4284
 9470TIP3   OH249824   1.184   4.381   2.731 -0.1294 -0.6956  0.2760
 9470TIP3    H149825   1.195   4.387   2.636  0.5303 -2.2239  0.2405
 9470TIP3    H249826   1.245   4.446   2.766  1.0540 -1.4846 -0.2921
 9471TIP3   OH249827   0.723   3.114   1.961 -0.2843 -0.6324 -0.1077
 9471TIP3    H149828   0.669   3.097   1.883  2.0939 -0.5878 -1.8233
 9471TIP3    H249829   0.810   3.082   1.937  0.9158  1.0201  1.8904
 9472TIP3   OH249830   2.468   5.758  15.824 -0.3663  0.1773 -0.0888
 9472TIP3    H149831   2.407   5.685  15.814 -1.2042  0.7448  0.8273
 9472TIP3    H249832   2.513   5.763  15.740  1.2052 -2.7391  0.5163
 9473TIP3   OH249833   3.137   5.314   4.993  0.2308  0.2825  0.1855
 9473TIP3    H149834   3.049   5.290   4.964  1.0009 -0.0866 -1.9190
 9473TIP3    H249835   3.163   5.386   4.936  1.5825 -0.1174  0.2750
 9474TIP3   OH249836   1.858   5.098  15.376 -0.6660  0.1812 -0.3415
 9474TIP3    H149837   1.869   5.098  15.281  1.3013  0.8253 -0.1424
 9474TIP3    H249838   1.808   5.019  15.395 -0.3189 -0.4075 -1.8268
 9475TIP3   OH249839   3.474   1.122  10.551 -1.0660 -0.5835  0.2650
 9475TIP3    H149840   3.510   1.167  10.627 -0.1226 -2.0126  0.7007
 9475TIP3    H249841   3.417   1.055  10.589  0.8788 -2.5565 -0.1684
 9476TIP3   OH249842   2.978   2.625   3.008 -0.1323  0.2011  0.6773
 9476TIP3    H149843   2.892   2.584   3.018 -0.4186  0.1248 -1.7173
 9476TIP3    H249844   3.026   2.600   3.087 -1.9913 -0.5525  1.5989
 9477TIP3   OH249845   2.514   6.444  11.129  0.3777  0.1251  0.4208
 9477TIP3    H149846   2.433   6.492  11.150  0.1040  0.7428 -1.8382
 9477TIP3    H249847   2.489   6.386  11.057  1.8410  0.0295 -0.0253
 9478TIP3   OH249848   6.276   3.562   0.397  0.2083  0.5433 -0.2497
 9478TIP3    H149849   6.354   3.509   0.380  0.0637 -0.5003  2.1097
 9478TIP3    H249850   6.285   3.638   0.339  2.6112  0.0616 -0.5477
 9479TIP3   OH249851   4.033   3.604   3.287 -0.3463  0.7502  0.5994
 9479TIP3    H149852   4.004   3.673   3.228 -0.0787  1.9470  1.8568
 9479TIP3    H249853   3.971   3.533   3.273  2.3363 -0.8405 -4.5530
 9480TIP3   OH249854   2.310   3.289  13.238  0.0704 -0.1735  0.3235
 9480TIP3    H149855   2.383   3.271  13.179 -0.9554 -0.7530 -0.7800
 9480TIP3    H249856   2.350   3.292  13.325  1.9413  2.7378 -0.5559
 9481TIP3   OH249857   0.369   0.279   2.740  0.3766 -0.4230 -0.1955
 9481TIP3    H149858   0.363   0.338   2.815 -0.2011 -0.1578 -0.4494
 9481TIP3    H249859   0.404   0.198   2.776 -1.2929 -0.7970  0.6612
 9482TIP3   OH249860   1.317   0.055  16.688  0.4362 -0.0093  0.6563
 9482TIP3    H149861   1.253   0.006  16.636  0.4420  1.0762 -0.4012
 9482TIP3    H249862   1.323   0.140  16.645  1.0580  0.6345  1.9615
 9483TIP3   OH249863   5.780   5.348   3.164 -0.1980  0.1323  0.2896
 9483TIP3    H149864   5.844   5.295   3.117 -1.7599 -0.5495 -1.0970
 9483TIP3    H249865   5.697   5.331   3.120 -1.1160  2.0350  1.2229
 9484TIP3   OH249866   5.635   2.374   2.015 -0.1308 -0.0309 -0.0874
 9484TIP3    H149867   5.656   2.455   2.062 -1.6495  0.0374  0.5088
 9484TIP3    H249868   5.700   2.370   1.945  1.1618  0.7115  1.0201
 9485TIP3   OH249869   2.052   1.804   5.142 -0.1061  0.7161 -0.5524
 9485TIP3    H149870   2.093   1.868   5.200  0.1804  1.0758 -1.1492
 9485TIP3    H249871   2.110   1.799   5.066 -0.2380 -0.0936 -0.6047
 9486TIP3   OH249872   1.326   2.015   2.855 -0.0748 -0.1974  0.3487
 9486TIP3    H149873   1.267   1.945   2.828  1.3854 -0.9662 -0.9786
 9486TIP3    H249874   1.413   1.976   2.852  0.6066  1.1818  1.3117
 9487TIP3   OH249875   6.259   0.444  12.360 -0.2021 -0.0510 -0.3833
 9487TIP3    H149876   6.189   0.400  12.408 -0.2378  0.3995 -0.0214
 9487TIP3    H249877   6.241   0.423  12.268 -1.0588  0.4112 -0.3293
 9488TIP3   OH249878   6.413   5.724   2.621 -0.2904 -1.1891 -0.0186
 9488TIP3    H149879   6.463   5.697   2.544  0.3421  2.8000 -1.0727
 9488TIP3    H249880   6.327   5.748   2.587 -0.3875 -0.5011  0.6976
 9489TIP3   OH249881   6.035   2.358  13.391  0.2025  0.2531 -0.0081
 9489TIP3    H149882   6.122   2.320  13.406 -1.4118 -3.1270  1.4300
 9489TIP3    H249883   6.026   2.361  13.295  0.9698 -1.8050 -0.1808
 9490TIP3   OH249884   3.717   2.962   2.132 -0.2294  0.3315  0.1720
 9490TIP3    H149885   3.662   2.889   2.107  0.7591 -0.7269  1.0340
 9490TIP3    H249886   3.795   2.922   2.170  0.9842  1.8072 -0.6962
 9491TIP3   OH249887   3.428   4.493   0.836  0.0374  0.4962 -0.0968
 9491TIP3    H149888   3.379   4.556   0.783 -0.6024 -0.0957 -0.2095
 9491TIP3    H249889   3.408   4.408   0.797  1.9291  0.3319 -0.7629
 9492TIP3   OH249890   6.500   5.554  13.308 -0.3925 -1.0058 -0.4259
 9492TIP3    H149891   6.508   5.471  13.356 -2.4361 -1.5714 -1.0074
 9492TIP3    H249892   6.443   5.533  13.234 -0.5220  0.8153 -0.8598
 9493TIP3   OH249893   2.682   5.113  15.248  0.6348  1.0372 -0.5147
 9493TIP3    H149894   2.768   5.100  15.288 -0.0485  1.5741  1.1589
 9493TIP3    H249895   2.691   5.196  15.200  0.7625  1.5650  0.4243
 9494TIP3   OH249896   3.508   0.726  15.694 -0.6688  0.6947  0.0884
 9494TIP3    H149897   3.489   0.718  15.787  0.4494 -2.0767  0.1419
 9494TIP3    H249898   3.445   0.667  15.652  0.4992 -0.0533 -0.6575
 9495TIP3   OH249899   3.813   5.511   0.837 -0.1313  0.4806  0.3873
 9495TIP3    H149900   3.893   5.517   0.889 -0.5361  1.6591  0.9020
 9495TIP3    H249901   3.771   5.430   0.865  2.0227 -1.3967 -1.5589
 9496TIP3   OH249902   6.631   1.651  17.124  0.4860  0.2076  0.5301
 9496TIP3    H149903   6.695   1.581  17.112 -1.4177 -1.2627 -1.6056
 9496TIP3    H249904   6.657   1.717  17.060 -0.9022 -1.0252 -1.3712
 9497TIP3   OH249905   1.429   6.672   3.482 -0.4568 -0.1140 -1.0296
 9497TIP3    H149906   1.515   6.710   3.496 -1.0167  0.1919  1.8118
 9497TIP3    H249907   1.410   6.625   3.563 -2.1666 -1.7737 -2.3374
 9498TIP3   OH249908   2.060   0.006  17.127 -0.3956  1.1308  0.0772
 9498TIP3    H149909   1.981  -0.046  17.134 -0.2151  0.6166 -1.6227
 9498TIP3    H249910   2.064   0.033  17.036  1.7791  0.5179 -0.0439
 9499TIP3   OH249911   5.676   0.499  16.570  0.6673 -0.5558 -0.7199
 9499TIP3    H149912   5.767   0.473  16.559  1.3490  1.2549  0.5763
 9499TIP3    H249913   5.651   0.465  16.656  0.4163 -0.1926 -0.6471
 9500TIP3   OH249914   5.205   2.708   0.568 -0.6853  0.3314 -0.5705
 9500TIP3    H149915   5.226   2.729   0.659 -1.5339 -2.5764  0.3437
 9500TIP3    H249916   5.112   2.728   0.560 -0.6113  0.5841 -0.8057
 9501TIP3   OH249917   0.671   6.020  12.220 -0.6839 -0.2644  0.3010
 9501TIP3    H149918   0.635   5.957  12.283 -0.2883 -0.4403  0.3590
 9501TIP3    H249919   0.595   6.055  12.174 -0.9910 -0.0055  1.0022
 9502TIP3   OH249920   1.159   2.967  12.340  0.0561  0.1860  0.0865
 9502TIP3    H149921   1.217   3.041  12.357 -0.7039  0.5592  1.0928
 9502TIP3    H249922   1.076   3.007  12.314 -0.3209 -0.3205  0.5203
 9503TIP3   OH249923   4.278   1.580   3.991  0.4700  0.2061 -0.6189
 9503TIP3    H149924   4.305   1.584   3.899 -0.1402 -2.7006 -0.9607
 9503TIP3    H249925   4.195   1.627   3.995  1.1964  1.5646 -1.2576
 9504TIP3   OH249926   4.672   4.462  17.211  0.9959  0.2347 -0.1328
 9504TIP3    H149927   4.768   4.460  17.206  0.8857 -0.7237 -2.0323
 9504TIP3    H249928   4.650   4.555  17.208  1.8764  0.4864  0.7824
 9505TIP3   OH249929   3.799   5.314  15.550  1.1487  0.0226 -0.0561
 9505TIP3    H149930   3.744   5.290  15.475  2.3231 -0.5830 -0.7470
 9505TIP3    H249931   3.819   5.407  15.537 -0.9196  0.6537  1.0058
 9506TIP3   OH249932   2.868   2.028   5.213  0.1537  0.3272  0.1710
 9506TIP3    H149933   2.958   1.999   5.199  0.1524  0.3954  0.0226
 9506TIP3    H249934   2.821   1.948   5.238  0.0167  0.0860 -0.8354
 9507TIP3   OH249935   2.878   3.622   2.062  0.6317 -0.3589 -0.5472
 9507TIP3    H149936   2.817   3.690   2.091  1.2781  0.1083 -0.2669
 9507TIP3    H249937   2.844   3.542   2.102 -0.6459 -0.3708 -1.6042
 9508TIP3   OH249938   4.384   4.190   0.841 -0.2859 -0.1708  0.0106
 9508TIP3    H149939   4.314   4.253   0.853  0.0061  0.5939 -2.1426
 9508TIP3    H249940   4.345   4.106   0.866 -2.0956  0.1732 -1.5686
 9509TIP3   OH249941   5.115   5.547  15.059 -0.0822 -0.4485 -0.5135
 9509TIP3    H149942   5.137   5.577  14.971  0.8002 -0.5784 -0.3488
 9509TIP3    H249943   5.191   5.495  15.085  1.1864  2.3971  1.6550
 9510TIP3   OH249944   3.380   3.943   2.289 -0.0505  0.1371  0.2365
 9510TIP3    H149945   3.470   3.947   2.322 -0.3556  1.9562  0.8923
 9510TIP3    H249946   3.330   3.906   2.361  0.2774 -1.6435 -0.4157
 9511TIP3   OH249947   2.022   5.451  10.864 -0.6707 -0.4850  0.2497
 9511TIP3    H149948   2.018   5.359  10.840  0.1697 -0.8236  1.3794
 9511TIP3    H249949   1.965   5.495  10.800 -1.1465 -1.7847 -0.2352
 9512TIP3   OH249950   1.759   5.014   1.693 -0.2866  0.4053 -0.6316
 9512TIP3    H149951   1.807   4.931   1.682  0.5675  0.5421  1.8362
 9512TIP3    H249952   1.704   5.019   1.615  0.9355 -1.6231 -1.6984
 9513TIP3   OH249953   6.752   6.232  14.874 -0.0365  0.3718 -0.0130
 9513TIP3    H149954   6.810   6.185  14.934  1.2901  2.0398  0.0399
 9513TIP3    H249955   6.777   6.324  14.884 -2.2545  1.0430 -0.4759
 9514TIP3   OH249956   3.640   5.295   1.074 -0.2645 -0.0178  0.0681
 9514TIP3    H149957   3.633   5.383   1.112  0.0568  0.2904 -0.5934
 9514TIP3    H249958   3.549   5.271   1.055 -0.4977 -0.4145  1.5626
 9515TIP3   OH249959   3.842   3.356   4.169  0.3630  0.1636 -0.4991
 9515TIP3    H149960   3.776   3.355   4.238  1.4269  0.5334  0.5384
 9515TIP3    H249961   3.801   3.309   4.096 -1.2616  0.8880 -0.0812
 9516TIP3   OH249962   2.876   2.940   4.822  0.9713 -0.0709 -0.1691
 9516TIP3    H149963   2.831   2.974   4.899  0.3508  0.1650 -0.6309
 9516TIP3    H249964   2.857   3.003   4.753 -0.1443 -1.3101 -1.0178
 9517TIP3   OH249965   1.312   5.057   2.014 -0.1959 -0.3365 -0.2171
 9517TIP3    H149966   1.302   5.077   1.921 -0.3586 -0.6222 -0.2629
 9517TIP3    H249967   1.241   5.107   2.057  1.5172  1.9311  0.0578
 9518TIP3   OH249968   5.791   2.812   4.582  0.7016  0.2764 -0.2892
 9518TIP3    H149969   5.820   2.745   4.644 -0.1375  0.8069  0.6849
 9518TIP3    H249970   5.852   2.884   4.593 -0.3617  0.9951  1.0516
 9519TIP3   OH249971   1.507   2.615  13.791  0.6209  0.8286  0.0824
 9519TIP3    H149972   1.456   2.549  13.745 -0.8988  1.6570  0.5565
 9519TIP3    H249973   1.594   2.576  13.799 -0.4284 -1.4574  1.0162
 9520TIP3   OH249974   5.664   4.803   3.587 -0.1581 -0.0228  0.1113
 9520TIP3    H149975   5.640   4.838   3.673 -1.2575 -0.5264  0.0188
 9520TIP3    H249976   5.581   4.796   3.540  0.5695  1.6133 -1.5126
 9521TIP3   OH249977   1.507   5.774   2.418 -0.7846 -0.9416 -0.1882
 9521TIP3    H149978   1.536   5.823   2.495 -0.6058 -0.1920 -0.7245
 9521TIP3    H249979   1.575   5.789   2.353 -2.0255  0.2916 -1.2392
 9522TIP3   OH249980   5.028   3.293  10.694 -0.0967  0.7582  0.3359
 9522TIP3    H149981   5.029   3.279  10.788  0.7782  1.5340  0.4454
 9522TIP3    H249982   4.962   3.232  10.661  2.9484 -2.9519  0.8900
 9523TIP3   OH249983   2.145   4.545  15.579  0.0124  0.5377 -0.4064
 9523TIP3    H149984   2.217   4.484  15.592  2.2304  2.7591 -1.6817
 9523TIP3    H249985   2.116   4.568  15.668  0.7659 -0.4923  0.1146
 9524TIP3   OH249986   4.955   5.731  14.066 -0.0605  0.5750 -0.3466
 9524TIP3    H149987   4.921   5.813  14.102  1.5398  1.1058 -0.0143
 9524TIP3    H249988   5.032   5.712  14.119  0.8138 -0.0226 -1.8149
 9525TIP3   OH249989   0.211   0.027  11.264  0.1761  0.0850  0.3015
 9525TIP3    H149990   0.249   0.076  11.336 -0.0605  0.3494  0.2468
 9525TIP3    H249991   0.236  -0.064  11.280  0.9576  0.2800  0.1892
 9526TIP3   OH249992   2.597   5.266  17.016 -0.1723  0.3075 -0.7065
 9526TIP3    H149993   2.556   5.289  16.933  0.3641  0.9271 -0.7977
 9526TIP3    H249994   2.578   5.173  17.027  0.6813 -0.0284 -2.0520
 9527TIP3   OH249995   0.248   0.279   6.544  0.0384 -0.5330  0.2384
 9527TIP3    H149996   0.221   0.210   6.605 -0.5144 -0.4245  0.1260
 9527TIP3    H249997   0.172   0.290   6.486  0.3897 -0.3185 -0.1813
 9528TIP3   OH249998   3.417   6.398   1.516  0.2036  0.3067 -0.7726
 9528TIP3    H149999   3.462   6.456   1.577 -2.4105 -0.0574  1.6042
 9528TIP3    H250000   3.392   6.454   1.443  2.8654  0.8693 -1.2976
 9529TIP3   OH250001   3.220   3.428   4.634  0.4506 -0.2004 -0.6172
 9529TIP3    H150002   3.138   3.402   4.592  0.7534  0.5291 -1.6716
 9529TIP3    H250003   3.277   3.454   4.562  0.8879  1.3305  0.2661
 9530TIP3   OH250004   3.472   3.147  15.519  0.6338  0.0073  0.3965
 9530TIP3    H150005   3.461   3.214  15.451  0.1311  1.6061  2.0203
 9530TIP3    H250006   3.383   3.117  15.537  0.9316 -1.7966 -0.9665
 9531TIP3   OH250007   5.921   4.411  13.467  0.2997 -0.4142  0.1043
 9531TIP3    H150008   5.956   4.455  13.390 -0.6859 -1.6098 -1.0408
 9531TIP3    H250009   5.833   4.446  13.477  0.7705  0.4646  1.2837
 9532TIP3   OH250010   5.532   1.253  15.277 -0.7789 -0.0894 -0.2914
 9532TIP3    H150011   5.485   1.330  15.310 -1.2265 -0.6004  0.2959
 9532TIP3    H250012   5.623   1.268  15.300 -0.9173  0.1082  0.1328
 9533TIP3   OH250013   0.205   1.835  12.223  0.4001  0.1625 -0.3748
 9533TIP3    H150014   0.119   1.794  12.210  0.3496 -0.0505  0.5846
 9533TIP3    H250015   0.196   1.885  12.304  0.1852  2.8686 -2.0166
 9534TIP3   OH250016   5.528   6.491   1.615 -0.0284  1.0835  1.2539
 9534TIP3    H150017   5.531   6.503   1.710 -1.6946  1.2775  1.2982
 9534TIP3    H250018   5.498   6.576   1.581 -0.3789  0.7128  0.6255
 9535TIP3   OH250019   4.252   0.881   3.083  0.5477 -0.6805 -0.3039
 9535TIP3    H150020   4.195   0.825   3.137  0.8544  0.3241  1.0964
 9535TIP3    H250021   4.226   0.970   3.106  0.6770 -0.2309 -1.8633
 9536TIP3   OH250022   5.389   6.085  16.468 -0.1107 -0.0919  0.2234
 9536TIP3    H150023   5.295   6.068  16.459  0.0271 -1.2155  0.8173
 9536TIP3    H250024   5.409   6.149  16.399 -1.3020  0.1206  0.0719
 9537TIP3   OH250025   4.680   3.174  13.440  0.4067 -0.1791 -0.2846
 9537TIP3    H150026   4.644   3.130  13.364  1.7664 -1.2993 -0.2996
 9537TIP3    H250027   4.606   3.221  13.478 -0.7145 -1.2177 -1.1602
 9538TIP3   OH250028   5.964   4.374  10.511  0.2494  0.0031 -0.1228
 9538TIP3    H150029   5.908   4.383  10.433 -0.3841  1.0288  0.4456
 9538TIP3    H250030   6.032   4.440  10.500 -0.0814  0.4299  0.4019
 9539TIP3   OH250031   6.010   6.491  13.432  0.2949  0.0323  0.5437
 9539TIP3    H150032   6.095   6.453  13.452  0.5249  0.2959  0.0706
 9539TIP3    H250033   5.965   6.494  13.516  1.0836  0.7024  0.9566
 9540TIP3   OH250034   3.494   5.171   1.715  0.5302  0.7484  0.4237
 9540TIP3    H150035   3.451   5.095   1.676  1.3900 -0.0148  0.9675
 9540TIP3    H250036   3.545   5.209   1.644  0.4844  0.5312  0.2748
 9541TIP3   OH250037   6.607   2.311  16.773 -0.0236 -0.7907 -0.2698
 9541TIP3    H150038   6.655   2.269  16.701  0.2618  1.6397 -1.5333
 9541TIP3    H250039   6.522   2.267  16.773  0.4843 -1.8158 -1.1353
 9542TIP3   OH250040   5.698   3.478  12.430  0.1797  0.0848 -0.4696
 9542TIP3    H150041   5.626   3.443  12.378 -0.9039  0.0062  1.0427
 9542TIP3    H250042   5.776   3.463  12.377 -0.6303 -1.9487 -1.1307
 9543TIP3   OH250043   4.579   1.410  13.075 -0.1065 -0.1942  0.2120
 9543TIP3    H150044   4.670   1.435  13.089 -0.7393  1.8145  0.9465
 9543TIP3    H250045   4.578   1.368  12.989  1.2059  1.3614 -0.5805
 9544TIP3   OH250046   3.267   5.037  13.204 -0.1103  0.0736 -0.0553
 9544TIP3    H150047   3.272   5.116  13.258  1.0681 -0.7385  1.0546
 9544TIP3    H250048   3.263   5.070  13.114  0.0606  1.4010  0.4039
 9545TIP3   OH250049   1.660   6.658  16.689 -0.4497  0.6297  0.0673
 9545TIP3    H150050   1.707   6.720  16.745 -0.9579 -0.1484  1.3869
 9545TIP3    H250051   1.636   6.709  16.611  0.1693  1.7597  0.6045
 9546TIP3   OH250052   6.382   0.736  13.969  0.4385  0.2355 -0.0710
 9546TIP3    H150053   6.360   0.654  14.013 -1.1748  0.7998  0.1824
 9546TIP3    H250054   6.298   0.775  13.946  1.2313  0.8030 -2.0983
 9547TIP3   OH250055   1.600   0.747   4.496  0.1847  0.3656  0.3419
 9547TIP3    H150056   1.687   0.721   4.467 -0.7670 -1.0765 -1.2640
 9547TIP3    H250057   1.540   0.712   4.430 -1.5721  1.9441  1.0299
 9548TIP3   OH250058   0.700   2.615   2.286 -0.0012 -0.1159  0.3069
 9548TIP3    H150059   0.732   2.525   2.292  0.9176  0.1860 -0.0396
 9548TIP3    H250060   0.779   2.669   2.284 -0.5446  0.8275  2.2830
 9549TIP3   OH250061   1.519   6.782   2.938 -0.4585  0.2280 -0.2364
 9549TIP3    H150062   1.552   6.772   2.849  0.0079 -0.8465  0.0509
 9549TIP3    H250063   1.578   6.846   2.979  0.8198 -1.1083  0.0405
 9550TIP3   OH250064   5.830   2.972  13.318  0.4746  0.7554  0.2798
 9550TIP3    H150065   5.820   3.025  13.397  0.2389 -0.6827  1.2515
 9550TIP3    H250066   5.745   2.979  13.273 -0.1333 -0.0829  1.2503
 9551TIP3   OH250067   3.399   2.509  12.687 -0.0181 -0.3460  0.1789
 9551TIP3    H150068   3.342   2.449  12.735 -0.6249  0.1527  0.0815
 9551TIP3    H250069   3.343   2.548  12.621  0.3837  0.3048  0.2202
 9552TIP3   OH250070   0.411   5.370  16.592  0.3756 -0.0724 -0.2214
 9552TIP3    H150071   0.372   5.371  16.679  0.2749 -1.5171 -0.2377
 9552TIP3    H250072   0.381   5.452  16.551 -0.9309 -0.1818  0.4952
 9553TIP3   OH250073   5.064   5.541  16.331  0.3003  0.3636 -0.3553
 9553TIP3    H150074   5.119   5.616  16.310  1.1155 -0.2334 -0.4189
 9553TIP3    H250075   4.993   5.576  16.384  1.3758  0.9916  0.7054
 9554TIP3   OH250076   1.755   2.219  15.448 -0.2506 -0.1457  0.4249
 9554TIP3    H150077   1.750   2.314  15.457  0.9039 -0.0549  0.1657
 9554TIP3    H250078   1.787   2.188  15.533  2.5876 -0.0032 -0.5538
 9555TIP3   OH250079   4.900   2.963   6.032 -0.2632  0.2880 -0.3388
 9555TIP3    H150080   4.820   2.916   6.055  0.2303 -0.0049  0.8558
 9555TIP3    H250081   4.968   2.896   6.034  0.1615  0.7215 -0.3840
 9556TIP3   OH250082   3.404   1.819  10.941 -0.2076  0.0642  0.3939
 9556TIP3    H150083   3.318   1.795  10.976  0.1443 -0.6968  0.7393
 9556TIP3    H250084   3.465   1.758  10.982  0.4860  0.5118  0.0426
 9557TIP3   OH250085   5.679   4.480  16.199 -0.3663 -0.3644 -0.8840
 9557TIP3    H150086   5.700   4.450  16.287 -0.6486  1.5304 -0.1447
 9557TIP3    H250087   5.601   4.430  16.174 -3.0734  2.3331  1.8023
 9558TIP3   OH250088   5.220   3.532   4.077  0.1135 -0.4778 -0.4912
 9558TIP3    H150089   5.202   3.462   4.139  0.9487 -2.6190 -2.5694
 9558TIP3    H250090   5.292   3.499   4.024  0.7776  2.1270 -1.3021
 9559TIP3   OH250091   0.284   3.247   5.694 -0.2158  0.1818  0.0957
 9559TIP3    H150092   0.358   3.209   5.741  0.0521 -0.0157 -0.4852
 9559TIP3    H250093   0.225   3.173   5.679  0.1712  0.0554 -0.7798
 9560TIP3   OH250094   0.029   5.457   4.545 -0.3916  0.0397 -0.1552
 9560TIP3    H150095  -0.003   5.487   4.630  0.0096  2.2293 -0.7233
 9560TIP3    H250096  -0.017   5.512   4.481 -0.8326 -1.6971 -1.3799
 9561TIP3   OH250097   2.473   1.892  14.374 -0.4350 -0.3784 -0.9026
 9561TIP3    H150098   2.382   1.897  14.401 -0.1415  0.1451  0.0278
 9561TIP3    H250099   2.522   1.895  14.456  0.4561  0.4538 -1.4637
 9562TIP3   OH250100   6.390   0.135   5.419 -0.3507  0.0424 -0.3631
 9562TIP3    H150101   6.422   0.051   5.386 -0.2247 -0.0144 -0.1000
 9562TIP3    H250102   6.297   0.135   5.400 -0.4237 -0.3274 -0.0034
 9563TIP3   OH250103   1.439   4.709   3.227 -0.4050 -0.1956 -0.3869
 9563TIP3    H150104   1.398   4.663   3.300 -0.3902  0.2860 -0.0716
 9563TIP3    H250105   1.405   4.665   3.149  1.4153 -2.2687 -0.0579
 9564TIP3   OH250106   5.193   6.079   0.773 -0.0278  0.8075  0.2828
 9564TIP3    H150107   5.259   6.089   0.842 -1.2160  0.3574  1.4966
 9564TIP3    H250108   5.138   6.157   0.781  1.1742  1.9250 -1.6767
 9565TIP3   OH250109   4.307   3.841   1.607  0.3003 -0.3012  0.3513
 9565TIP3    H150110   4.222   3.800   1.622  0.3494 -0.4541  0.2003
 9565TIP3    H250111   4.291   3.935   1.619  0.2124 -0.3716  0.7990
 9566TIP3   OH250112   5.307   5.581   0.072 -0.2406  0.3005  0.1785
 9566TIP3    H150113   5.379   5.599   0.011 -0.3453 -2.7128 -0.8873
 9566TIP3    H250114   5.251   5.659   0.066  1.5958  1.5750 -0.8927
 9567TIP3   OH250115   4.720   0.769   0.053 -0.3426  0.4034 -0.2642
 9567TIP3    H150116   4.763   0.700   0.102 -0.9500 -1.3248 -2.0973
 9567TIP3    H250117   4.793   0.821   0.017  0.1083  0.8246  1.2222
 9568TIP3   OH250118   0.960   3.362  15.576 -0.1162  0.2134  0.2958
 9568TIP3    H150119   0.959   3.430  15.509 -0.5794 -0.1904 -0.1167
 9568TIP3    H250120   1.000   3.286  15.533  0.6773  0.3137  0.8446
 9569TIP3   OH250121   6.300   0.127   2.276 -0.5122  0.1701 -0.2112
 9569TIP3    H150122   6.393   0.105   2.265 -0.7627  0.0332 -2.2161
 9569TIP3    H250123   6.265   0.056   2.329 -0.0277 -1.2094 -1.6844
 9570TIP3   OH250124   5.369   3.561  15.903 -0.2127 -0.6661 -0.2419
 9570TIP3    H150125   5.443   3.553  15.964 -0.0388  0.2647 -0.3288
 9570TIP3    H250126   5.346   3.653  15.906 -0.0169 -0.5596 -1.8203
 9571TIP3   OH250127   3.197   2.694  16.617  0.2031  0.2837 -0.1580
 9571TIP3    H150128   3.128   2.639  16.581  0.7020  0.6286 -1.6576
 9571TIP3    H250129   3.203   2.668  16.709 -0.8465 -0.8359 -0.3993
 9572TIP3   OH250130   3.927   4.078  15.968 -0.0996  0.2723 -0.4595
 9572TIP3    H150131   3.888   4.054  16.052 -0.6039  2.1121 -0.1428
 9572TIP3    H250132   3.873   4.032  15.903 -1.0652  0.5494  0.1271
 9573TIP3   OH250133   5.356   1.798   4.727  0.3712 -0.5847  0.1331
 9573TIP3    H150134   5.434   1.849   4.707 -0.1996  1.2610  2.3474
 9573TIP3    H250135   5.390   1.720   4.771  1.0416 -0.1260  0.4570
 9574TIP3   OH250136   0.825   0.115  16.528 -0.1857  0.0537 -0.2247
 9574TIP3    H150137   0.871   0.041  16.488  0.5657 -0.7468  1.9781
 9574TIP3    H250138   0.895   0.169  16.564 -0.7840  1.2958 -0.9101
 9575TIP3   OH250139   4.300   5.585  15.269  0.0592  0.4339  0.4378
 9575TIP3    H150140   4.210   5.552  15.275 -0.1665  1.1576  1.2072
 9575TIP3    H250141   4.345   5.547  15.344  0.3251  0.2895  0.2059
 9576TIP3   OH250142   4.644   6.404  12.013 -0.1475  0.0693  0.1512
 9576TIP3    H150143   4.730   6.414  12.053  1.2548 -0.4632 -2.5663
 9576TIP3    H250144   4.653   6.329  11.953 -2.6097 -0.2497  0.0960
 9577TIP3   OH250145   3.667   5.310  12.608 -0.5038  0.0053 -0.7309
 9577TIP3    H150146   3.705   5.354  12.532  1.4924  2.4134  1.5223
 9577TIP3    H250147   3.738   5.256  12.643  0.4929  3.1956  2.5220
 9578TIP3   OH250148   6.687   4.368  12.419  0.5589  0.2975 -0.0140
 9578TIP3    H150149   6.674   4.274  12.404  1.2765  0.1092  0.4932
 9578TIP3    H250150   6.703   4.404  12.332 -0.2709  0.0402 -0.2775
 9579TIP3   OH250151   2.915   2.510   5.342 -0.5356 -0.1451  0.1990
 9579TIP3    H150152   2.850   2.484   5.276 -1.2597 -1.5557  1.4147
 9579TIP3    H250153   2.992   2.536   5.292 -0.4956 -2.7736 -1.2108
 9580TIP3   OH250154   6.764   3.539   0.675 -0.4073  0.1794  0.2869
 9580TIP3    H150155   6.741   3.504   0.588 -0.2343 -1.4560  0.8722
 9580TIP3    H250156   6.736   3.630   0.672  1.5265  0.7583 -2.2221
 9581TIP3   OH250157   4.614   6.745  16.976 -0.8181 -0.0737  0.2498
 9581TIP3    H150158   4.562   6.822  17.001  3.1364  2.9746 -0.3369
 9581TIP3    H250159   4.689   6.747  17.036  0.6499 -2.0031 -1.4831
 9582TIP3   OH250160   3.559   4.469  14.962 -0.4410  0.0895 -0.1745
 9582TIP3    H150161   3.575   4.486  15.054 -1.7403 -1.3166  0.3458
 9582TIP3    H250162   3.465   4.485  14.951 -1.0015 -3.0907 -0.4409
 9583TIP3   OH250163   3.741   2.359  17.168 -0.0866 -0.3495  0.4670
 9583TIP3    H150164   3.795   2.416  17.113 -0.6788  1.7236  1.9944
 9583TIP3    H250165   3.653   2.366  17.131 -0.2427  0.0517  0.9187
 9584TIP3   OH250166   2.955   5.117   4.857 -0.1267 -0.1316 -0.1157
 9584TIP3    H150167   2.977   5.031   4.893  1.7676  0.0346 -0.8100
 9584TIP3    H250168   2.949   5.103   4.763  3.4325  1.0610 -0.6286
 9585TIP3   OH250169   1.731   2.489   5.337 -0.1115 -0.1801 -0.0979
 9585TIP3    H150170   1.687   2.411   5.371 -0.2508 -0.8160 -1.7080
 9585TIP3    H250171   1.692   2.562   5.386  0.0760 -1.1095  1.4671
 9586TIP3   OH250172   2.757   4.504   4.619  0.0084 -0.0909 -0.6778
 9586TIP3    H150173   2.730   4.444   4.688  1.7853 -0.0801  0.0420
 9586TIP3    H250174   2.688   4.496   4.552 -1.3702 -0.5897  0.7789
 9587TIP3   OH250175   3.956   5.128   2.612 -0.7805 -0.4169 -0.0742
 9587TIP3    H150176   4.017   5.196   2.640  0.2612 -1.2817 -0.1940
 9587TIP3    H250177   3.964   5.127   2.516 -0.8498 -0.6554 -0.0775
 9588TIP3   OH250178   3.072   0.272   2.780  0.2515 -0.0779  0.1390
 9588TIP3    H150179   3.153   0.261   2.830  1.0202 -0.9637 -1.2629
 9588TIP3    H250180   3.062   0.189   2.732 -1.8608 -0.2500  0.8255
 9589TIP3   OH250181   1.384   5.862  14.629 -0.1203  0.4280 -0.0447
 9589TIP3    H150182   1.434   5.803  14.572  0.3194 -0.3324  1.1033
 9589TIP3    H250183   1.391   5.822  14.716  0.4775  2.3691  0.8179
 9590TIP3   OH250184   4.315   0.436   2.562  0.3036 -0.0965  0.0235
 9590TIP3    H150185   4.328   0.432   2.468 -0.8417 -2.7834 -0.0765
 9590TIP3    H250186   4.229   0.478   2.573  0.1129 -0.4327 -0.1708
 9591TIP3   OH250187   0.434   1.695   6.091 -0.2870 -0.3093  0.8942
 9591TIP3    H150188   0.446   1.605   6.122 -0.5687 -0.9095 -0.6852
 9591TIP3    H250189   0.352   1.692   6.042  0.3308  0.5367 -0.1893
 9592TIP3   OH250190   6.296   3.120   5.217  0.2877 -1.3949 -0.1807
 9592TIP3    H150191   6.216   3.167   5.194  1.7444  0.8626 -0.8867
 9592TIP3    H250192   6.300   3.048   5.154  0.0197 -0.1011 -1.7259
 9593TIP3   OH250193   2.956   5.776  15.911 -0.5168 -0.1692 -0.3637
 9593TIP3    H150194   3.024   5.712  15.892  0.0217  0.5711 -0.9730
 9593TIP3    H250195   3.000   5.843  15.964 -0.8941  0.0549 -0.3295
 9594TIP3   OH250196   0.372   2.233  15.017  0.4280 -0.5655 -0.0283
 9594TIP3    H150197   0.428   2.303  14.984 -0.5050  0.2424  0.0883
 9594TIP3    H250198   0.411   2.153  14.982  0.8596  0.0953 -1.0758
 9595TIP3   OH250199   1.195   2.209  16.431  0.3858 -0.4366  0.2516
 9595TIP3    H150200   1.136   2.136  16.412 -0.6123  0.7783 -1.3680
 9595TIP3    H250201   1.282   2.169  16.431  0.0128 -1.3269 -2.3510
 9596TIP3   OH250202   0.052   1.488  14.692  0.0601 -0.7195 -0.3400
 9596TIP3    H150203   0.147   1.495  14.691  0.1735 -1.3397  2.4266
 9596TIP3    H250204   0.022   1.574  14.722 -0.3412 -0.1854 -2.1846
 9597TIP3   OH250205   2.680   4.783  15.723 -0.0123  0.0073 -0.9444
 9597TIP3    H150206   2.605   4.809  15.670  0.0439  1.9553 -0.1093
 9597TIP3    H250207   2.756   4.797  15.666 -0.3000 -3.0828 -2.2078
 9598TIP3   OH250208   4.141   3.414   2.844 -0.3878 -0.2472 -0.0231
 9598TIP3    H150209   4.213   3.356   2.870  0.1963  0.5847  0.2032
 9598TIP3    H250210   4.131   3.398   2.750 -0.6997 -1.2352  0.1679
 9599TIP3   OH250211   0.108   2.756  13.823  0.2439 -0.6826 -0.2245
 9599TIP3    H150212   0.192   2.737  13.779 -0.2214 -0.8287 -1.0715
 9599TIP3    H250213   0.082   2.672  13.861  0.3933 -0.6819 -0.1197
 9600TIP3   OH250214   6.498   6.218   3.876  0.3257 -0.2991  0.1185
 9600TIP3    H150215   6.576   6.173   3.843 -0.3439 -0.0953 -1.8520
 9600TIP3    H250216   6.513   6.227   3.970  1.8593 -1.8697  0.0617
 9601TIP3   OH250217   2.951   3.049  13.232 -0.2259 -0.6034  0.8247
 9601TIP3    H150218   3.026   2.999  13.200 -0.8294 -0.5317 -0.7584
 9601TIP3    H250219   2.887   3.045  13.160 -1.5346 -0.2377  1.9412
 9602TIP3   OH250220   6.132   6.648   2.085  0.0507 -0.3408 -0.1039
 9602TIP3    H150221   6.176   6.601   2.156 -0.7262 -0.1419  0.5244
 9602TIP3    H250222   6.064   6.699   2.129  1.4076  2.0259 -0.6975
 9603TIP3   OH250223   6.358   3.007  13.636  0.2559 -0.1358  0.4739
 9603TIP3    H150224   6.421   3.077  13.656  1.2954 -0.6477 -0.9236
 9603TIP3    H250225   6.296   3.048  13.575  2.1229 -0.9661 -2.1128
 9604TIP3   OH250226   4.284   4.618   2.793 -0.6372 -0.2701 -0.0603
 9604TIP3    H150227   4.285   4.667   2.711  1.2406  0.6579  0.4947
 9604TIP3    H250228   4.294   4.527   2.767 -0.1004  0.0167 -0.8604
 9605TIP3   OH250229   3.268   3.315   2.243 -0.2448  0.1718  0.1144
 9605TIP3    H150230   3.262   3.391   2.301 -0.1613  0.7624 -0.6492
 9605TIP3    H250231   3.207   3.335   2.172 -0.0690 -0.3875 -0.1926
 9606TIP3   OH250232   3.728   3.172   3.991  0.4707  0.3933 -0.0954
 9606TIP3    H150233   3.684   3.150   3.909  2.5569  1.4866 -1.5483
 9606TIP3    H250234   3.783   3.096   4.010  0.1980  0.2593  0.1843
 9607TIP3   OH250235   1.565   4.415  11.394  0.1747 -0.0134  0.5911
 9607TIP3    H150236   1.474   4.393  11.373 -0.4360  0.8291  2.2388
 9607TIP3    H250237   1.581   4.373  11.479  1.4565 -0.4776  0.1312
 9608TIP3   OH250238   1.785   4.911  12.183  0.6501 -0.0831 -0.3808
 9608TIP3    H150239   1.767   4.904  12.277 -1.0572 -1.9850 -0.8114
 9608TIP3    H250240   1.754   4.998  12.159 -0.0809 -0.0737  0.5651
 9609TIP3   OH250241   5.857   1.236   4.875  0.1885  0.1934  0.4515
 9609TIP3    H150242   5.911   1.306   4.911  1.2262  0.5562 -1.7248
 9609TIP3    H250243   5.916   1.161   4.869 -0.3782 -0.2969  0.8883
 9610TIP3   OH250244   6.485   1.382  11.461  0.3434  0.7314 -0.3602
 9610TIP3    H150245   6.480   1.439  11.384 -0.3938 -1.1711 -1.7701
 9610TIP3    H250246   6.400   1.337  11.463 -0.1221  1.6437  2.3019
 9611TIP3   OH250247   6.157   2.772   2.461 -0.5045 -0.1302  0.1410
 9611TIP3    H150248   6.125   2.695   2.507  0.3332  0.4729  1.8035
 9611TIP3    H250249   6.079   2.826   2.446 -0.9280 -0.7943 -0.0367
 9612TIP3   OH250250   6.441   0.986   2.926  0.1874  0.1801 -0.0548
 9612TIP3    H150251   6.468   0.954   3.012  1.0889 -0.7842 -0.6763
 9612TIP3    H250252   6.380   0.919   2.894 -0.8364  0.9839  0.1973
 9613TIP3   OH250253   5.333   0.201  16.489 -0.1580 -0.1794  0.8472
 9613TIP3    H150254   5.379   0.182  16.571 -0.3226  1.4500  1.3419
 9613TIP3    H250255   5.391   0.261  16.442 -0.1241 -1.0065 -0.1751
 9614TIP3   OH250256   4.139   2.064   1.016  0.0549 -0.1096  0.1786
 9614TIP3    H150257   4.129   2.018   0.933 -2.1596  0.5289  0.0610
 9614TIP3    H250258   4.052   2.099   1.035  1.2888  2.5430  1.1576
 9615TIP3   OH250259   1.391   5.957   6.095  0.2141  0.4214  0.0709
 9615TIP3    H150260   1.387   5.905   6.015  1.1498 -0.0792  0.3362
 9615TIP3    H250261   1.469   5.924   6.140 -0.8473  0.0292  1.6462
 9616TIP3   OH250262   5.785   0.258  12.436  0.1075 -0.2196  0.3821
 9616TIP3    H150263   5.838   0.206  12.376  1.0665  0.4520  0.6512
 9616TIP3    H250264   5.842   0.329  12.465 -1.7371  2.1266 -1.4470
 9617TIP3   OH250265   2.165   4.584  13.688 -0.4443 -0.4759  0.7617
 9617TIP3    H150266   2.127   4.529  13.620  0.8803  1.2011 -1.3892
 9617TIP3    H250267   2.098   4.651  13.705 -0.7467 -0.8532  1.0520
 9618TIP3   OH250268   5.453   6.666  16.381  0.0727 -0.0797  0.3186
 9618TIP3    H150269   5.521   6.733  16.372  0.0312 -0.1104 -0.2572
 9618TIP3    H250270   5.440   6.633  16.292 -1.0258  0.2626  0.3392
 9619TIP3   OH250271   6.700   1.259  14.619 -0.4918  0.6779 -0.0098
 9619TIP3    H150272   6.727   1.351  14.624  0.0005  0.5810 -0.8507
 9619TIP3    H250273   6.644   1.247  14.696 -0.3346  1.6060  0.2615
 9620TIP3   OH250274   6.594   3.466  11.272  0.4646  0.3429 -0.7898
 9620TIP3    H150275   6.502   3.464  11.245  0.0888  0.6068  0.4562
 9620TIP3    H250276   6.600   3.540  11.332  1.6361  0.7151 -1.3481
 9621TIP3   OH250277   1.607   2.133  15.228  0.3294  0.5894  0.7124
 9621TIP3    H150278   1.662   2.152  15.304 -0.0996  0.2583  1.1041
 9621TIP3    H250279   1.527   2.183  15.244  0.3257  0.6932  0.3689
 9622TIP3   OH250280   2.115   4.775   0.814  0.3429 -0.4891  0.0514
 9622TIP3    H150281   2.090   4.722   0.889 -0.3137 -0.1083  0.1030
 9622TIP3    H250282   2.180   4.836   0.849  1.3411 -1.4649 -0.0810
 9623TIP3   OH250283   2.134   5.014  15.979  0.3381 -0.1994  0.0864
 9623TIP3    H150284   2.222   4.976  15.987  0.2539 -0.2043  1.1663
 9623TIP3    H250285   2.077   4.952  16.024  0.0323  0.6107  0.8428
 9624TIP3   OH250286   1.656   4.526   3.799  0.2662  0.4924 -0.2151
 9624TIP3    H150287   1.631   4.607   3.843 -0.0725  0.8076 -0.9711
 9624TIP3    H250288   1.588   4.463   3.822  0.5330  0.4137  0.3769
 9625TIP3   OH250289   1.186   3.501   4.304 -0.2564 -0.3063 -0.2158
 9625TIP3    H150290   1.262   3.552   4.275 -1.6962  1.2138 -1.3725
 9625TIP3    H250291   1.212   3.467   4.390  2.2054 -0.8570 -1.1257
 9626TIP3   OH250292   3.315   4.244   3.632 -0.4731  0.0667 -0.4311
 9626TIP3    H150293   3.329   4.206   3.545 -1.4811 -0.3055 -0.4258
 9626TIP3    H250294   3.404   4.264   3.663  0.0256 -1.6133 -0.7138
 9627TIP3   OH250295   5.172   4.272  14.823  0.3894 -0.2704 -0.0081
 9627TIP3    H150296   5.164   4.352  14.770 -0.3630 -0.1900  0.2258
 9627TIP3    H250297   5.177   4.201  14.758  0.3708 -0.0960 -0.2016
 9628TIP3   OH250298   0.703   1.164   1.010 -0.2669  0.1078  0.3736
 9628TIP3    H150299   0.627   1.223   1.021  0.7557  1.2986  1.2510
 9628TIP3    H250300   0.764   1.214   0.956 -0.7928 -1.5243 -1.7745
 9629TIP3   OH250301   6.053   4.964  12.114 -0.0246  0.5836 -0.3596
 9629TIP3    H150302   5.981   5.008  12.070 -2.0126 -1.8149  0.4053
 9629TIP3    H250303   6.039   4.982  12.207 -1.5026 -2.4914  0.0606
 9630TIP3   OH250304   6.545   5.185   4.761 -0.6994 -0.3379 -0.2788
 9630TIP3    H150305   6.587   5.147   4.683  0.3748  0.5201 -0.1331
 9630TIP3    H250306   6.454   5.200   4.735 -0.0839  0.9673 -1.7483
 9631TIP3   OH250307   5.315   5.151  12.139  0.3366  0.2482 -0.2202
 9631TIP3    H150308   5.371   5.097  12.194  0.1395  0.1793 -0.0883
 9631TIP3    H250309   5.239   5.170  12.193  0.6156  1.0494 -0.0958
 9632TIP3   OH250310   3.292   6.169  15.938  0.0368 -0.0563 -0.2482
 9632TIP3    H150311   3.387   6.159  15.933 -0.0551 -1.3236  0.4463
 9632TIP3    H250312   3.262   6.164  15.847  0.7253  1.3326 -0.5572
 9633TIP3   OH250313   0.498   1.759  13.055 -0.4813  0.2845  0.4593
 9633TIP3    H150314   0.455   1.702  13.119 -0.8356  0.4051  0.3291
 9633TIP3    H250315   0.443   1.754  12.977  1.3602 -1.9385 -0.7563
 9634TIP3   OH250316   2.123   1.038   1.655 -0.4253  0.3876  0.0605
 9634TIP3    H150317   2.137   1.019   1.562  0.5368 -0.0591  0.2910
 9634TIP3    H250318   2.034   1.008   1.672 -1.4470  2.4820 -1.2299
 9635TIP3   OH250319   2.556   1.385   3.685 -0.1547 -0.5318  1.0484
 9635TIP3    H150320   2.515   1.451   3.741  0.7755  0.9798 -0.0116
 9635TIP3    H250321   2.528   1.409   3.597  2.5793  0.2587  0.3562
 9636TIP3   OH250322   0.620   5.651   0.869  0.3557  0.1586  0.2003
 9636TIP3    H150323   0.678   5.709   0.819  2.6846 -1.8208  0.4930
 9636TIP3    H250324   0.622   5.568   0.821 -0.2218 -0.7037  1.6176
 9637TIP3   OH250325   2.574   2.180  15.882 -0.3059 -0.1783 -0.1235
 9637TIP3    H150326   2.520   2.219  15.950 -1.1283 -1.6937  0.1209
 9637TIP3    H250327   2.656   2.156  15.926 -0.7982 -1.0639  0.3175
 9638TIP3   OH250328   1.264   0.196   1.098 -0.6826 -0.6356  0.8362
 9638TIP3    H150329   1.245   0.113   1.142  1.0653 -0.8112  1.2608
 9638TIP3    H250330   1.332   0.175   1.034 -0.9639  0.2715  0.2202
 9639TIP3   OH250331   1.212   3.636   0.407  0.0378  0.4187  0.6801
 9639TIP3    H150332   1.269   3.586   0.465  1.9701  0.2091 -1.3328
 9639TIP3    H250333   1.177   3.571   0.346 -0.8882  0.8565  0.7259
 9640TIP3   OH250334   1.241   3.434   4.953  0.0171  0.3697  0.8747
 9640TIP3    H150335   1.308   3.499   4.976 -0.8875  1.2564  1.0077
 9640TIP3    H250336   1.203   3.468   4.872 -0.0314 -0.3291  0.6017
 9641TIP3   OH250337   4.435   5.592  16.222  0.5472  0.2091 -0.1763
 9641TIP3    H150338   4.507   5.617  16.164 -0.5555  1.6751 -0.9374
 9641TIP3    H250339   4.430   5.496  16.215  1.4119  0.2477 -1.3084
 9642TIP3   OH250340   3.007   3.874  13.648  0.0992 -0.5391  0.4746
 9642TIP3    H150341   2.946   3.821  13.596  1.3855 -0.3400 -1.3156
 9642TIP3    H250342   2.956   3.904  13.723 -2.3494  0.5673 -1.5435
 9643TIP3   OH250343   1.735   6.460   1.276  0.8003 -0.4356  0.3452
 9643TIP3    H150344   1.678   6.383   1.278  0.4702 -0.2380 -0.9663
 9643TIP3    H250345   1.811   6.433   1.225  0.1892  0.4230 -1.0475
 9644TIP3   OH250346   2.365   2.164  12.148 -0.3748  0.0195 -0.1644
 9644TIP3    H150347   2.414   2.235  12.108  0.1710 -1.1566 -1.6328
 9644TIP3    H250348   2.419   2.136  12.222  0.3555 -0.1310 -0.7432
 9645TIP3   OH250349   4.501   3.178   5.463  0.2756  0.4513  0.2187
 9645TIP3    H150350   4.412   3.146   5.455 -0.1053  1.7324 -0.8467
 9645TIP3    H250351   4.550   3.104   5.499 -1.2313 -0.2022  0.9697
 9646TIP3   OH250352   4.409   1.550  15.132 -0.5127 -0.2511 -0.4466
 9646TIP3    H150353   4.427   1.522  15.222 -0.8071  0.4024 -0.1789
 9646TIP3    H250354   4.468   1.497  15.078  1.1644  0.8247  0.2987
 9647TIP3   OH250355   5.928   3.602   5.754  0.7018  0.5293  0.0397
 9647TIP3    H150356   5.891   3.543   5.688  0.8938 -0.4220  0.7706
 9647TIP3    H250357   5.983   3.546   5.809 -0.6194  0.9962  1.9046
 9648TIP3   OH250358   1.038   0.809   5.554 -0.9493  0.4660 -0.5990
 9648TIP3    H150359   1.053   0.723   5.515  1.8071  1.4749 -1.8537
 9648TIP3    H250360   1.071   0.802   5.643 -5.3451 -1.2083  1.0642
 9649TIP3   OH250361   6.699   3.126   1.851  0.9432 -0.1139  0.0471
 9649TIP3    H150362   6.633   3.177   1.803 -1.6441 -2.3094  1.1258
 9649TIP3    H250363   6.711   3.174   1.933  1.4252  0.8082 -0.5551
 9650TIP3   OH250364   3.373   3.835   1.737 -0.2376  0.0885  0.4633
 9650TIP3    H150365   3.284   3.871   1.734  0.4363  1.7949  0.5204
 9650TIP3    H250366   3.387   3.814   1.829 -1.3976 -2.3506  0.1328
 9651TIP3   OH250367   4.124   1.707   5.982  0.3295  0.8580 -0.5407
 9651TIP3    H150368   4.072   1.631   5.958 -0.4169  0.7186  1.4311
 9651TIP3    H250369   4.084   1.780   5.935 -1.4105  0.6761  0.6360
 9652TIP3   OH250370   4.931   1.464  12.974  0.1012  0.1388  0.2064
 9652TIP3    H150371   4.877   1.496  13.046  0.4775  1.1768  0.0409
 9652TIP3    H250372   4.926   1.533  12.907  1.0837 -0.0495 -0.0820
 9653TIP3   OH250373   1.608   3.376  12.428  0.1758 -0.4998  0.8127
 9653TIP3    H150374   1.606   3.280  12.428 -2.3006 -0.5151  3.1043
 9653TIP3    H250375   1.517   3.402  12.413  0.6895  1.4896  0.9998
 9654TIP3   OH250376   4.369   5.664   4.769 -0.3698 -0.1728  0.1304
 9654TIP3    H150377   4.291   5.618   4.737 -2.3211  1.9856  1.6481
 9654TIP3    H250378   4.428   5.594   4.799 -2.2259 -1.7765  0.1292
 9655TIP3   OH250379   3.257   5.511   1.106  0.1511  0.3535 -0.1160
 9655TIP3    H150380   3.229   5.542   1.020  1.8618 -1.4577 -1.3795
 9655TIP3    H250381   3.325   5.573   1.132  0.5989  0.1277 -0.7203
 9656TIP3   OH250382   0.487   6.202   1.176 -0.5319 -0.0516 -0.3879
 9656TIP3    H150383   0.561   6.143   1.188  1.5469  2.9348  2.4470
 9656TIP3    H250384   0.496   6.236   1.087 -0.0712 -1.7738 -0.9989
 9657TIP3   OH250385   0.520   6.244  15.742 -0.1328  0.2069  0.1158
 9657TIP3    H150386   0.490   6.307  15.807  0.4501 -0.0802  0.6611
 9657TIP3    H250387   0.600   6.206  15.779 -0.0129 -0.2396 -0.5858
 9658TIP3   OH250388   6.608   3.157  14.959 -0.7971 -1.0363 -0.0691
 9658TIP3    H150389   6.526   3.169  14.911 -0.0151 -1.1092 -1.4418
 9658TIP3    H250390   6.676   3.158  14.891  0.2222 -2.4242  0.9097
 9659TIP3   OH250391   2.754   3.354  12.958  0.2722  0.5752  0.5677
 9659TIP3    H150392   2.802   3.432  12.984 -1.8004  1.5273  1.7070
 9659TIP3    H250393   2.722   3.373  12.870 -1.9033  1.8875  1.5936
 9660TIP3   OH250394   6.037   5.708  12.046  0.1150 -0.5272 -0.2453
 9660TIP3    H150395   6.004   5.736  12.132  0.5352 -1.0518  0.0917
 9660TIP3    H250396   6.130   5.726  12.049  0.2612 -1.2582 -0.3081
 9661TIP3   OH250397   3.316   2.822  12.896  0.0485 -0.2648 -0.4218
 9661TIP3    H150398   3.370   2.764  12.843 -1.1522  0.3796 -2.4021
 9661TIP3    H250399   3.241   2.767  12.921  0.9328 -0.7678  1.2220
 9662TIP3   OH250400   6.557   1.203  14.855  0.2548 -0.1113 -0.7629
 9662TIP3    H150401   6.513   1.288  14.853 -0.2403 -0.3557 -0.4923
 9662TIP3    H250402   6.601   1.201  14.940 -0.7716 -0.6330 -0.2327
 9663TIP3   OH250403   0.627   2.211   4.694  0.0032 -0.2475 -0.2712
 9663TIP3    H150404   0.668   2.289   4.732 -0.2340  0.2073 -0.9495
 9663TIP3    H250405   0.595   2.162   4.770 -0.2526  0.5365  0.1324
 9664TIP3   OH250406   3.018   1.736   6.474 -0.0869  0.1673  0.5130
 9664TIP3    H150407   2.980   1.802   6.415  0.9708 -1.1896 -1.7435
 9664TIP3    H250408   3.102   1.774   6.501 -0.0115  0.2607  0.1501
 9665TIP3   OH250409   4.221   1.186   0.197 -0.1302  0.4396  0.7772
 9665TIP3    H150410   4.230   1.187   0.102 -1.7639 -0.3035  0.5992
 9665TIP3    H250411   4.311   1.194   0.230  0.5121 -0.0015 -0.8298
 9666TIP3   OH250412   0.083   2.428   4.230  0.1053 -0.5198  0.4491
 9666TIP3    H150413   0.173   2.463   4.232  0.5104 -1.5643  1.3340
 9666TIP3    H250414   0.047   2.460   4.148  1.7849 -1.2897 -0.6294
 9667TIP3   OH250415   3.648   4.624  11.990  0.0595 -0.1780  0.1476
 9667TIP3    H150416   3.667   4.634  11.897 -1.0188 -2.1569 -0.3131
 9667TIP3    H250417   3.580   4.557  11.994 -0.1309  0.0956  2.3450
 9668TIP3   OH250418   1.450   5.538  12.650 -0.1687  0.1780 -0.2780
 9668TIP3    H150419   1.501   5.466  12.615  0.3476  0.0834  0.6522
 9668TIP3    H250420   1.512   5.587  12.706 -0.4404  1.4665 -1.0740
 9669TIP3   OH250421   2.725   4.334  14.480 -0.2674 -0.0237  0.7928
 9669TIP3    H150422   2.786   4.283  14.426 -0.4704 -0.5472  1.0574
 9669TIP3    H250423   2.776   4.359  14.557  0.0238  0.7283  0.3554
 9670TIP3   OH250424   0.176   2.149  12.344  0.3673 -0.0688  0.2263
 9670TIP3    H150425   0.185   2.222  12.281  0.9945  0.2074  0.6407
 9670TIP3    H250426   0.236   2.171  12.415 -2.1596  0.8841  2.1323
 9671TIP3   OH250427   0.633   0.131   5.108 -0.2927 -0.5881 -0.0851
 9671TIP3    H150428   0.635   0.207   5.050 -0.8242  0.6048  1.4436
 9671TIP3    H250429   0.544   0.129   5.143  0.3925 -0.4810  1.7289
 9672TIP3   OH250430   1.760   1.427   3.155 -0.3848  0.0302 -0.5114
 9672TIP3    H150431   1.763   1.483   3.077  1.6721  0.2666 -0.2855
 9672TIP3    H250432   1.848   1.389   3.160 -0.8615 -0.8793  1.0547
 9673TIP3   OH250433   3.279   2.670   2.945 -0.3792  0.3043  0.0033
 9673TIP3    H150434   3.269   2.649   3.037 -0.3543  1.1109  0.1948
 9673TIP3    H250435   3.191   2.691   2.915 -0.4487 -0.3448 -0.2580
 9674TIP3   OH250436   4.626   5.278  14.152  0.4386 -0.0041  0.4021
 9674TIP3    H150437   4.643   5.276  14.058  0.2717 -0.6348  0.3863
 9674TIP3    H250438   4.657   5.364  14.179 -0.5817  0.6515 -0.4355
 9675TIP3   OH250439   4.562   1.527  16.689  0.4414 -0.5334  0.1754
 9675TIP3    H150440   4.544   1.450  16.743  1.5355 -1.6161 -0.9889
 9675TIP3    H250441   4.479   1.546  16.646 -0.1765 -0.2645  1.4574
 9676TIP3   OH250442   2.658   2.313   3.660 -0.0333  0.1350  0.1522
 9676TIP3    H150443   2.718   2.358   3.719  0.2166  1.3805 -1.0383
 9676TIP3    H250444   2.615   2.383   3.611 -0.0382 -0.8902 -1.3469
 9677TIP3   OH250445   5.614   4.332  12.853 -0.1358 -0.2358 -1.1995
 9677TIP3    H150446   5.556   4.287  12.914  0.5007 -0.3958 -0.7072
 9677TIP3    H250447   5.608   4.281  12.772  2.0863 -2.4001 -0.0595
 9678TIP3   OH250448   6.116   5.734  14.531  0.0125  0.6406 -0.0804
 9678TIP3    H150449   6.028   5.772  14.531  0.5763  1.9819 -0.3705
 9678TIP3    H250450   6.160   5.776  14.457  0.7505 -0.3784 -0.2249
 9679TIP3   OH250451   4.841   5.338  15.939  0.4716 -0.0010  0.1074
 9679TIP3    H150452   4.914   5.384  15.982  0.2054  0.1419  0.4098
 9679TIP3    H250453   4.884   5.277  15.878  0.8247  0.6544 -0.3048
 9680TIP3   OH250454   3.556   3.096  12.455 -0.1821  0.0540 -0.2622
 9680TIP3    H150455   3.641   3.104  12.413  0.2216 -1.2846  0.2810
 9680TIP3    H250456   3.576   3.068  12.544 -1.1888 -0.0266 -0.0572
 9681TIP3   OH250457   2.633   4.464  14.830  0.0780  0.3721  0.1418
 9681TIP3    H150458   2.621   4.478  14.924 -2.0859 -0.1336 -0.0257
 9681TIP3    H250459   2.697   4.393  14.823  0.9730  1.0657  1.2022
 9682TIP3   OH250460   3.192   2.340  12.860  0.3455 -0.1219  0.4949
 9682TIP3    H150461   3.107   2.384  12.860  0.0635 -0.6664 -0.2171
 9682TIP3    H250462   3.222   2.346  12.951  0.6537  2.1804  0.2849
 9683TIP3   OH250463   5.358   0.136   5.105  0.6326 -0.0908  0.2652
 9683TIP3    H150464   5.438   0.084   5.109 -0.2580 -1.5612 -0.6912
 9683TIP3    H250465   5.368   0.188   5.025  0.3354 -0.8055 -0.2482
 9684TIP3   OH250466   6.215   2.263   1.267  0.6576  0.2279  0.3059
 9684TIP3    H150467   6.244   2.173   1.252 -0.2018  0.1845 -1.1866
 9684TIP3    H250468   6.294   2.316   1.258  0.7653 -0.1549 -1.0821
 9685TIP3   OH250469   0.616   0.747  15.760  0.3709 -0.5177 -0.7526
 9685TIP3    H150470   0.538   0.744  15.704 -0.4392 -0.1451  0.3378
 9685TIP3    H250471   0.609   0.669  15.815  2.1908 -1.9476 -2.4954
 9686TIP3   OH250472   2.817   4.215  12.489 -0.4193 -0.0275  0.3216
 9686TIP3    H150473   2.749   4.148  12.490  0.0281 -0.4912 -0.2734
 9686TIP3    H250474   2.790   4.275  12.420 -0.2610 -0.1703  0.1377
 9687TIP3   OH250475   2.330   1.760  13.241 -0.5335  0.0375  0.1427
 9687TIP3    H150476   2.326   1.702  13.165 -0.3521 -0.4347  0.4918
 9687TIP3    H250477   2.251   1.740  13.290 -0.7735  0.5158 -0.0405
 9688TIP3   OH250478   6.513   2.874   0.333 -0.9073  0.2282  0.2739
 9688TIP3    H150479   6.497   2.818   0.409 -0.8501  1.7740  1.4557
 9688TIP3    H250480   6.427   2.885   0.293 -1.2197  0.7045  1.0553
 9689TIP3   OH250481   2.729   4.910  16.897 -0.8593  0.9280 -0.2375
 9689TIP3    H150482   2.717   4.985  16.839 -0.2694  1.0127 -0.2581
 9689TIP3    H250483   2.713   4.833  16.842  2.0452  0.9147 -1.1647
 9690TIP3   OH250484   0.381   0.701   4.020  0.3520 -0.3035 -0.0571
 9690TIP3    H150485   0.440   0.712   3.946  2.2711 -0.0277  1.4684
 9690TIP3    H250486   0.425   0.639   4.078 -1.4750 -1.1259  0.5248
 9691TIP3   OH250487   6.446   5.931   1.371 -0.0388  0.3392  0.8099
 9691TIP3    H150488   6.399   5.992   1.313  0.0545  0.0030  0.3819
 9691TIP3    H250489   6.408   5.845   1.351  0.5430  0.1102  0.6849
 9692TIP3   OH250490   1.372   6.142  12.635 -0.0228  0.7685  0.0233
 9692TIP3    H150491   1.420   6.106  12.561 -0.1953 -1.6735  1.0720
 9692TIP3    H250492   1.410   6.230  12.647  1.7014  0.2439 -1.3994
 9693TIP3   OH250493   1.881   1.102  15.642 -0.4281  0.9860 -0.1511
 9693TIP3    H150494   1.930   1.172  15.685  0.0012  0.7553 -0.2619
 9693TIP3    H250495   1.948   1.050  15.597 -0.4344 -1.0373  2.0919
 9694TIP3   OH250496   4.341   1.700  12.960 -0.6396 -0.4002 -0.5003
 9694TIP3    H150497   4.406   1.670  12.897 -1.3362 -1.6314 -0.6392
 9694TIP3    H250498   4.312   1.621  13.004 -0.1382  0.4491  1.4104
 9695TIP3   OH250499   5.072   3.727   3.400  1.0513  1.2608 -0.3423
 9695TIP3    H150500   5.127   3.650   3.407  1.8817  1.7264 -1.6493
 9695TIP3    H250501   5.116   3.793   3.453  1.5835  1.5316 -1.1147
 9696TIP3   OH250502   4.069   0.011  14.135  0.7097  0.0715 -0.2616
 9696TIP3    H150503   4.102   0.041  14.220  1.8480  0.2449 -0.7471
 9696TIP3    H250504   4.082   0.086  14.076 -1.2386  0.3846 -0.3124
 9697TIP3   OH250505   0.636   0.382   5.002 -0.4272  0.1785  0.0588
 9697TIP3    H150506   0.633   0.446   5.073 -1.0445  1.1208 -0.7978
 9697TIP3    H250507   0.716   0.403   4.954 -0.5410  0.1899 -0.1248
 9698TIP3   OH250508   2.228   3.838   5.486  0.1668  0.2844  0.0693
 9698TIP3    H150509   2.264   3.807   5.403 -1.1676  1.2284 -0.8702
 9698TIP3    H250510   2.192   3.924   5.466 -2.8648 -0.7434  0.9083
 9699TIP3   OH250511   1.676   4.936   0.350  0.0713  0.2590  0.1886
 9699TIP3    H150512   1.714   5.022   0.331  1.0179 -0.0548  0.5878
 9699TIP3    H250513   1.750   4.885   0.384 -1.0518  0.1386  2.5443
 9700TIP3   OH250514   5.068   4.063   2.402  0.1434 -0.3196 -0.1742
 9700TIP3    H150515   5.005   4.047   2.473  1.8590 -1.6390  1.0938
 9700TIP3    H250516   5.047   3.997   2.336  0.8864 -1.5132  0.7508
 9701TIP3   OH250517   5.192   6.524  16.428 -0.2118 -0.1509  0.0614
 9701TIP3    H150518   5.211   6.614  16.402  0.0574 -0.2685 -0.1436
 9701TIP3    H250519   5.264   6.473  16.393 -0.6479 -0.5262 -0.2933
 9702TIP3   OH250520   6.762   0.928   2.361  0.2586 -0.0172  0.3059
 9702TIP3    H150521   6.808   0.863   2.308  1.5075  1.1197 -0.0295
 9702TIP3    H250522   6.817   1.006   2.357 -2.1635  1.6882 -0.8699
 9703TIP3   OH250523   3.225   3.851   6.090 -0.3801 -0.0809 -0.1506
 9703TIP3    H150524   3.233   3.802   6.172 -1.6488 -1.2278 -0.6807
 9703TIP3    H250525   3.141   3.896   6.097 -0.6975 -0.5316 -0.9941
 9704TIP3   OH250526   0.761   2.513  12.961 -0.3141 -0.8498  0.1888
 9704TIP3    H150527   0.844   2.466  12.970 -0.7692 -1.5632  0.6743
 9704TIP3    H250528   0.781   2.587  12.903  0.2358 -2.0769 -1.2113
 9705TIP3   OH250529   2.387   5.711  16.586 -0.1923 -0.0737  0.1630
 9705TIP3    H150530   2.460   5.707  16.523 -1.4370 -0.4559 -1.2858
 9705TIP3    H250531   2.420   5.765  16.657  2.4593 -2.3154  0.7601
 9706TIP3   OH250532   1.020   4.683   3.974 -0.8636 -0.7365 -0.6065
 9706TIP3    H150533   1.048   4.731   3.896 -1.6683 -0.1069 -0.5190
 9706TIP3    H250534   1.092   4.623   3.992  1.6704  2.6410  1.1778
 9707TIP3   OH250535   5.165   5.013  13.626 -0.1607  0.7570 -0.0766
 9707TIP3    H150536   5.190   4.986  13.537 -0.9871 -1.8456  0.4248
 9707TIP3    H250537   5.072   5.037  13.618  0.0773  1.6427 -0.1520
 9708TIP3   OH250538   1.265   3.582   4.695 -0.2516 -0.1091  0.1863
 9708TIP3    H150539   1.261   3.676   4.678 -1.9212 -0.2239 -0.0508
 9708TIP3    H250540   1.330   3.549   4.632  2.0591  1.2128  1.8111
 9709TIP3   OH250541   0.016   5.425   3.828 -0.3603 -0.6466 -0.1019
 9709TIP3    H150542   0.072   5.350   3.804  0.3745  0.1807 -1.0320
 9709TIP3    H250543   0.047   5.496   3.772 -0.4571  0.6032  1.3977
 9710TIP3   OH250544   4.883   6.318  16.139  0.6339 -0.1008 -0.4184
 9710TIP3    H150545   4.960   6.292  16.088  1.3805  2.7173 -0.8070
 9710TIP3    H250546   4.823   6.356  16.074 -0.3042 -0.5605  0.1719
 9711TIP3   OH250547   1.616   1.883   5.533 -0.1714 -0.3893  0.8486
 9711TIP3    H150548   1.681   1.948   5.505 -1.9838  1.3822  0.6624
 9711TIP3    H250549   1.553   1.879   5.461 -1.7060 -0.1216  2.1544
 9712TIP3   OH250550   1.873   1.633   5.280 -0.2299  0.0459 -0.0092
 9712TIP3    H150551   1.780   1.638   5.258 -0.0693  1.0974 -0.4797
 9712TIP3    H250552   1.913   1.707   5.234  0.3200  1.5760  2.7667
 9713TIP3   OH250553   1.845   5.217   3.722 -0.2357 -0.2423  0.2408
 9713TIP3    H150554   1.843   5.278   3.796  2.5978 -1.2911  1.2555
 9713TIP3    H250555   1.930   5.232   3.681 -0.0158 -2.6172 -0.2308
 9714TIP3   OH250556   2.526   4.100  13.828 -0.3149  0.0609  0.1193
 9714TIP3    H150557   2.547   4.046  13.904 -0.3509  0.0486  0.1215
 9714TIP3    H250558   2.528   4.190  13.860 -0.3158  0.0566  0.1314
 9715TIP3   OH250559   4.931   4.462   4.059  0.4619 -0.1997 -0.6593
 9715TIP3    H150560   4.953   4.399   3.990  1.8239 -1.4936  0.9225
 9715TIP3    H250561   4.954   4.418   4.141 -0.7127  1.4815  0.6182
 9716TIP3   OH250562   3.674   2.558  12.019 -0.3624  0.2134 -0.0013
 9716TIP3    H150563   3.656   2.645  11.982 -1.0111 -0.7100 -1.9061
 9716TIP3    H250564   3.756   2.569  12.066  0.1857  1.5858 -1.2447
 9717TIP3   OH250565   4.530   6.023   3.259 -0.2829  0.0375  0.4227
 9717TIP3    H150566   4.502   6.110   3.232 -1.5634 -0.4489  0.1178
 9717TIP3    H250567   4.573   6.036   3.343  0.1118  1.0452  0.0684
 9718TIP3   OH250568   0.983   2.118   5.408  0.2325 -0.8671  0.1733
 9718TIP3    H150569   1.011   2.207   5.428  2.7164 -1.4181 -0.6406
 9718TIP3    H250570   0.925   2.094   5.480  0.3232  1.0575  0.9058
 9719TIP3   OH250571   1.136   6.634  13.743 -0.4962 -0.3061  1.0550
 9719TIP3    H150572   1.099   6.674  13.664  0.9623  1.7997  1.4076
 9719TIP3    H250573   1.111   6.542  13.737  0.4212 -0.3942 -2.3521
 9720TIP3   OH250574   3.403   4.617   1.472 -0.3115 -0.1550 -0.0418
 9720TIP3    H150575   3.416   4.532   1.431  0.2359  0.7028 -1.6784
 9720TIP3    H250576   3.421   4.602   1.565  2.9933 -1.1540 -0.7845
 9721TIP3   OH250577   1.747   2.069  12.276 -0.0207  0.5019  1.1305
 9721TIP3    H150578   1.722   2.083  12.185  0.9799 -0.0499  0.7597
 9721TIP3    H250579   1.838   2.038  12.271  0.1852  0.8991  2.3397
 9722TIP3   OH250580   2.699   5.966  12.461 -0.0318 -0.1289 -0.4441
 9722TIP3    H150581   2.739   5.938  12.379 -1.6604 -1.2455 -0.8700
 9722TIP3    H250582   2.630   6.027  12.435 -0.9117 -0.9048  0.0538
 9723TIP3   OH250583   0.694   0.127  14.748 -0.1387 -0.2841  0.5591
 9723TIP3    H150584   0.688   0.085  14.833  0.2004  0.6696  1.0654
 9723TIP3    H250585   0.750   0.203  14.763 -0.9224  0.4732 -0.2915
 9724TIP3   OH250586   3.696   1.850   1.295  0.7340 -0.0388 -0.6504
 9724TIP3    H150587   3.789   1.829   1.294  0.8331  0.4153 -1.6369
 9724TIP3    H250588   3.652   1.767   1.274  0.8250 -0.6392  1.4621
 9725TIP3   OH250589   6.595   2.772  16.456 -0.2700  0.6261  0.4241
 9725TIP3    H150590   6.675   2.824  16.449 -0.9340  1.7580  1.1173
 9725TIP3    H250591   6.621   2.693  16.503  0.3471  1.1961  1.0511
 9726TIP3   OH250592   5.019   3.108   4.890 -0.5513  0.1900  0.6063
 9726TIP3    H150593   4.984   3.055   4.819  2.1974 -2.0242  0.8406
 9726TIP3    H250594   5.002   3.198   4.863 -1.4648 -0.6615 -1.8179
 9727TIP3   OH250595   4.311   6.302  15.181  0.1115 -0.2442  0.0278
 9727TIP3    H150596   4.304   6.351  15.263  1.8844 -0.5239  0.3555
 9727TIP3    H250597   4.393   6.254  15.188 -0.0115 -0.7396 -1.6669
 9728TIP3   OH250598   0.913   3.355   4.949 -0.1391 -0.2838  0.3271
 9728TIP3    H150599   0.875   3.344   5.036 -0.3230 -3.7848 -0.1139
 9728TIP3    H250600   0.840   3.383   4.893 -0.2498  0.9198  1.0584
 9729TIP3   OH250601   1.949   1.558  16.606  0.0174 -0.1764 -0.3090
 9729TIP3    H150602   2.017   1.585  16.543 -0.9926  2.3112 -0.3867
 9729TIP3    H250603   1.878   1.523  16.551 -0.8730  2.0155 -0.5917
 9730TIP3   OH250604   1.999   3.826  12.004  0.0348 -0.6140 -0.2714
 9730TIP3    H150605   2.011   3.919  12.021 -1.0547 -0.4408 -0.3979
 9730TIP3    H250606   2.036   3.782  12.081  0.4925 -0.0779 -0.1880
 9731TIP3   OH250607   3.894   1.035  13.641  0.5319  0.1032 -0.2420
 9731TIP3    H150608   3.975   1.028  13.692  0.2358 -2.3652 -0.0724
 9731TIP3    H250609   3.869   1.127  13.649  3.0576  0.7979  0.0989
 9732TIP3   OH250610   0.278   6.650   4.489  0.2757 -0.2717  0.4611
 9732TIP3    H150611   0.357   6.638   4.542  0.7008  0.4894 -0.0069
 9732TIP3    H250612   0.255   6.742   4.500 -1.2127 -0.7381  1.5142
 9733TIP3   OH250613   0.183   0.280  15.628 -0.5279 -0.0038  0.5064
 9733TIP3    H150614   0.234   0.199  15.623  0.6896  0.6068  2.3094
 9733TIP3    H250615   0.168   0.305  15.537  0.7155 -1.2553 -0.0643
 9734TIP3   OH250616   4.485   5.678  14.624  0.4742  0.3347 -0.2797
 9734TIP3    H150617   4.557   5.615  14.622  1.4183  1.4211 -0.7296
 9734TIP3    H250618   4.433   5.656  14.546  0.5557 -0.1740 -0.1911
 9735TIP3   OH250619   4.239   0.785  15.599  0.2574  0.0115  0.2223
 9735TIP3    H150620   4.317   0.764  15.548  1.6524 -0.2113  2.3930
 9735TIP3    H250621   4.249   0.878  15.620  0.7727 -0.3913  1.8473
 9736TIP3   OH250622   3.064   0.434   5.721  0.4544  0.1044  0.7493
 9736TIP3    H150623   3.084   0.495   5.792  0.6782  0.1997  0.6033
 9736TIP3    H250624   2.973   0.452   5.699  0.0476 -0.6829  1.7631
 9737TIP3   OH250625   3.866   2.959   2.398  0.6982  0.0758 -0.0513
 9737TIP3    H150626   3.771   2.968   2.395  0.5677 -0.8210  0.8895
 9737TIP3    H250627   3.900   3.048   2.387 -0.1762  0.1045 -2.7291
 9738TIP3   OH250628   0.902   4.852  14.273  0.0206  0.3983  0.4418
 9738TIP3    H150629   0.816   4.818  14.298 -0.2566  0.9080  0.1932
 9738TIP3    H250630   0.891   4.881  14.182  0.2113  1.2821  0.6972
 9739TIP3   OH250631   3.049   6.400   4.059  0.8880 -0.3474 -0.4307
 9739TIP3    H150632   3.083   6.451   3.986  0.0145  2.5404  1.0937
 9739TIP3    H250633   3.080   6.447   4.137 -0.4515 -1.8365  1.0380
 9740TIP3   OH250634   3.830   3.700  12.823 -0.1357 -0.3669 -0.5276
 9740TIP3    H150635   3.780   3.706  12.742  0.9781 -2.4115 -1.4212
 9740TIP3    H250636   3.846   3.791  12.849 -0.6826  0.3005 -2.4739
 9741TIP3   OH250637   4.292   1.460  13.789 -0.1600 -0.0309 -0.0536
 9741TIP3    H150638   4.312   1.534  13.732  0.5876 -0.4871 -0.3876
 9741TIP3    H250639   4.202   1.436  13.766 -0.6019  1.1246  0.4535
 9742TIP3   OH250640   0.399   3.325  12.797  0.4989  0.0148 -0.3861
 9742TIP3    H150641   0.459   3.282  12.859 -0.4496 -0.7224  0.0292
 9742TIP3    H250642   0.420   3.418  12.805  0.5877 -0.0953  0.8505
 9743TIP3   OH250643   1.340   3.385  12.635 -0.5461 -0.0619  0.2222
 9743TIP3    H150644   1.334   3.462  12.579  0.8867 -1.0141 -1.2902
 9743TIP3    H250645   1.251   3.350  12.637 -0.5423 -0.2446 -1.8242
 9744TIP3   OH250646   3.912   3.529  14.416  0.4552 -0.4969  0.0328
 9744TIP3    H150647   3.954   3.546  14.332  1.0106  1.7306  0.7343
 9744TIP3    H250648   3.908   3.433  14.421  1.4256 -0.6877 -2.0133
 9745TIP3   OH250649   1.707   5.764  14.696  0.2893  0.1416 -0.3218
 9745TIP3    H150650   1.687   5.677  14.733 -0.4086  0.7640  0.7922
 9745TIP3    H250651   1.662   5.764  14.612  0.0590 -0.4778 -0.2060
 9746TIP3   OH250652   5.712   4.835   1.606 -0.0803 -0.1990  0.2244
 9746TIP3    H150653   5.661   4.911   1.635  2.4511  2.1613 -1.3718
 9746TIP3    H250654   5.784   4.829   1.669  0.6457 -0.2915 -0.6173
 9747TIP3   OH250655   4.124   3.353   1.059  0.2930 -0.1716 -0.3311
 9747TIP3    H150656   4.160   3.289   0.998 -2.2610 -3.5358  1.5434
 9747TIP3    H250657   4.075   3.413   1.003 -0.7600 -2.3207 -1.7773
 9748TIP3   OH250658   3.721   5.784   5.025  0.0275  0.1097  0.5586
 9748TIP3    H150659   3.804   5.819   5.057 -1.5266  3.2713  1.2875
 9748TIP3    H250660   3.702   5.711   5.084  0.1498  2.1475  3.2157
 9749TIP3   OH250661   4.444   3.673   5.079 -0.6679 -0.0025  0.3898
 9749TIP3    H150662   4.422   3.598   5.133  0.2984  0.5852  1.6210
 9749TIP3    H250663   4.407   3.748   5.125 -0.7660  0.3907 -0.3195
 9750TIP3   OH250664   4.100   1.984  12.686 -0.1572  0.6995 -0.6049
 9750TIP3    H150665   4.036   1.914  12.672 -0.5703  1.0458 -0.4548
 9750TIP3    H250666   4.155   1.951  12.757  0.8906 -0.3310 -1.8618
 9751TIP3   OH250667   0.935   1.943  11.769  0.1318 -0.7081  0.2413
 9751TIP3    H150668   0.852   1.925  11.813  0.0627 -1.8345 -0.3313
 9751TIP3    H250669   0.914   2.008  11.703  0.0160  0.1666  1.1254
 9752TIP3   OH250670   3.484   5.913   1.209 -0.2305  0.4701  0.0789
 9752TIP3    H150671   3.509   5.843   1.149  0.1098 -0.3671  1.1985
 9752TIP3    H250672   3.437   5.976   1.154 -1.9647 -1.3999 -0.6317
 9753TIP3   OH250673   4.302   0.741  14.110  0.6706 -0.6678 -0.2706
 9753TIP3    H150674   4.282   0.806  14.177 -0.8767 -1.0235 -0.3550
 9753TIP3    H250675   4.258   0.661  14.140 -1.1578 -0.4913 -2.3309
 9754TIP3   OH250676   3.564   6.412  10.916 -0.5710  0.2886 -0.3544
 9754TIP3    H150677   3.489   6.470  10.901  0.0494  1.5042  1.1546
 9754TIP3    H250678   3.638   6.459  10.879 -0.3545 -0.3487 -0.7207
 9755TIP3   OH250679   6.455   0.879  14.314  0.8270  0.5929 -0.5933
 9755TIP3    H150680   6.518   0.890  14.244 -1.4018 -2.0507 -3.1409
 9755TIP3    H250681   6.371   0.903  14.275 -0.3258  0.1276  1.5155
 9756TIP3   OH250682   1.050   4.575  10.742 -0.3604 -0.1386  0.0611
 9756TIP3    H150683   1.069   4.504  10.681 -2.2287 -0.5100 -0.1383
 9756TIP3    H250684   0.963   4.554  10.776 -1.0209  2.1467 -0.1212
 9757TIP3   OH250685   0.507   0.086   5.675  0.0984  0.2108  0.8793
 9757TIP3    H150686   0.530   0.100   5.767  0.8217 -1.6727  1.0229
 9757TIP3    H250687   0.412   0.098   5.672  0.1139  0.6129  1.8120
 9758TIP3   OH250688   4.358   0.140   2.613  0.0371 -0.2996  0.2789
 9758TIP3    H150689   4.416   0.127   2.538  1.3322  2.8038  0.6622
 9758TIP3    H250690   4.320   0.227   2.599 -1.5858 -0.7022  2.0018
 9759TIP3   OH250691   5.136   2.096  15.829  0.5755  0.6873 -0.5346
 9759TIP3    H150692   5.101   2.180  15.857  1.4963  1.5641 -1.9427
 9759TIP3    H250693   5.069   2.061  15.770 -0.6845 -0.4783  1.5296
 9760TIP3   OH250694   2.138   0.097   3.193 -0.2027 -0.2370  0.0506
 9760TIP3    H150695   2.136   0.028   3.260  0.4615 -0.4784 -0.1765
 9760TIP3    H250696   2.093   0.058   3.118  0.4243 -0.5326 -0.1765
 9761TIP3   OH250697   1.734   0.287  13.025 -0.0292  0.1303  0.3115
 9761TIP3    H150698   1.785   0.206  13.023  0.5309  0.5176 -1.4288
 9761TIP3    H250699   1.793   0.351  13.065  0.1179  0.0881  0.1620
 9762TIP3   OH250700   6.427   5.099  15.952  0.2003 -0.4699  0.1338
 9762TIP3    H150701   6.448   5.057  15.870 -1.3974 -0.7259 -0.1643
 9762TIP3    H250702   6.469   5.045  16.019  0.5298 -0.9221 -0.4400
 9763TIP3   OH250703   3.600   1.890  11.713  0.3766  0.3343  0.0930
 9763TIP3    H150704   3.557   1.809  11.742  0.8638  0.0628  0.0690
 9763TIP3    H250705   3.683   1.891  11.761  0.9535  0.1451 -0.8817
 9764TIP3   OH250706   1.401   6.149   4.720 -0.3783 -0.0002  0.2815
 9764TIP3    H150707   1.450   6.120   4.796 -3.3095 -0.4875  2.0552
 9764TIP3    H250708   1.340   6.077   4.701 -0.8947  0.8516 -1.4093
 9765TIP3   OH250709   6.085   4.664   5.295 -0.5477  1.1357 -0.3484
 9765TIP3    H150710   6.131   4.582   5.276  0.4811  1.7447 -0.5176
 9765TIP3    H250711   5.997   4.651   5.258 -1.2210 -0.8427  1.8368
 9766TIP3   OH250712   2.709   4.980  12.306 -0.3203  0.2260 -0.2833
 9766TIP3    H150713   2.636   4.937  12.261 -1.0592  0.2953  0.8455
 9766TIP3    H250714   2.754   4.910  12.352 -0.4292  0.3825  0.0609
 9767TIP3   OH250715   2.683   0.954   1.840 -0.2016 -0.4599  0.4386
 9767TIP3    H150716   2.633   0.910   1.909  0.8232 -1.2639  0.6999
 9767TIP3    H250717   2.664   1.047   1.852 -0.3709 -0.6229  1.5518
 9768TIP3   OH250718   3.934   5.861  15.589  0.2804  0.1205  0.2359
 9768TIP3    H150719   4.011   5.881  15.535  1.0495 -1.5678  0.6621
 9768TIP3    H250720   3.943   5.919  15.665  0.0838  1.2966 -0.6067
 9769TIP3   OH250721   5.842   1.185   4.543 -0.4138 -0.4993  0.1140
 9769TIP3    H150722   5.848   1.250   4.613 -0.1726  1.1260 -1.3768
 9769TIP3    H250723   5.904   1.116   4.568  1.9811  1.5478 -0.0405
 9770TIP3   OH250724   1.551   4.915  11.863  0.1913 -0.3535  0.4471
 9770TIP3    H150725   1.610   4.840  11.866  0.5917 -0.1588 -2.0445
 9770TIP3    H250726   1.591   4.980  11.921  2.6677 -0.0826 -1.4851
 9771TIP3   OH250727   6.632   6.618  11.598 -0.5521 -0.2094 -0.3511
 9771TIP3    H150728   6.710   6.659  11.561 -1.4122 -0.5170 -2.5213
 9771TIP3    H250729   6.663   6.533  11.630  0.3741  0.4296  0.4886
 9772TIP3   OH250730   0.333   1.470   2.538 -0.6920 -0.0773 -0.8172
 9772TIP3    H150731   0.369   1.559   2.535 -0.4139 -0.0493  2.0574
 9772TIP3    H250732   0.408   1.413   2.522 -0.0930  0.1113  1.1797
 9773TIP3   OH250733   0.188   2.823  15.651 -0.1453 -0.1261  0.5537
 9773TIP3    H150734   0.236   2.752  15.609 -1.7572 -0.7954 -0.1976
 9773TIP3    H250735   0.239   2.844  15.729  1.7508 -0.3153 -0.6009
 9774TIP3   OH250736   0.805   2.357   5.847  0.5276 -0.3559 -1.0067
 9774TIP3    H150737   0.771   2.421   5.910  0.4175 -1.8588  0.4848
 9774TIP3    H250738   0.775   2.389   5.762  0.5212  1.6057 -0.3084
 9775TIP3   OH250739   3.884   6.579   5.448 -0.0571 -0.2546 -0.0259
 9775TIP3    H150740   3.961   6.566   5.504  0.3380 -0.4133 -0.6006
 9775TIP3    H250741   3.916   6.631   5.375  0.0280 -2.2064 -1.4093
 9776TIP3   OH250742   2.266   1.381  14.173  0.3879  0.1167  0.2458
 9776TIP3    H150743   2.334   1.381  14.240 -0.9268 -2.4121  1.6709
 9776TIP3    H250744   2.225   1.295  14.181 -1.4626  0.7256 -2.1244
 9777TIP3   OH250745   1.911   0.203  10.733 -0.4784  0.0059 -0.6100
 9777TIP3    H150746   1.911   0.130  10.672 -1.4915 -0.9244  0.4861
 9777TIP3    H250747   2.004   0.220  10.750 -0.2413 -1.4076 -0.4322
 9778TIP3   OH250748   3.116   0.553  12.402 -0.4412  0.0309 -0.5834
 9778TIP3    H150749   3.066   0.610  12.344  0.7122  1.1604 -0.4994
 9778TIP3    H250750   3.125   0.604  12.483 -0.9791 -1.0235  0.1454
 9779TIP3   OH250751   3.551   5.601  15.650 -0.5007 -0.0594  0.4447
 9779TIP3    H150752   3.541   5.661  15.723 -0.3318 -0.5175  0.8424
 9779TIP3    H250753   3.645   5.582  15.646 -0.6042 -0.6108  0.5716
 9780TIP3   OH250754   2.839   3.363   2.204 -0.6255  0.3290  0.0171
 9780TIP3    H150755   2.760   3.345   2.255  0.7654 -2.1643  1.3990
 9780TIP3    H250756   2.861   3.280   2.163  0.7150  1.2446 -1.1773
 9781TIP3   OH250757   1.614   1.370   3.578  0.4130  0.0774 -0.7324
 9781TIP3    H150758   1.583   1.414   3.499  0.2029  1.1746 -0.0507
 9781TIP3    H250759   1.614   1.439   3.645  2.2905 -0.4142 -0.2046
 9782TIP3   OH250760   4.085   6.344  15.695  0.6549  0.2439  0.3936
 9782TIP3    H150761   4.002   6.319  15.655  0.6410 -0.3947  0.8070
 9782TIP3    H250762   4.097   6.436  15.671 -1.1467  0.9191  1.9660
 9783TIP3   OH250763   4.872   0.444   1.633 -0.3828  0.8877 -0.6382
 9783TIP3    H150764   4.926   0.370   1.608  0.0717  0.5664  1.1679
 9783TIP3    H250765   4.911   0.519   1.589  0.1403  0.2946 -1.1877
 9784TIP3   OH250766   6.558   2.193  12.085 -0.9372  0.6429  0.7682
 9784TIP3    H150767   6.565   2.125  12.017 -2.1988  0.4115  0.8626
 9784TIP3    H250768   6.505   2.262  12.044 -0.8509  0.9490  1.1752
 9785TIP3   OH250769   5.449   4.337  16.020  0.0745 -0.2176 -0.3497
 9785TIP3    H150770   5.543   4.328  16.003 -0.0443  0.9635 -1.7247
 9785TIP3    H250771   5.436   4.296  16.106  1.1769 -3.8976 -1.8194
 9786TIP3   OH250772   5.532   0.961   2.640 -0.0474  0.1710  0.0539
 9786TIP3    H150773   5.520   1.055   2.649 -0.5659  0.0970  0.1421
 9786TIP3    H250774   5.488   0.938   2.558 -0.4443 -0.0861  0.3355
 9787TIP3   OH250775   3.142   3.302  11.535 -0.0038  0.0358 -0.1496
 9787TIP3    H150776   3.066   3.338  11.581  0.6490  1.5424 -0.2506
 9787TIP3    H250777   3.120   3.209  11.523 -1.1933  0.1328  1.1150
 9788TIP3   OH250778   6.136   5.966  15.567  0.2430  0.3703 -0.0061
 9788TIP3    H150779   6.086   5.902  15.518  0.2929  0.0258  0.3866
 9788TIP3    H250780   6.204   5.996  15.507 -0.1237  0.4679 -0.3719
 9789TIP3   OH250781   1.362   3.347   0.058  0.1106 -0.1031 -0.1667
 9789TIP3    H150782   1.344   3.340   0.152 -0.8608  1.2195 -0.2484
 9789TIP3    H250783   1.277   3.338   0.016  0.5834 -1.0283 -0.9577
 9790TIP3   OH250784   5.692   5.327  12.438 -0.1718 -0.1371  0.3925
 9790TIP3    H150785   5.681   5.271  12.362  3.2546 -0.4462  0.0493
 9790TIP3    H250786   5.718   5.412  12.402  2.1790 -0.4799  1.1740
 9791TIP3   OH250787   3.322   3.811  11.662 -0.4962 -0.0205  0.2978
 9791TIP3    H150788   3.390   3.777  11.720 -0.2848 -0.9827 -0.4913
 9791TIP3    H250789   3.253   3.745  11.664  0.1514 -0.7999 -1.6691
 9792TIP3   OH250790   2.801   0.647   3.805  0.0594  0.0409  0.0185
 9792TIP3    H150791   2.865   0.655   3.735  0.1540 -1.1581 -0.0460
 9792TIP3    H250792   2.820   0.720   3.864  0.4446  0.6298 -0.8265
 9793TIP3   OH250793   0.311   1.959   2.396  0.0348 -0.0232  0.7298
 9793TIP3    H150794   0.283   1.934   2.308 -0.2960 -2.3093  1.4535
 9793TIP3    H250795   0.398   1.998   2.383 -0.8756  1.5281 -0.8201
 9794TIP3   OH250796   4.023   0.007   5.292  0.7742 -0.7898 -0.0478
 9794TIP3    H150797   4.019   0.088   5.343 -2.9905 -1.4091  0.8306
 9794TIP3    H250798   4.089   0.023   5.225 -0.2726  3.1913 -0.2149
 9795TIP3   OH250799   1.142   2.315   0.896 -0.1956 -0.1860 -0.5331
 9795TIP3    H150800   1.071   2.348   0.843 -1.5649 -0.3168  1.1710
 9795TIP3    H250801   1.206   2.386   0.899 -1.5529  1.0328  0.2561
 9796TIP3   OH250802   1.474   5.908   4.490  0.0406 -0.6322 -0.3472
 9796TIP3    H150803   1.438   5.963   4.420  2.3625  2.2678  0.6373
 9796TIP3    H250804   1.407   5.908   4.558  0.0416  1.0805 -0.3284
 9797TIP3   OH250805   3.638   6.214   2.930 -0.0841 -0.2500  0.2224
 9797TIP3    H150806   3.674   6.139   2.882 -2.0913 -1.5390  0.6441
 9797TIP3    H250807   3.543   6.197   2.932 -0.5824  2.3739  0.2277
 9798TIP3   OH250808   1.341   4.142   1.563 -0.2467  0.0626 -0.2762
 9798TIP3    H150809   1.408   4.085   1.600 -0.8059 -1.5372 -1.6468
 9798TIP3    H250810   1.273   4.147   1.631  0.2595 -0.1071  0.2450
 9799TIP3   OH250811   5.988   5.033  16.709 -0.0314 -0.5481  0.0198
 9799TIP3    H150812   5.897   5.026  16.681 -0.1909 -0.5069  0.5152
 9799TIP3    H250813   6.025   4.946  16.694 -0.3749 -0.7905  0.5787
 9800TIP3   OH250814   4.872   2.087  14.063 -0.4114  0.1109 -0.0757
 9800TIP3    H150815   4.812   2.097  13.989 -0.6656  0.0184  0.1201
 9800TIP3    H250816   4.951   2.135  14.036  0.1895 -1.4538 -1.1638
 9801TIP3   OH250817   6.564   2.337  14.063  0.5713 -0.2752  0.4307
 9801TIP3    H150818   6.638   2.299  14.014  1.2108  0.4248  0.8418
 9801TIP3    H250819   6.556   2.425  14.028  0.2449 -0.1863  0.7367
 9802TIP3   OH250820   2.770   1.614  13.265 -0.8599 -0.0169  0.8113
 9802TIP3    H150821   2.794   1.641  13.353 -0.9917 -0.4136  0.9720
 9802TIP3    H250822   2.850   1.624  13.214 -0.9632  0.8791  0.8136
 9803TIP3   OH250823   5.852   6.467   0.746 -0.3164  0.1248 -0.2680
 9803TIP3    H150824   5.761   6.484   0.772 -0.0781 -1.2193  1.5104
 9803TIP3    H250825   5.900   6.542   0.781 -0.4123 -0.3102  0.8304
 9804TIP3   OH250826   2.344   4.408  12.841  0.1973  0.3703 -0.1734
 9804TIP3    H150827   2.316   4.482  12.894 -1.9446 -1.8523  1.9127
 9804TIP3    H250828   2.298   4.419  12.758 -0.1226  1.3774  0.1330
 9805TIP3   OH250829   1.988   5.075   3.047  0.5027 -0.0835 -0.3326
 9805TIP3    H150830   2.027   5.097   3.132  0.2269 -2.5458  0.4699
 9805TIP3    H250831   1.899   5.111   3.051  0.7487  0.4839  0.1030
 9806TIP3   OH250832   0.205   5.256  13.269 -0.0712  0.2604  0.1455
 9806TIP3    H150833   0.160   5.300  13.197 -2.3746  0.1034  1.4340
 9806TIP3    H250834   0.236   5.328  13.325 -0.8724  0.3343  0.5033
 9807TIP3   OH250835   6.682   0.772   1.355 -0.4294 -0.3289 -0.1546
 9807TIP3    H150836   6.632   0.724   1.420  0.9070 -1.3145  0.1712
 9807TIP3    H250837   6.735   0.705   1.310  2.1192  0.8953  0.9088
 9808TIP3   OH250838   5.760   6.568  14.610 -0.3639 -0.2853  0.2647
 9808TIP3    H150839   5.709   6.514  14.550 -1.3957 -0.8961  1.6652
 9808TIP3    H250840   5.841   6.586  14.563 -1.7757  0.5348 -1.9228
 9809TIP3   OH250841   3.745   2.922  14.707 -0.1979  0.7081 -0.3553
 9809TIP3    H150842   3.830   2.899  14.670 -0.1785 -0.8181  0.5787
 9809TIP3    H250843   3.708   2.986  14.646  1.7367  1.6086 -0.6030
 9810TIP3   OH250844   2.187   4.362  11.920  0.3966 -0.5513 -0.4770
 9810TIP3    H150845   2.109   4.398  11.960  0.0788 -0.3091 -1.2946
 9810TIP3    H250846   2.155   4.296  11.859  0.8573 -0.8148 -0.4394
 9811TIP3   OH250847   5.464   5.790   0.218 -0.2251 -0.0092 -0.4081
 9811TIP3    H150848   5.440   5.782   0.126 -1.7837  2.7069 -0.2851
 9811TIP3    H250849   5.496   5.880   0.227 -1.7611  0.3304  2.0565
 9812TIP3   OH250850   2.929   5.509   1.878  0.0685  0.3351  0.2858
 9812TIP3    H150851   2.974   5.494   1.795 -0.6522 -0.5000  0.0290
 9812TIP3    H250852   2.987   5.565   1.928  0.7732  0.3661 -0.5643
 9813TIP3   OH250853   6.708   4.717  13.360 -0.0859  0.1869 -0.0146
 9813TIP3    H150854   6.626   4.758  13.334 -0.9802 -0.1137  2.2077
 9813TIP3    H250855   6.705   4.630  13.322 -0.0741  0.7167 -1.2474
 9814TIP3   OH250856   4.282   3.227  15.870 -0.0954 -0.5882 -0.3949
 9814TIP3    H150857   4.233   3.149  15.844  0.1597 -0.4681 -1.2624
 9814TIP3    H250858   4.374   3.201  15.866 -0.0271 -0.3642 -0.2976
 9815TIP3   OH250859   2.119   1.854   4.232 -0.2345  0.6155  0.7091
 9815TIP3    H150860   2.175   1.785   4.269 -2.0567 -0.1883  2.0247
 9815TIP3    H250861   2.178   1.927   4.217  0.8816  0.3795  3.6463
 9816TIP3   OH250862   0.469   3.943   4.827 -0.5009 -0.4789  0.3338
 9816TIP3    H150863   0.426   3.990   4.898 -0.1761  2.1819 -1.1951
 9816TIP3    H250864   0.498   4.011   4.767  1.5756 -2.5205 -1.0565
 9817TIP3   OH250865   6.312   0.498   3.422 -0.1809  0.4242 -0.2590
 9817TIP3    H150866   6.289   0.441   3.349  1.1542 -0.6789  0.1623
 9817TIP3    H250867   6.289   0.586   3.392 -0.5221 -0.1265 -1.6365
 9818TIP3   OH250868   2.959   5.052  13.855 -0.4619 -0.5958  0.3507
 9818TIP3    H150869   3.000   4.992  13.918 -0.4728 -0.4667  0.4813
 9818TIP3    H250870   2.996   5.137  13.875 -0.9123 -0.4503  0.5721
 9819TIP3   OH250871   6.689   2.801  15.708  0.1846 -0.2294  0.1213
 9819TIP3    H150872   6.669   2.767  15.795  0.8643 -0.8172  0.0622
 9819TIP3    H250873   6.785   2.806  15.706  0.1600  0.0787 -0.4748
 9820TIP3   OH250874   4.928   2.841   0.812 -0.5129 -0.1542 -0.3974
 9820TIP3    H150875   4.965   2.891   0.738 -1.6606 -1.5818 -1.9735
 9820TIP3    H250876   4.833   2.841   0.795 -0.8263 -0.1395  1.3225
 9821TIP3   OH250877   4.201   1.645   1.542 -0.2677  0.5491 -0.0661
 9821TIP3    H150878   4.170   1.602   1.463  0.6918 -0.6992  0.2160
 9821TIP3    H250879   4.295   1.656   1.528 -0.3261  1.6101  0.3121
 9822TIP3   OH250880   6.767   6.649  12.978 -0.5791  0.3104  0.2665
 9822TIP3    H150881   6.784   6.732  12.933 -2.8708  0.5676 -0.2051
 9822TIP3    H250882   6.765   6.584  12.909  1.5057 -0.2074  0.6699
 9823TIP3   OH250883   5.304   1.192   2.985 -0.3642  0.1718  0.2917
 9823TIP3    H150884   5.374   1.254   2.966  1.1416 -2.5752 -3.9180
 9823TIP3    H250885   5.327   1.156   3.071  2.7292  0.3058 -0.4121
 9824TIP3   OH250886   0.329   4.834   5.046  0.5351  0.6357  0.1698
 9824TIP3    H150887   0.301   4.896   5.113 -1.8841 -0.1177 -0.0798
 9824TIP3    H250888   0.286   4.864   4.966 -1.6813 -1.9936  0.3015
 9825TIP3   OH250889   1.520   2.121   5.716 -0.2294  0.1314  0.0323
 9825TIP3    H150890   1.478   2.150   5.797  1.8085  0.8577  0.8758
 9825TIP3    H250891   1.455   2.066   5.673 -2.0096  1.2119  1.2812
 9826TIP3   OH250892   0.474   6.686  13.296  0.4445  0.1000 -0.5814
 9826TIP3    H150893   0.449   6.594  13.289  2.2190 -0.5080  0.6288
 9826TIP3    H250894   0.393   6.732  13.318  0.0219 -1.5611  1.4422
 9827TIP3   OH250895   6.199   1.139   0.734  0.3304 -0.3203  0.0003
 9827TIP3    H150896   6.160   1.052   0.720  0.0288 -0.0436 -0.9450
 9827TIP3    H250897   6.293   1.123   0.738  0.2643 -0.7109 -0.0029
 9828TIP3   OH250898   4.862   0.196   5.965 -0.4833 -0.2434  0.1683
 9828TIP3    H150899   4.815   0.215   6.046  0.1325  0.6448  0.3270
 9828TIP3    H250900   4.925   0.268   5.957 -1.2530  0.2411 -1.6385
 9829TIP3   OH250901   3.480   0.675  10.850  0.7370 -0.5819  0.1746
 9829TIP3    H150902   3.552   0.615  10.831  0.4248 -1.6247  2.0730
 9829TIP3    H250903   3.472   0.672  10.946  0.3248  2.0578  0.2594
 9830TIP3   OH250904   3.369   0.640  15.913  0.1999  0.5622  0.1861
 9830TIP3    H150905   3.302   0.678  15.970 -1.6700 -0.8939 -0.9888
 9830TIP3    H250906   3.382   0.552  15.947  0.8524  0.5287 -0.1540
 9831TIP3   OH250907   3.777   5.330   4.942  0.5587  0.3899  0.4899
 9831TIP3    H150908   3.767   5.236   4.932 -0.0681  0.3062  1.7691
 9831TIP3    H250909   3.697   5.367   4.905  1.6433  0.5423 -1.7424
 9832TIP3   OH250910   1.536   6.160  14.070  0.3746 -0.4089  0.7030
 9832TIP3    H150911   1.629   6.176  14.050 -0.1430 -0.4154 -1.8594
 9832TIP3    H250912   1.508   6.238  14.118 -0.0148  2.8183 -4.4812
 9833TIP3   OH250913   0.505   3.167   4.881 -0.6447 -0.1841 -0.3961
 9833TIP3    H150914   0.455   3.110   4.940 -0.5032  2.4933  2.4018
 9833TIP3    H250915   0.438   3.208   4.826 -1.0805 -0.4034 -0.0333
 9834TIP3   OH250916   6.245   0.943   1.111  0.1131 -0.5414  0.1831
 9834TIP3    H150917   6.295   0.938   1.029  0.0248  0.0069  0.0929
 9834TIP3    H250918   6.307   0.915   1.178  0.2053 -0.9386 -0.0639
 9835TIP3   OH250919   3.064   2.127   4.563 -0.1876 -0.1429 -0.5647
 9835TIP3    H150920   3.089   2.097   4.651  1.0398  1.7608 -0.2290
 9835TIP3    H250921   3.121   2.202   4.547 -3.0330  1.9070 -1.4516
 9836TIP3   OH250922   1.937   4.253   0.059 -0.1436 -0.0911  0.0712
 9836TIP3    H150923   1.874   4.323   0.041 -1.1629 -0.9997  0.0974
 9836TIP3    H250924   1.992   4.289   0.129 -1.7258  0.0422  1.2739
 9837TIP3   OH250925   0.519   3.262  12.561 -0.0739 -0.5329  0.0095
 9837TIP3    H150926   0.603   3.295  12.592  0.5574  0.0640 -2.2314
 9837TIP3    H250927   0.456   3.289  12.628  1.0158  1.9097  0.0849
 9838TIP3   OH250928   6.013   2.635   1.088 -0.2367  0.5213 -0.8512
 9838TIP3    H150929   6.080   2.701   1.105  0.9841 -0.7246 -0.7675
 9838TIP3    H250930   5.966   2.668   1.011 -1.4240  2.8283  0.8082
 9839TIP3   OH250931   4.400   0.978  15.306  0.0915  0.4988  0.2093
 9839TIP3    H150932   4.422   0.894  15.348  1.9642  1.1505  0.5558
 9839TIP3    H250933   4.305   0.987  15.320  0.2333 -0.5247  2.0791
 9840TIP3   OH250934   0.159   2.506  13.139  0.0483 -0.1110  0.5346
 9840TIP3    H150935   0.071   2.520  13.104  0.2873  1.2692  0.4740
 9840TIP3    H250936   0.173   2.578  13.200  3.0895  2.7586 -3.2943
 9841TIP3   OH250937   1.270   0.174   2.047  0.1097  0.8943 -0.5900
 9841TIP3    H150938   1.296   0.179   1.955 -0.5317  1.3261 -0.7519
 9841TIP3    H250939   1.239   0.084   2.058  0.4314  0.7663 -0.7327
 9842TIP3   OH250940   1.366   5.883  15.657  0.0406  0.4514  0.2534
 9842TIP3    H150941   1.452   5.925  15.660 -0.9887  2.5188  2.6838
 9842TIP3    H250942   1.343   5.882  15.564  1.3197  2.8652 -0.1430
 9843TIP3   OH250943   5.975   5.183  11.897  0.2588  0.0221 -0.3474
 9843TIP3    H150944   5.986   5.278  11.904 -2.9875  0.4169  0.5454
 9843TIP3    H250945   5.918   5.172  11.821  2.2756 -1.3984 -1.6943
 9844TIP3   OH250946   3.284   5.764  17.078  0.3451  0.0041 -0.0316
 9844TIP3    H150947   3.198   5.761  17.037 -0.3321  1.5588  1.2022
 9844TIP3    H250948   3.343   5.793  17.009 -0.1292 -0.9401 -0.8516
 9845TIP3   OH250949   2.465   3.192  11.485 -0.4980  0.1420 -0.1352
 9845TIP3    H150950   2.398   3.172  11.550  0.2501 -2.6054 -0.1487
 9845TIP3    H250951   2.504   3.107  11.463  3.2528  1.6550  0.1843
 9846TIP3   OH250952   0.560   3.734   0.457  0.0846  0.1188  0.3466
 9846TIP3    H150953   0.478   3.716   0.411  0.0833 -0.5730  0.6199
 9846TIP3    H250954   0.612   3.655   0.446  0.7737  0.6172  0.0549
 9847TIP3   OH250955   4.340   4.334  11.623  0.1910  0.3827 -0.0692
 9847TIP3    H150956   4.298   4.277  11.560 -0.2410  1.0445 -0.3802
 9847TIP3    H250957   4.360   4.277  11.698  1.0905 -0.4946 -0.9580
 9848TIP3   OH250958   2.460   0.557   5.876 -0.3012  0.2967  0.4442
 9848TIP3    H150959   2.473   0.505   5.796 -0.8572  2.1380 -0.8777
 9848TIP3    H250960   2.547   0.562   5.916 -0.0623 -0.8479  0.1017
 9849TIP3   OH250961   5.098   3.638  15.781 -0.1188 -0.0585  0.7977
 9849TIP3    H150962   5.131   3.684  15.704  2.6572 -0.8971  1.4563
 9849TIP3    H250963   5.167   3.578  15.805 -2.3268 -2.2145  1.9885
 9850TIP3   OH250964   4.275   5.277   5.171 -0.0926  0.5183 -0.5088
 9850TIP3    H150965   4.247   5.302   5.082 -0.6371 -2.6788 -1.2812
 9850TIP3    H250966   4.194   5.255   5.216  0.5465 -2.3684 -0.6960
 9851TIP3   OH250967   2.542   0.849  17.164 -0.2697  0.1913 -0.2016
 9851TIP3    H150968   2.595   0.770  17.165 -0.2220  0.1840 -1.7764
 9851TIP3    H250969   2.458   0.822  17.126 -0.0889  0.9745 -1.1997
 9852TIP3   OH250970   1.773   0.292  12.173  0.0795 -0.7330  0.2819
 9852TIP3    H150971   1.771   0.321  12.082  0.5334 -1.8790 -0.0970
 9852TIP3    H250972   1.859   0.321  12.205  0.9038 -2.4160 -0.3597
 9853TIP3   OH250973   0.617   4.279  12.075  0.0963  0.5505  0.0432
 9853TIP3    H150974   0.595   4.233  11.994 -0.5801  0.1431  0.4490
 9853TIP3    H250975   0.532   4.311  12.107  0.3708  0.7628  0.5528
 9854TIP3   OH250976   0.788   5.695  11.911 -0.5660  0.0083 -0.0357
 9854TIP3    H150977   0.840   5.618  11.935 -0.9877 -0.1848  0.2646
 9854TIP3    H250978   0.800   5.756  11.984 -1.6263 -0.4691  0.5562
 9855TIP3   OH250979   1.622   2.310  11.339 -0.0318  0.2628  0.2023
 9855TIP3    H150980   1.706   2.343  11.371 -0.3906  0.2700  1.1297
 9855TIP3    H250981   1.558   2.377  11.365 -0.3622  0.1614 -0.3272
 9856TIP3   OH250982   4.404   2.168  15.786  0.0496  1.0835 -0.5902
 9856TIP3    H150983   4.329   2.136  15.837  1.7411 -0.1502  1.2047
 9856TIP3    H250984   4.386   2.261  15.773 -0.4382  1.4358  2.2836
 9857TIP3   OH250985   1.758   0.515  14.040  0.5394 -0.1326 -0.0661
 9857TIP3    H150986   1.820   0.568  14.089  0.2896  0.9868 -0.9315
 9857TIP3    H250987   1.762   0.428  14.081 -0.1147  0.9114  2.3057
 9858TIP3   OH250988   1.723   6.251   3.471  0.0961 -0.1825  0.0324
 9858TIP3    H150989   1.780   6.196   3.417 -0.3793 -0.1664 -0.5008
 9858TIP3    H250990   1.641   6.201   3.477  0.7097 -0.9995  2.2009
 9859TIP3   OH250991   2.018   0.771   3.141  0.2810  0.1297  0.2739
 9859TIP3    H150992   1.937   0.733   3.174 -0.8157  0.3657 -2.0218
 9859TIP3    H250993   2.048   0.710   3.074  0.0986  1.7865 -1.3592
 9860TIP3   OH250994   0.116   1.773   3.480  0.4600 -0.0633  0.4625
 9860TIP3    H150995   0.143   1.856   3.440 -0.0147 -1.3004 -2.5371
 9860TIP3    H250996   0.194   1.743   3.527  1.7930  0.3345 -1.4345
 9861TIP3   OH250997   5.069   3.367   6.551 -0.0668  0.1377 -0.0736
 9861TIP3    H150998   5.052   3.274   6.565  1.2775 -0.3671 -1.7004
 9861TIP3    H250999   5.013   3.411   6.615  0.6936 -1.8349  2.0164
 9862TIP3   OH251000   6.733   4.504   2.541 -0.3595  0.0437  0.3267
 9862TIP3    H151001   6.726   4.422   2.491 -0.1878  0.8723 -1.0680
 9862TIP3    H251002   6.808   4.490   2.599  1.5821  0.3162 -2.0473
 9863TIP3   OH251003   3.302   2.763  12.021 -0.5319  0.2956 -0.6312
 9863TIP3    H151004   3.335   2.698  11.959 -0.1143 -0.6339  0.5672
 9863TIP3    H251005   3.367   2.765  12.091 -2.6117 -0.9746  1.3737
 9864TIP3   OH251006   2.290   0.203  12.573  0.2222 -0.0524  0.4370
 9864TIP3    H151007   2.313   0.285  12.616 -0.9069 -0.4805  1.8790
 9864TIP3    H251008   2.214   0.225  12.519  2.2952  0.7449 -2.2842
 9865TIP3   OH251009   2.217   3.936   1.790  0.0795 -0.1492 -0.2459
 9865TIP3    H151010   2.228   4.023   1.750 -1.4959 -0.3463 -1.1282
 9865TIP3    H251011   2.284   3.882   1.749  1.5363  0.7871  0.8071
 9866TIP3   OH251012   2.879   3.728   3.423 -0.5079  0.1165 -0.3023
 9866TIP3    H151013   2.965   3.698   3.453 -0.8551  0.2684  0.8671
 9866TIP3    H251014   2.893   3.819   3.397 -0.0104 -0.2818 -1.4721
 9867TIP3   OH251015   3.729   1.320  16.225  0.0916 -0.3315  0.5118
 9867TIP3    H151016   3.727   1.230  16.193  0.9522 -0.7525  1.6459
 9867TIP3    H251017   3.783   1.367  16.161 -0.4283 -0.5911 -0.1257
 9868TIP3   OH251018   5.442   3.561  13.100 -0.6671 -0.3832 -0.4277
 9868TIP3    H151019   5.455   3.629  13.166 -1.9959  0.9346 -1.5248
 9868TIP3    H251020   5.519   3.504  13.110 -0.0863  0.6541  1.2223
 9869TIP3   OH251021   3.541   1.842   0.887  0.6842 -0.4343  0.6642
 9869TIP3    H151022   3.474   1.786   0.849  0.6611 -0.4072  0.6644
 9869TIP3    H251023   3.601   1.782   0.930  1.6935 -0.6125 -0.9311
 9870TIP3   OH251024   2.543   0.862   2.081 -0.1693  0.1312  0.0052
 9870TIP3    H151025   2.470   0.803   2.102 -0.7736  0.8051 -0.1934
 9870TIP3    H251026   2.587   0.877   2.164  0.4141 -1.1605 -0.0540
 9871TIP3   OH251027   5.016   3.109   2.879  0.1173 -0.9427 -0.0571
 9871TIP3    H151028   5.104   3.146   2.888  0.8403 -2.7155  0.3186
 9871TIP3    H251029   4.981   3.110   2.968 -1.0092  1.5500 -0.4893
 9872TIP3   OH251030   1.788   5.274   2.719 -0.5105  0.3320  0.6783
 9872TIP3    H151031   1.811   5.343   2.657 -0.2225 -0.5057 -0.1803
 9872TIP3    H251032   1.721   5.312   2.775 -0.1696  1.3829  0.3823
 9873TIP3   OH251033   3.662   4.025  12.658  0.0117 -0.3316 -0.4402
 9873TIP3    H151034   3.753   4.010  12.683  0.4825  0.8003 -1.4119
 9873TIP3    H251035   3.611   3.965  12.713  1.2734 -0.3285  0.7486
 9874TIP3   OH251036   2.034   2.922  15.375  0.3969 -0.3430  0.6207
 9874TIP3    H151037   1.999   2.963  15.296 -1.2280  1.2094  2.1120
 9874TIP3    H251038   1.981   2.844  15.388 -0.2108  0.1027  0.8763
 9875TIP3   OH251039   6.150   2.416  12.117 -0.3334 -0.4535  0.1136
 9875TIP3    H151040   6.179   2.457  12.036  0.8365  0.2633  0.8853
 9875TIP3    H251041   6.054   2.420  12.113 -0.2677  0.2207 -0.8982
 9876TIP3   OH251042   5.158   0.709   0.297  0.3585  0.1311 -0.1994
 9876TIP3    H151043   5.152   0.783   0.236  0.3091  1.1322  0.9957
 9876TIP3    H251044   5.229   0.734   0.357 -1.4460  0.4350  1.8413
 9877TIP3   OH251045   4.142   0.073  10.307  0.2833 -0.1251 -0.3681
 9877TIP3    H151046   4.214   0.084  10.370  0.4733 -3.7803  0.2053
 9877TIP3    H251047   4.078   0.140  10.331  0.7162 -0.9119  3.2789
 9878TIP3   OH251048   0.751   1.797   3.079 -1.2944  0.6193  0.5497
 9878TIP3    H151049   0.815   1.746   3.031 -0.1174  1.1765  1.4843
 9878TIP3    H251050   0.775   1.784   3.171 -2.4949  0.8673  0.8991
 9879TIP3   OH251051   3.420   4.604   5.777 -0.9991 -0.1979 -0.2363
 9879TIP3    H151052   3.505   4.601   5.732 -0.8316  2.3400 -0.1630
 9879TIP3    H251053   3.441   4.636   5.864 -1.6860 -2.4138  0.7592
 9880TIP3   OH251054   0.819   2.848   3.633 -0.3578 -0.1724 -0.3243
 9880TIP3    H151055   0.767   2.888   3.704  0.1744  0.8884 -0.5262
 9880TIP3    H251056   0.908   2.845   3.668  0.2679  2.1260 -1.6646
 9881TIP3   OH251057   5.397   1.865  16.065 -0.7713 -0.0020 -0.6679
 9881TIP3    H151058   5.302   1.854  16.075 -0.6137 -1.5516 -0.6687
 9881TIP3    H251059   5.411   1.873  15.971 -0.9481  0.8403 -0.6295
 9882TIP3   OH251060   1.307   3.093  12.082 -0.1718  0.0687 -0.3298
 9882TIP3    H151061   1.379   3.139  12.125 -1.6873  1.9499  0.2513
 9882TIP3    H251062   1.280   3.152  12.011 -1.0102 -0.7059 -0.6568
 9883TIP3   OH251063   3.146   6.772  12.820 -0.5517 -0.7464 -0.3707
 9883TIP3    H151064   3.066   6.774  12.873 -0.7967 -1.0618 -0.7187
 9883TIP3    H251065   3.144   6.686  12.779  0.0716 -0.8246 -0.2297
 9884TIP3   OH251066   5.045   5.711   4.039  0.0761 -0.6070 -0.6363
 9884TIP3    H151067   4.974   5.655   4.069  1.0324 -2.1831 -1.2612
 9884TIP3    H251068   5.089   5.739   4.120 -1.4805  0.7375 -0.2177
 9885TIP3   OH251069   2.880   4.965  17.123 -0.2480  0.2491  0.3894
 9885TIP3    H151070   2.809   4.995  17.180 -0.4166  0.2721  0.1679
 9885TIP3    H251071   2.838   4.950  17.038 -0.4248 -1.8309  0.8195
 9886TIP3   OH251072   2.580   1.457  13.849 -0.1576 -0.4905  0.5417
 9886TIP3    H151073   2.595   1.475  13.756 -0.2747  0.3083  0.6704
 9886TIP3    H251074   2.667   1.449  13.887 -0.1142 -3.4772 -0.1246
 9887TIP3   OH251075   5.719   4.303  10.966  0.0693  0.9895  0.1057
 9887TIP3    H151076   5.624   4.289  10.975  0.0259  0.7177 -0.7257
 9887TIP3    H251077   5.737   4.285  10.874  1.0070  0.6383  0.3549
 9888TIP3   OH251078   2.403   1.086   2.690 -0.3867  0.2874 -0.1739
 9888TIP3    H151079   2.363   1.077   2.777 -1.5879  1.0066 -0.6456
 9888TIP3    H251080   2.329   1.100   2.631  0.4984  0.7643 -1.1797
 9889TIP3   OH251081   0.805   4.909   5.876  0.3687 -0.1971 -0.3933
 9889TIP3    H151082   0.745   4.980   5.854  1.3402  0.8314  0.2047
 9889TIP3    H251083   0.807   4.854   5.798  0.2235  0.8710 -1.1663
 9890TIP3   OH251084   3.242   2.682   1.958  0.7393  0.8318 -0.0593
 9890TIP3    H151085   3.296   2.665   1.881  1.2680  0.0748  0.4703
 9890TIP3    H251086   3.153   2.689   1.924  0.6082 -2.0151 -0.4727
 9891TIP3   OH251087   6.133   6.549   6.084 -0.4107  0.7642 -1.1496
 9891TIP3    H151088   6.062   6.584   6.138  0.3342  0.7228 -0.1442
 9891TIP3    H251089   6.187   6.497   6.144 -0.9499 -1.3427 -2.4257
 9892TIP3   OH251090   1.378   3.857   0.686 -0.5172  0.1528 -0.4259
 9892TIP3    H151091   1.356   3.764   0.696 -0.3622  0.1564 -0.0386
 9892TIP3    H251092   1.345   3.898   0.766 -2.7521  0.8393 -1.6762
 9893TIP3   OH251093   0.117   3.017   4.474 -0.3399 -0.0263  0.8976
 9893TIP3    H151094   0.083   2.943   4.423 -0.8817  0.1519  0.9957
 9893TIP3    H251095   0.073   3.094   4.436  0.3131  0.2571  0.7131
 9894TIP3   OH251096   0.947   1.553  11.193  0.2797  0.4519 -0.2304
 9894TIP3    H151097   0.892   1.508  11.128  0.8273 -0.1456 -0.2851
 9894TIP3    H251098   0.939   1.645  11.170  0.1908  0.2789 -0.9350
 9895TIP3   OH251099   2.016   5.244   2.032  0.2996  0.1471  0.2190
 9895TIP3    H151100   1.982   5.301   2.102 -1.8170 -0.7466 -0.0341
 9895TIP3    H251101   1.938   5.207   1.992  1.6084 -2.6676  0.1365
 9896TIP3   OH251102   4.232   0.232   3.649 -0.4004  0.6247  0.3939
 9896TIP3    H151103   4.153   0.285   3.644  0.1565  1.3835 -0.4517
 9896TIP3    H251104   4.214   0.157   3.591 -1.2952 -0.2742  1.8087
 9897TIP3   OH251105   4.989   3.218  16.018  0.8033  0.0121 -0.2521
 9897TIP3    H151106   5.059   3.271  15.980  0.1067  0.2369 -1.2335
 9897TIP3    H251107   4.924   3.210  15.948  0.0005 -0.4732  0.5387
 9898TIP3   OH251108   0.217   2.092  11.073 -0.3043 -0.1894 -0.3948
 9898TIP3    H151109   0.309   2.099  11.050  0.6459 -1.3778  2.7624
 9898TIP3    H251110   0.194   2.001  11.052 -0.5930 -0.0668 -0.6154
 9899TIP3   OH251111   3.690   6.786   5.019  0.4362 -0.2061 -0.0016
 9899TIP3    H151112   3.704   6.696   4.990  1.2398  0.3785 -1.5000
 9899TIP3    H251113   3.603   6.808   4.986  1.1807  0.3179 -1.6886
 9900TIP3   OH251114   5.140   5.759   2.601 -0.5240  0.3088  0.1951
 9900TIP3    H151115   5.202   5.692   2.630 -0.9390  0.0123  0.4063
 9900TIP3    H251116   5.193   5.820   2.550 -0.2645 -0.4976 -0.5004
 9901TIP3   OH251117   0.630   5.476   5.201 -0.3584  0.3643 -0.1030
 9901TIP3    H151118   0.551   5.519   5.233  0.0852  1.9426 -1.0788
 9901TIP3    H251119   0.685   5.547   5.167  0.7499 -0.8752 -1.0013
 9902TIP3   OH251120   0.230   1.089   5.496  0.1979 -0.4004 -0.1778
 9902TIP3    H151121   0.281   1.140   5.433  0.1627 -0.2939 -0.1205
 9902TIP3    H251122   0.291   1.073   5.568 -0.4065  1.3397  0.7397
 9903TIP3   OH251123   6.695   2.058  11.425  0.6303  0.8392  0.2547
 9903TIP3    H151124   6.718   2.093  11.339  0.0479  2.4935  0.7635
 9903TIP3    H251125   6.600   2.059  11.427  0.5900 -1.1118  0.1561
 9904TIP3   OH251126   4.302   3.331  15.532  0.8814  0.1505  0.8495
 9904TIP3    H151127   4.246   3.399  15.495  0.1368 -0.2660  1.2154
 9904TIP3    H251128   4.279   3.328  15.624  0.4843 -1.0210  0.7126
 9905TIP3   OH251129   4.668   6.025   5.140  0.5111  0.2726 -0.0584
 9905TIP3    H151130   4.664   6.119   5.158  1.7359  0.8414 -2.5037
 9905TIP3    H251131   4.683   6.020   5.046  0.0114 -2.3990 -0.0164
 9906TIP3   OH251132   1.509   2.920  13.756 -0.2049 -0.1111  0.1487
 9906TIP3    H151133   1.508   2.829  13.787 -0.7682 -0.0463  0.3395
 9906TIP3    H251134   1.576   2.963  13.809 -1.1092 -0.0196  1.2517
 9907TIP3   OH251135   0.180   4.947   5.673 -0.0881 -0.4420  0.0432
 9907TIP3    H151136   0.255   4.947   5.732 -1.1528  2.5087  1.5124
 9907TIP3    H251137   0.107   4.915   5.727 -0.5074 -0.4564 -0.5211
 9908TIP3   OH251138   2.559   1.889  14.665  0.1817 -0.5124  0.2210
 9908TIP3    H151139   2.611   1.810  14.659 -0.3039 -0.7314 -1.1977
 9908TIP3    H251140   2.525   1.888  14.755  0.8561 -1.4646  0.4715
 9909TIP3   OH251141   0.677   5.429   2.227 -0.1884  0.3608  0.1103
 9909TIP3    H151142   0.655   5.394   2.313  1.8758 -1.3423 -0.0218
 9909TIP3    H251143   0.617   5.384   2.167 -0.6200  0.4420  0.4818
 9910TIP3   OH251144   4.714   6.744   0.470  0.2668 -0.0085  1.2521
 9910TIP3    H151145   4.662   6.823   0.457  1.4803  0.4723 -0.7849
 9910TIP3    H251146   4.666   6.676   0.424  1.5598  0.5034 -0.9153
 9911TIP3   OH251147   5.704   2.510   5.278  0.3317 -0.2532 -0.1036
 9911TIP3    H151148   5.794   2.534   5.300  0.2602  0.5411 -0.6815
 9911TIP3    H251149   5.711   2.418   5.250  0.9595 -0.1948 -0.1548
 9912TIP3   OH251150   1.419   6.634  16.811  0.0165  0.0672 -0.0784
 9912TIP3    H151151   1.373   6.707  16.769  0.7476  0.0509 -0.9099
 9912TIP3    H251152   1.501   6.626  16.764  1.1415  0.4403  1.7561
 9913TIP3   OH251153   0.670   1.405   0.387  0.1201  0.2112  0.0726
 9913TIP3    H151154   0.666   1.493   0.426 -1.3787  0.2003 -0.0182
 9913TIP3    H251155   0.643   1.346   0.457  1.7200 -0.2520  0.3136
 9914TIP3   OH251156   2.106   1.351  10.752 -0.1917  0.3264  0.1697
 9914TIP3    H151157   2.196   1.330  10.777 -0.4101  1.0047  1.5698
 9914TIP3    H251158   2.055   1.274  10.778 -0.3157  0.7588  1.2261
 9915TIP3   OH251159   6.274   5.601   0.716  0.0056  0.2718  0.0554
 9915TIP3    H151160   6.361   5.574   0.748 -0.6006  0.2419  1.7573
 9915TIP3    H251161   6.254   5.679   0.767 -0.7146  0.6231 -0.7632
 9916TIP3   OH251162   0.382   6.075   3.675 -0.0007 -0.1009 -0.0336
 9916TIP3    H151163   0.458   6.123   3.706  0.3620 -0.4202 -0.4322
 9916TIP3    H251164   0.398   6.062   3.581 -0.6888  0.1084 -0.1847
 9917TIP3   OH251165   4.033   2.538  13.217  0.5670 -0.2620  0.2053
 9917TIP3    H151166   4.034   2.459  13.163 -0.2726 -0.3417  0.2937
 9917TIP3    H251167   3.990   2.604  13.163  1.6169  0.2423 -0.0116
 9918TIP3   OH251168   0.001   4.219   2.474  0.0251  0.7087 -0.2115
 9918TIP3    H151169  -0.017   4.139   2.524 -1.4331  1.6428  0.7771
 9918TIP3    H251170   0.076   4.259   2.519 -0.7002  1.0691  0.6908
 9919TIP3   OH251171   0.917   2.426   0.732  0.3962 -0.2250  0.1224
 9919TIP3    H151172   0.890   2.511   0.769  0.5077 -0.4112  0.6235
 9919TIP3    H251173   0.944   2.447   0.642 -1.6907 -0.0697 -0.4969
 9920TIP3   OH251174   4.571   0.963   0.199 -0.0797  0.3708  0.3193
 9920TIP3    H151175   4.515   0.997   0.129  0.5186 -1.1175 -0.8871
 9920TIP3    H251176   4.582   0.870   0.179  0.1848 -0.0690  2.3304
 9921TIP3   OH251177   2.601   5.281   1.212  0.3085 -0.0654 -0.1395
 9921TIP3    H151178   2.611   5.238   1.297  1.4224 -1.0036 -0.7292
 9921TIP3    H251179   2.689   5.278   1.173  0.1661  1.7790 -0.6576
 9922TIP3   OH251180   6.459   0.300  14.620 -0.4688  0.5760 -0.4012
 9922TIP3    H151181   6.502   0.221  14.653 -0.5357  0.7120  0.0131
 9922TIP3    H251182   6.434   0.348  14.699  0.4030  1.4607 -0.6546
 9923TIP3   OH251183   6.612   0.811   0.722  0.1078 -0.4415 -0.1856
 9923TIP3    H151184   6.683   0.848   0.669  0.4072  0.4493  0.8202
 9923TIP3    H251185   6.655   0.744   0.776  0.0496 -0.3879 -0.0735
 9924TIP3   OH251186   2.277   2.581   5.428 -0.3698 -0.0161 -0.4080
 9924TIP3    H151187   2.326   2.572   5.346  1.2293  0.7829  0.4408
 9924TIP3    H251188   2.185   2.570   5.402  0.2639 -2.0692 -1.9529
 9925TIP3   OH251189   0.170   4.335   4.250  0.5759  0.1205 -0.1144
 9925TIP3    H151190   0.162   4.339   4.345  1.4793  1.1833 -0.0642
 9925TIP3    H251191   0.141   4.247   4.226 -1.5152  0.4896  0.9501
 9926TIP3   OH251192   1.416   5.383  11.131  0.2648 -0.3610  0.5116
 9926TIP3    H151193   1.331   5.425  11.121  0.3693 -0.4968 -1.0246
 9926TIP3    H251194   1.431   5.338  11.048  1.5331 -0.9090  1.0146
 9927TIP3   OH251195   4.570   1.644   4.542 -0.2555 -0.5417  0.5950
 9927TIP3    H151196   4.512   1.569   4.551  1.1957 -1.9592 -1.3512
 9927TIP3    H251197   4.657   1.606   4.532  0.9708  1.5262  2.9053
 9928TIP3   OH251198   1.859   0.844  15.787 -0.3700  0.4618  0.0603
 9928TIP3    H151199   1.875   0.841  15.881  1.8720  2.9533 -0.1964
 9928TIP3    H251200   1.802   0.919  15.775 -1.6644 -0.5958 -0.4542
 9929TIP3   OH251201   1.084   2.457  16.407  0.2478 -0.8368 -0.0101
 9929TIP3    H151202   1.133   2.375  16.408  2.4988  0.4594  0.7886
 9929TIP3    H251203   1.094   2.492  16.495  1.7606  1.6444 -1.0934
 9930TIP3   OH251204   5.620   2.154  13.831  0.3078  0.2888  0.0402
 9930TIP3    H151205   5.601   2.242  13.799  0.3430  0.7471  1.2894
 9930TIP3    H251206   5.578   2.096  13.767 -1.9127  1.2478  0.5927
 9931TIP3   OH251207   0.579   1.587  16.457  0.0940 -0.2083 -0.0734
 9931TIP3    H151208   0.591   1.681  16.472 -0.7795  0.0553 -0.9204
 9931TIP3    H251209   0.657   1.546  16.493  0.6599  0.8830 -0.0509
 9932TIP3   OH251210   0.927   3.974   3.606 -0.0933  0.5131 -0.2418
 9932TIP3    H151211   1.022   3.979   3.604 -0.0805  0.0669 -0.7710
 9932TIP3    H251212   0.899   4.064   3.623  0.4141  0.7122 -0.4408
 9933TIP3   OH251213   0.144   4.966   0.816 -0.1491 -0.8823  0.1114
 9933TIP3    H151214   0.206   4.913   0.766  0.6044  1.1035 -1.0971
 9933TIP3    H251215   0.058   4.934   0.788  0.2601 -0.1333 -2.1232
 9934TIP3   OH251216   4.475   1.145  16.627  0.2653 -0.5501 -0.0068
 9934TIP3    H151217   4.552   1.175  16.675 -0.4990  0.8846  0.3166
 9934TIP3    H251218   4.470   1.051  16.647  1.0311 -0.3445  1.1835
 9935TIP3   OH251219   2.412   1.256   4.061 -0.0364  1.1103  0.2849
 9935TIP3    H151220   2.397   1.311   3.984  1.0012  0.9001 -0.0803
 9935TIP3    H251221   2.462   1.181   4.027 -0.4404  0.5197  0.9854
 9936TIP3   OH251222   4.277   4.526   1.163 -0.2879 -0.4021 -0.8495
 9936TIP3    H151223   4.279   4.431   1.155  0.2683 -0.4330 -0.3590
 9936TIP3    H251224   4.334   4.557   1.093  2.7557 -0.5926  1.4181
 9937TIP3   OH251225   4.425   4.140  10.449  0.0293  0.2951  0.3284
 9937TIP3    H151226   4.492   4.159  10.383 -1.0318  0.4591 -0.7180
 9937TIP3    H251227   4.472   4.096  10.519  1.2731  0.5956 -0.3008
 9938TIP3   OH251228   3.951   6.392   5.796 -0.2592  0.6111 -0.0709
 9938TIP3    H151229   3.882   6.457   5.785 -0.4456  0.4111 -0.0777
 9938TIP3    H251230   3.932   6.350   5.879  0.3978  1.2076  0.3858
 9939TIP3   OH251231   4.008   3.824  16.955 -0.0792 -0.3369  0.0619
 9939TIP3    H151232   4.046   3.908  16.927 -0.3340  0.9581  3.3106
 9939TIP3    H251233   4.083   3.773  16.986 -0.1957 -0.4023  0.2393
 9940TIP3   OH251234   6.693   0.899   2.761  0.5345  0.0751  0.4386
 9940TIP3    H151235   6.624   0.885   2.825  0.0582  1.8395  0.3315
 9940TIP3    H251236   6.729   0.985   2.783  0.9650  0.2976 -1.0855
 9941TIP3   OH251237   0.501   0.636  13.079  0.3013  0.2895  0.2249
 9941TIP3    H151238   0.523   0.668  12.992  0.3601 -0.4563 -0.0433
 9941TIP3    H251239   0.506   0.540  13.071  1.5928  0.2559  1.3946
 9942TIP3   OH251240   3.013   5.769  14.975 -0.0046 -0.3982 -0.1835
 9942TIP3    H151241   2.938   5.709  14.964 -0.5359  0.2153  0.0753
 9942TIP3    H251242   3.040   5.758  15.066 -0.7188  0.4678  0.1366
 9943TIP3   OH251243   0.561   6.374  10.601 -0.1118 -0.7100  0.4959
 9943TIP3    H151244   0.470   6.403  10.602 -0.3512 -1.4129 -0.2734
 9943TIP3    H251245   0.604   6.427  10.668 -1.0514 -0.2635  0.7523
 9944TIP3   OH251246   4.523   2.952   1.431  0.1330  0.0237 -0.5120
 9944TIP3    H151247   4.581   2.887   1.393 -0.8135 -0.3915 -1.2668
 9944TIP3    H251248   4.562   3.036   1.406  1.9377 -0.2185  1.3620
 9945TIP3   OH251249   1.713   5.187  11.908  0.3827 -0.2003  0.0894
 9945TIP3    H151250   1.728   5.193  12.002  0.8253  0.9465 -0.0555
 9945TIP3    H251251   1.778   5.245  11.869  0.1209 -0.5774 -0.9161
 9946TIP3   OH251252   5.506   3.905   4.095  0.2012  0.2171 -0.4177
 9946TIP3    H151253   5.556   3.950   4.027 -0.2388  0.5713 -0.5100
 9946TIP3    H251254   5.419   3.894   4.058 -0.4973  1.7869  0.6373
 9947TIP3   OH251255   6.518   5.067  12.189  0.2567 -0.0837 -0.2966
 9947TIP3    H151256   6.602   5.069  12.236  0.0158 -1.1176  0.1786
 9947TIP3    H251257   6.511   4.978  12.157  0.8733  0.8419 -3.1476
 9948TIP3   OH251258   0.219   5.398  12.819  0.5318  0.0134 -0.0164
 9948TIP3    H151259   0.198   5.476  12.766  0.3713 -0.5606 -0.8042
 9948TIP3    H251260   0.264   5.433  12.896  0.9465  0.8456 -0.6311
 9949TIP3   OH251261   4.260   6.397   2.282  0.1551  0.5250  0.7657
 9949TIP3    H151262   4.229   6.319   2.236  1.7011 -0.2784  1.0268
 9949TIP3    H251263   4.289   6.456   2.212 -0.7884  0.7735  0.5784
 9950TIP3   OH251264   4.172   3.266   4.657 -0.0446  0.0223  0.1564
 9950TIP3    H151265   4.153   3.174   4.675  0.9996  0.2539  2.6352
 9950TIP3    H251266   4.135   3.313   4.733  0.4438  1.5243 -0.5239
 9951TIP3   OH251267   5.166   4.913  11.878  0.0761  0.0995 -0.3418
 9951TIP3    H151268   5.110   4.873  11.811 -1.6540 -2.6040  2.5491
 9951TIP3    H251269   5.107   4.966  11.931  0.9000  0.1549  0.5480
 9952TIP3   OH251270   3.733   6.551   0.179  1.0166 -0.2496  0.6658
 9952TIP3    H151271   3.682   6.617   0.131  2.2420 -0.5476 -1.1275
 9952TIP3    H251272   3.736   6.582   0.269  0.8900  1.7394  0.0019
 9953TIP3   OH251273   5.566   1.509  15.903 -0.0981  0.7497 -0.1651
 9953TIP3    H151274   5.523   1.561  15.971 -2.3811 -1.8870  0.4926
 9953TIP3    H251275   5.660   1.524  15.918 -0.5670  0.8625  3.0933
 9954TIP3   OH251276   5.479   5.300   3.374  0.3537  0.1273  0.3020
 9954TIP3    H151277   5.502   5.251   3.454 -2.7977 -0.2026  1.0544
 9954TIP3    H251278   5.437   5.379   3.406 -2.3327 -0.7210 -1.0175
 9955TIP3   OH251279   1.552   3.515  14.084 -0.1608  0.0660 -0.7962
 9955TIP3    H151280   1.496   3.439  14.068 -0.3020 -0.0028 -0.0107
 9955TIP3    H251281   1.509   3.562  14.156  0.9504 -0.1518  0.0210
 9956TIP3   OH251282   3.650   6.374   1.925 -0.7876 -0.1653  0.4567
 9956TIP3    H151283   3.631   6.440   1.859 -0.5497 -0.8512 -0.3043
 9956TIP3    H251284   3.643   6.421   2.008 -0.6991  0.7947 -0.0678
 9957TIP3   OH251285   4.372   6.684   5.699  0.6141  0.1440 -0.5932
 9957TIP3    H151286   4.314   6.710   5.771  1.1667  0.6510 -0.3330
 9957TIP3    H251287   4.458   6.716   5.724  0.9906 -0.5041 -1.0467
 9958TIP3   OH251288   2.249   3.494   0.726  0.5212  0.1087  0.0554
 9958TIP3    H151289   2.177   3.542   0.767  0.5321  1.0524 -1.0357
 9958TIP3    H251290   2.208   3.417   0.687 -0.4454  2.2642 -3.3789
 9959TIP3   OH251291   5.923   3.722  12.113  0.3906 -0.4176  0.4088
 9959TIP3    H151292   5.905   3.816  12.102  1.1373 -0.3728 -0.4978
 9959TIP3    H251293   5.836   3.683  12.127  0.1257  0.4683  1.3478
 9960TIP3   OH251294   6.340   5.172  10.548 -0.1914 -0.6642  0.0942
 9960TIP3    H151295   6.347   5.259  10.511 -1.9953 -0.5643 -0.0390
 9960TIP3    H251296   6.430   5.150  10.576 -0.3852  2.8791  3.9288
 9961TIP3   OH251297   5.117   0.880  13.800  0.4531  0.0789 -0.5588
 9961TIP3    H151298   5.171   0.837  13.734  0.3538 -1.1608  0.1408
 9961TIP3    H251299   5.105   0.813  13.868 -0.3822  0.9592  0.1769
 9962TIP3   OH251300   1.487   6.142   3.172 -0.0387  0.1789  0.4328
 9962TIP3    H151301   1.460   6.186   3.253  0.1975  0.8661  0.1412
 9962TIP3    H251302   1.405   6.123   3.127 -0.2137 -0.9524  1.2202
 9963TIP3   OH251303   1.922   0.393   0.834  0.5866  0.0788 -0.5160
 9963TIP3    H151304   1.940   0.347   0.752 -0.3816 -1.0062 -0.1317
 9963TIP3    H251305   1.936   0.327   0.902 -1.8175  0.0507 -0.0176
 9964TIP3   OH251306   0.680   3.379   1.392  0.8617 -0.5942  0.1978
 9964TIP3    H151307   0.593   3.356   1.359  1.4014 -1.7317 -0.4717
 9964TIP3    H251308   0.664   3.409   1.481 -0.5531  1.9404 -0.8509
 9965TIP3   OH251309   5.245   6.244   1.579 -0.1298 -0.0317  0.5457
 9965TIP3    H151310   5.173   6.226   1.517  0.9217  0.0480 -0.7227
 9965TIP3    H251311   5.324   6.216   1.532  0.7408  0.5605  1.6452
 9966TIP3   OH251312   4.338   4.724   2.276 -0.2772  0.4782  0.3025
 9966TIP3    H151313   4.271   4.669   2.234  1.3490 -0.9131 -0.5463
 9966TIP3    H251314   4.377   4.773   2.203 -0.9807  1.9517  0.9143
 9967TIP3   OH251315   3.188   6.594  10.648  0.6732  0.5932 -0.4941
 9967TIP3    H151316   3.098   6.605  10.678  0.5979 -0.8922 -0.1334
 9967TIP3    H251317   3.183   6.601  10.553 -0.2633 -2.1118 -0.6845
 9968TIP3   OH251318   1.998   6.064  15.343 -0.6997  0.1013  0.3145
 9968TIP3    H151319   2.039   6.141  15.383 -0.8100  0.3675 -0.0908
 9968TIP3    H251320   2.069   6.021  15.295 -0.6774  0.0406  0.4008
 9969TIP3   OH251321   6.160   0.421  15.797 -0.1202  0.2439  0.2938
 9969TIP3    H151322   6.221   0.374  15.853 -1.1397  0.7303  1.8452
 9969TIP3    H251323   6.148   0.506  15.841 -0.5551  0.8277 -0.9267
 9970TIP3   OH251324   3.828   4.439  14.354 -0.4463  0.2008 -0.3001
 9970TIP3    H151325   3.883   4.510  14.387 -0.3775 -0.3445  0.7629
 9970TIP3    H251326   3.807   4.387  14.431  0.3651 -1.5461 -1.2512
 9971TIP3   OH251327   2.087   0.909   6.192 -0.5216 -0.0735 -0.2497
 9971TIP3    H151328   2.043   0.987   6.227  0.3948  0.2541  0.1838
 9971TIP3    H251329   2.138   0.875   6.266 -1.0322 -1.1720 -0.3992
 9972TIP3   OH251330   0.811   6.610  13.033 -0.0570 -0.2252 -0.1124
 9972TIP3    H151331   0.853   6.576  12.954  1.5279 -1.3020  1.1672
 9972TIP3    H251332   0.818   6.705  13.024  2.1730 -0.3697 -0.2074
 9973TIP3   OH251333   4.694   0.714   5.490 -0.6929  0.0281  0.0832
 9973TIP3    H151334   4.627   0.690   5.427 -1.4890  3.2540 -0.3672
 9973TIP3    H251335   4.646   0.751   5.564  0.3447 -1.9805  1.8406
 9974TIP3   OH251336   0.482   1.432  16.250  0.4266  0.3250 -0.1844
 9974TIP3    H151337   0.527   1.491  16.312 -1.3886  1.7298 -0.1650
 9974TIP3    H251338   0.455   1.489  16.178  0.7468 -0.9461 -1.3277
 9975TIP3   OH251339   0.991   4.442  16.726  0.0346 -0.1121  0.5689
 9975TIP3    H151340   0.913   4.389  16.739 -0.4607  0.8268  1.4466
 9975TIP3    H251341   0.977   4.486  16.642 -0.6374  0.4933  0.9933
 9976TIP3   OH251342   1.678   0.391  14.876 -0.1623 -0.4631  0.5492
 9976TIP3    H151343   1.637   0.373  14.960 -0.5908 -2.2855 -0.0462
 9976TIP3    H251344   1.733   0.468  14.892 -0.1169 -0.8979  2.5257
 9977TIP3   OH251345   3.784   1.216  14.280  0.2422 -0.5512  0.1302
 9977TIP3    H151346   3.793   1.306  14.248  0.6742 -0.7823 -0.4007
 9977TIP3    H251347   3.728   1.173  14.216  1.6170 -1.1830 -0.6511
 9978TIP3   OH251348   3.005   6.202   0.493  0.1996 -0.0688 -0.0757
 9978TIP3    H151349   3.005   6.194   0.588  2.0905 -1.4187 -0.1477
 9978TIP3    H251350   2.914   6.189   0.467 -0.4417  0.9988  1.5938
 9979TIP3   OH251351   0.012   4.930  14.021  0.0608 -0.4238 -0.3420
 9979TIP3    H151352   0.078   4.975  13.967 -0.7012  0.6463 -0.4012
 9979TIP3    H251353  -0.068   4.932  13.969 -0.2484 -0.9093  0.1104
 9980TIP3   OH251354   5.580   0.678  11.961  0.5542 -0.3751  0.8917
 9980TIP3    H151355   5.661   0.727  11.954 -0.3144  1.0760  0.7850
 9980TIP3    H251356   5.515   0.743  11.990 -0.3616 -1.7098  1.8825
 9981TIP3   OH251357   4.383   0.198   4.943 -0.0017 -0.2595 -0.0499
 9981TIP3    H151358   4.383   0.141   4.866  0.0128  0.9653 -0.9717
 9981TIP3    H251359   4.325   0.270   4.919  2.2647  1.6172 -0.0547
 9982TIP3   OH251360   5.484   5.308  16.312 -0.5595  0.3989 -0.6934
 9982TIP3    H151361   5.446   5.395  16.320 -2.2040 -0.1646 -2.0075
 9982TIP3    H251362   5.408   5.249  16.312  0.5432 -1.0705  0.6626
 9983TIP3   OH251363   4.958   5.874  10.996  0.1181  0.8144  0.0491
 9983TIP3    H151364   5.047   5.848  10.973  0.0790  0.2024  0.5879
 9983TIP3    H251365   4.902   5.817  10.943  0.0402  0.7249  0.2287
 9984TIP3   OH251366   1.906   4.753   5.900  0.1864  0.0914  0.0445
 9984TIP3    H151367   1.901   4.777   5.992 -2.2538 -1.8439  0.4596
 9984TIP3    H251368   1.932   4.834   5.855 -0.2482  1.4660  2.2286
 9985TIP3   OH251369   3.199   0.306  15.218 -0.4130 -0.3907  0.1547
 9985TIP3    H151370   3.241   0.346  15.141  0.4558 -2.3720 -0.4282
 9985TIP3    H251371   3.222   0.365  15.290  0.5924  0.3348 -0.7263
 9986TIP3   OH251372   3.360   3.841   4.828  0.2531 -0.4709  0.1814
 9986TIP3    H151373   3.350   3.796   4.912  0.1574  1.5609  1.3022
 9986TIP3    H251374   3.453   3.863   4.824  0.1294  0.0403  0.0840
 9987TIP3   OH251375   2.281   6.760  13.923  0.1331  0.0154  0.5562
 9987TIP3    H151376   2.199   6.778  13.877  1.4972  0.4609 -1.8019
 9987TIP3    H251377   2.328   6.844  13.921  0.3517 -0.0292  2.5620
 9988TIP3   OH251378   3.078   2.670  14.603 -0.0476 -0.0676 -0.1738
 9988TIP3    H151379   3.027   2.748  14.623  2.3800  0.7922  3.0255
 9988TIP3    H251380   3.157   2.705  14.560  1.3318 -0.6507  1.8312
 9989TIP3   OH251381   4.310   5.782  11.773  0.1928 -0.0848  0.0094
 9989TIP3    H151382   4.384   5.830  11.738  1.9026 -1.6006  1.4488
 9989TIP3    H251383   4.333   5.765  11.864 -1.4918 -1.3941  0.2172
 9990TIP3   OH251384   4.816   5.817  17.073 -0.3585 -0.4943 -0.8810
 9990TIP3    H151385   4.740   5.788  17.022  0.0837 -1.1369 -1.1890
 9990TIP3    H251386   4.888   5.821  17.010  0.0413 -0.6536 -0.4474
 9991TIP3   OH251387   2.327   4.667  14.233 -0.2973 -0.6767 -0.1694
 9991TIP3    H151388   2.308   4.716  14.153 -0.4873 -0.4004  0.0401
 9991TIP3    H251389   2.417   4.692  14.256  0.1664 -1.6319 -0.9161
 9992TIP3   OH251390   2.806   3.803  12.573 -0.9100  0.4363  0.3529
 9992TIP3    H151391   2.872   3.872  12.582  0.8160 -1.1892  0.5136
 9992TIP3    H251392   2.723   3.850  12.567  0.1593  2.5044  1.1017
 9993TIP3   OH251393   2.151   2.201   0.184  0.2878 -0.4052 -0.0179
 9993TIP3    H151394   2.086   2.197   0.254 -0.5180  0.9328 -0.6656
 9993TIP3    H251395   2.232   2.228   0.227  0.1698 -1.0582  0.6257
 9994TIP3   OH251396   3.970   1.463   1.778  0.1461 -0.2790 -0.0165
 9994TIP3    H151397   3.973   1.557   1.761 -2.0801 -0.4508 -1.4726
 9994TIP3    H251398   4.013   1.453   1.863  0.6404  2.0178  0.0289
 9995TIP3   OH251399   6.116   3.874  14.596 -0.0010 -0.0261 -0.3386
 9995TIP3    H151400   6.095   3.810  14.665 -1.1559  1.0895  0.3523
 9995TIP3    H251401   6.199   3.842  14.559  0.6161 -0.6765  1.5370
 9996TIP3   OH251402   3.170   4.008  16.846 -0.6219  0.5661 -0.3750
 9996TIP3    H151403   3.120   4.086  16.821 -0.6307  1.0451  1.0489
 9996TIP3    H251404   3.169   4.010  16.942  1.2663  0.0285 -0.3296
 9997TIP3   OH251405   3.041   0.088  15.197 -0.4004 -0.2404 -0.2376
 9997TIP3    H151406   3.105   0.159  15.206  1.0367 -1.4369 -0.8762
 9997TIP3    H251407   3.048   0.039  15.279 -1.6847  0.5621  0.3727
 9998TIP3   OH251408   1.073   2.536   4.245  0.5621 -0.2101 -0.3963
 9998TIP3    H151409   1.067   2.442   4.228 -1.6996  0.1269 -1.6477
 9998TIP3    H251410   0.994   2.557   4.294  1.2142  0.9969  0.1685
 9999TIP3   OH251411   5.738   0.514  13.865  0.3693  0.2643  0.0684
 9999TIP3    H151412   5.661   0.471  13.827 -0.0021 -2.8040  3.9815
 9999TIP3    H251413   5.711   0.606  13.874 -2.5414 -0.5725  0.5205
10000TIP3   OH251414   1.676   5.504   2.422  0.0346  0.0194 -0.8930
10000TIP3    H151415   1.736   5.430   2.420 -0.1915 -0.2137  0.3934
10000TIP3    H251416   1.719   5.568   2.479 -1.2492 -0.4451  0.6390
10001TIP3   OH251417   5.455   6.582   4.867 -0.1124  0.1138 -0.4974
10001TIP3    H151418   5.487   6.496   4.894  1.5067  0.4371 -1.2999
10001TIP3    H251419   5.456   6.579   4.772 -0.6990  0.7834 -0.5217
10002TIP3   OH251420   3.828   1.480  14.228  0.3188  0.1157 -0.3373
10002TIP3    H151421   3.898   1.496  14.165  0.5005 -0.5077 -0.2908
10002TIP3    H251422   3.824   1.561  14.279 -0.1289  0.7964 -1.4220
10003TIP3   OH251423   2.541   0.857  11.126  0.0910  0.2471 -0.6090
10003TIP3    H151424   2.561   0.879  11.035 -1.1367  1.8534 -0.5133
10003TIP3    H251425   2.507   0.938  11.163 -1.7996 -1.0364  0.5846
10004TIP3   OH251426   3.241   4.786   3.172 -0.1457 -0.9817 -0.3712
10004TIP3    H151427   3.231   4.798   3.266  0.9339 -1.0562 -0.2312
10004TIP3    H251428   3.336   4.775   3.160 -0.3845 -2.0738 -1.3347
10005TIP3   OH251429   3.924   6.610   2.572  0.6923 -0.4682 -0.0193
10005TIP3    H151430   3.938   6.581   2.482 -1.4846  0.9744 -0.8661
10005TIP3    H251431   3.872   6.541   2.612  0.4987 -0.4789 -0.2875
10006TIP3   OH251432   6.033   0.325  12.192  0.0057  0.0449 -0.0169
10006TIP3    H151433   6.052   0.403  12.141 -1.8089 -0.1824 -1.0565
10006TIP3    H251434   6.042   0.253  12.130  2.4620 -0.6755  1.1212
10007TIP3   OH251435   5.035   1.112   3.034  0.1109 -0.2780  0.1024
10007TIP3    H151436   5.101   1.181   3.038  1.3772 -1.2444 -2.6226
10007TIP3    H251437   5.076   1.037   3.077  0.6330 -0.7048 -1.0904
10008TIP3   OH251438   4.581   1.370   4.205  0.6291 -0.0669 -1.0462
10008TIP3    H151439   4.589   1.316   4.284 -3.0725 -0.7500 -1.0259
10008TIP3    H251440   4.643   1.442   4.219  1.3472 -1.1350  1.6573
10009TIP3   OH251441   0.607   0.627   2.124  0.0378 -0.2260  0.2981
10009TIP3    H151442   0.595   0.629   2.219  0.0692 -0.2339  0.3026
10009TIP3    H251443   0.679   0.688   2.108  0.2240 -0.4404  0.3113
10010TIP3   OH251444   5.100   4.181  14.319  0.2936 -0.3027  0.1120
10010TIP3    H151445   5.070   4.101  14.276  3.4860 -1.1770 -0.6058
10010TIP3    H251446   5.019   4.229  14.339 -1.6078 -3.1067 -0.5565
10011TIP3   OH251447   0.592   0.148  11.847 -0.1644 -0.1788 -0.4329
10011TIP3    H151448   0.664   0.120  11.903 -0.5238  2.6375  1.5143
10011TIP3    H251449   0.576   0.239  11.871 -3.3669 -0.2687 -1.9113
10012TIP3   OH251450   1.808   2.270   2.105 -0.2477  0.8676  0.3558
10012TIP3    H151451   1.715   2.295   2.110 -0.2848  1.1878 -1.4227
10012TIP3    H251452   1.807   2.179   2.077 -0.0287  1.1165 -0.4868
10013TIP3   OH251453   5.633   3.334   0.144 -0.3018  0.0206  0.2179
10013TIP3    H151454   5.665   3.256   0.098  1.1863 -0.1366  1.4845
10013TIP3    H251455   5.600   3.391   0.074 -0.5641 -1.3575 -0.7914
10014TIP3   OH251456   5.540   4.724   6.010  0.2614  0.4710  0.1546
10014TIP3    H151457   5.537   4.718   5.915  0.3722 -0.1406  0.1841
10014TIP3    H251458   5.463   4.774   6.035 -0.7714 -0.9544 -0.1362
10015TIP3   OH251459   2.737   3.158   2.715  0.3030 -0.1580 -0.6374
10015TIP3    H151460   2.796   3.209   2.771  0.2267 -0.4027 -0.3302
10015TIP3    H251461   2.649   3.184   2.742  0.2585 -0.7536 -0.1881
10016TIP3   OH251462   0.144   5.663   2.051  0.1705 -0.3857 -0.2450
10016TIP3    H151463   0.237   5.678   2.069 -0.3677  0.9878  1.5588
10016TIP3    H251464   0.098   5.715   2.117 -1.8838 -1.8986 -0.4327
10017TIP3   OH251465   4.344   3.272   2.936 -0.2618  0.8537  0.3602
10017TIP3    H151466   4.381   3.320   3.011  1.3825 -0.8552  0.6874
10017TIP3    H251467   4.393   3.306   2.861 -0.2891  0.9197  0.3723
10018TIP3   OH251468   5.286   0.520   1.387  0.2715  0.2083  0.4278
10018TIP3    H151469   5.243   0.599   1.354 -0.0498 -0.6713 -1.2880
10018TIP3    H251470   5.372   0.520   1.345 -0.1880 -0.9858 -0.5471
10019TIP3   OH251471   2.205   2.111  16.882  1.1385  0.0133 -0.1460
10019TIP3    H151472   2.209   2.207  16.879 -0.8237  0.0660 -2.1295
10019TIP3    H251473   2.213   2.084  16.791  1.2566 -1.7183  0.3640
10020TIP3   OH251474   0.920   0.272  12.777 -0.0537  0.2212 -0.2672
10020TIP3    H151475   1.009   0.237  12.764 -1.1861 -2.6651 -0.5394
10020TIP3    H251476   0.911   0.338  12.708  0.5714 -2.1225 -2.7314
10021TIP3   OH251477   3.269   0.245   4.143 -0.6853  0.4691 -0.4879
10021TIP3    H151478   3.247   0.152   4.141 -0.0860  0.2666  1.3359
10021TIP3    H251479   3.185   0.289   4.147 -0.9527 -0.1604  2.3374
10022TIP3   OH251480   3.941   4.457   4.309 -0.1790 -0.1825 -0.2618
10022TIP3    H151481   4.028   4.420   4.324 -0.8409 -1.4255  0.5957
10022TIP3    H251482   3.958   4.543   4.271  1.4468  0.0504  0.9233
10023TIP3   OH251483   3.907   6.001   1.911  0.6272 -0.1631 -0.4209
10023TIP3    H151484   3.866   5.931   1.962  2.4210 -0.7775  0.2168
10023TIP3    H251485   3.834   6.049   1.873 -0.6509 -1.7680 -0.0396
10024TIP3   OH251486   3.518   0.275  15.396  0.2822 -0.7910  0.5901
10024TIP3    H151487   3.591   0.285  15.335 -0.2005 -0.2878  0.0914
10024TIP3    H251488   3.456   0.342  15.370  0.2095 -0.3571  1.8417
10025TIP3   OH251489   4.122   3.111  16.891 -0.6442 -0.4542  0.3961
10025TIP3    H151490   4.135   3.127  16.985 -1.7462  0.0301  0.4759
10025TIP3    H251491   4.207   3.080  16.860  0.6110  2.2367  0.9700
10026TIP3   OH251492   2.433   1.159   3.058 -0.1670  0.4045  0.2632
10026TIP3    H151493   2.459   1.202   2.976 -2.4458  0.7199 -0.3550
10026TIP3    H251494   2.380   1.084   3.029 -0.7839  0.3825  1.4266
10027TIP3   OH251495   3.544   0.115   2.235 -0.1478 -0.1245  0.2017
10027TIP3    H151496   3.624   0.063   2.224 -1.4315 -2.3252  1.0154
10027TIP3    H251497   3.570   0.187   2.292  1.1268 -1.1862  1.0084
10028TIP3   OH251498   6.083   2.289  11.392 -0.0953 -0.4431 -0.2603
10028TIP3    H151499   6.146   2.246  11.333 -1.3528  0.2201 -2.1279
10028TIP3    H251500   6.112   2.380  11.395  0.1204 -0.5310  0.3738
10029TIP3   OH251501   0.645   0.676   3.544  0.2584 -0.1219  0.1359
10029TIP3    H151502   0.741   0.678   3.551  0.4697 -1.2028 -1.9062
10029TIP3    H251503   0.620   0.768   3.533  1.1839  0.0733 -0.4468
10030TIP3   OH251504   1.162   1.383   4.401  0.3453 -0.0074  0.2511
10030TIP3    H151505   1.085   1.351   4.355  0.7687 -0.0943 -0.3982
10030TIP3    H251506   1.223   1.309   4.400 -0.3686 -0.6864  2.6370
10031TIP3   OH251507   2.554   2.325  12.779  0.0645 -0.2391 -0.1590
10031TIP3    H151508   2.610   2.382  12.832  1.3382 -1.5280 -0.1117
10031TIP3    H251509   2.530   2.379  12.703  1.7717  0.1682 -0.4294
10032TIP3   OH251510   6.787   4.807   5.047 -0.4758 -0.4418  0.3421
10032TIP3    H151511   6.829   4.743   5.104  2.0783 -0.3628 -1.3740
10032TIP3    H251512   6.805   4.892   5.088 -0.8502 -0.5680  0.7698
10033TIP3   OH251513   4.071   0.683  16.839 -0.2387 -0.0953  0.2933
10033TIP3    H151514   4.094   0.766  16.882 -1.6449  0.5716 -0.2003
10033TIP3    H251515   4.065   0.620  16.911  4.0545 -0.5839  0.3554
10034TIP3   OH251516   2.633   0.564  15.300 -0.2594  0.2680 -0.1197
10034TIP3    H151517   2.698   0.635  15.300 -0.4826  0.4736 -0.4161
10034TIP3    H251518   2.552   0.606  15.270 -0.2853 -0.2123 -0.7349
10035TIP3   OH251519   2.388   3.141   4.806 -0.0911 -0.0252  0.2764
10035TIP3    H151520   2.425   3.086   4.738  0.5554  0.4449  0.2541
10035TIP3    H251521   2.305   3.172   4.770  0.7007  1.0035 -0.6704
10036TIP3   OH251522   4.564   4.930  16.299 -0.0730  0.4174 -0.5132
10036TIP3    H151523   4.495   4.903  16.239  0.9450  0.5191 -1.7545
10036TIP3    H251524   4.525   4.922  16.386 -1.0388 -1.3487 -1.0763
10037TIP3   OH251525   3.252   5.674  16.536 -0.4345  0.1249  0.6557
10037TIP3    H151526   3.327   5.717  16.579  0.0485 -1.8646  1.8745
10037TIP3    H251527   3.291   5.599  16.492 -1.4277  0.3230 -0.5672
10038TIP3   OH251528   4.347   6.438  14.168 -0.2231  0.0619 -0.2036
10038TIP3    H151529   4.305   6.396  14.244 -0.8030 -0.0672 -0.5876
10038TIP3    H251530   4.276   6.487  14.126  0.3500  1.0156 -0.0438
10039TIP3   OH251531   2.727   5.792  11.848 -0.0261 -0.4817 -0.5527
10039TIP3    H151532   2.632   5.798  11.844 -0.4120 -4.3802  0.5786
10039TIP3    H251533   2.757   5.814  11.760 -1.9858  0.3199 -1.0389
10040TIP3   OH251534   5.336   1.422  12.432  0.0034 -0.3137  0.5791
10040TIP3    H151535   5.273   1.391  12.368 -0.1176  0.3396  0.3803
10040TIP3    H251536   5.283   1.457  12.503  0.1202  1.0819  0.0056
10041TIP3   OH251537   1.448   4.789   2.167 -0.0269 -0.2237  0.3975
10041TIP3    H151538   1.368   4.836   2.190 -0.2205  0.5310 -1.7213
10041TIP3    H251539   1.490   4.771   2.251 -1.6916  0.6552  1.4456
10042TIP3   OH251540   1.554   2.196   1.289  0.1953 -0.1667 -0.4409
10042TIP3    H151541   1.615   2.145   1.343  0.1403  0.6579  0.4139
10042TIP3    H251542   1.610   2.238   1.224 -0.0074 -3.0768 -2.5967
10043TIP3   OH251543   4.923   2.633  14.755 -0.0231  0.5568  0.1310
10043TIP3    H151544   4.883   2.693  14.818 -0.5751 -0.1240  0.4419
10043TIP3    H251545   4.851   2.607  14.698  0.1986  0.1652  0.0248
10044TIP3   OH251546   0.377   2.922  10.487  0.3918 -0.4133 -0.3972
10044TIP3    H151547   0.301   2.958  10.441  0.1270  0.6659  0.8642
10044TIP3    H251548   0.343   2.846  10.534  0.2048 -0.2704 -0.3000
10045TIP3   OH251549   4.833   0.685  14.866 -0.4766  0.0670  0.1279
10045TIP3    H151550   4.787   0.625  14.925  0.4669  1.1200  2.0136
10045TIP3    H251551   4.870   0.629  14.798 -2.4021 -1.0726 -0.0032
10046TIP3   OH251552   4.893   1.018  13.150 -0.3462  0.7176  0.4290
10046TIP3    H151553   4.857   0.930  13.156  1.0186  0.0982 -0.2837
10046TIP3    H251554   4.852   1.057  13.073 -1.4932  0.9740  1.1587
10047TIP3   OH251555   2.516   5.074  10.945  0.4989 -0.2700  0.3297
10047TIP3    H151556   2.578   5.049  11.013  0.6210 -1.0727 -0.0743
10047TIP3    H251557   2.546   5.029  10.867  0.4175  0.7393 -0.2858
10048TIP3   OH251558   0.138   2.092   6.657  0.0776  0.2149 -0.0578
10048TIP3    H151559   0.197   2.020   6.637  0.3275  0.1060  1.0957
10048TIP3    H251560   0.188   2.150   6.714 -1.0718 -0.0695  1.2487
10049TIP3   OH251561   5.784   0.940  15.115  0.0566  0.2802 -0.1411
10049TIP3    H151562   5.767   1.001  15.043 -1.2105 -0.9540 -0.9185
10049TIP3    H251563   5.776   0.994  15.194 -0.4512  1.2540 -0.8404
10050TIP3   OH251564   3.970   6.255  12.709  0.3280  0.4600  0.1807
10050TIP3    H151565   3.957   6.182  12.648 -2.9000 -0.1038  1.4529
10050TIP3    H251566   4.049   6.232  12.758  0.2232 -1.4091 -0.5061
10051TIP3   OH251567   2.634   2.940   1.952 -0.2283 -0.3334 -0.2745
10051TIP3    H151568   2.635   2.939   1.857 -1.7122  0.4544 -0.3148
10051TIP3    H251569   2.550   2.902   1.976 -0.6520  1.1390  0.6692
10052TIP3   OH251570   1.527   0.923  15.812  0.5616  0.2961  0.3474
10052TIP3    H151571   1.577   1.000  15.788  1.6097 -0.5590 -0.2586
10052TIP3    H251572   1.569   0.891  15.892  0.3150  0.1793  0.4316
10053TIP3   OH251573   0.600   1.394  12.376  0.3563 -0.0146  0.1824
10053TIP3    H151574   0.658   1.469  12.363 -0.4347  0.1476 -2.8932
10053TIP3    H251575   0.513   1.426  12.352 -0.4820 -1.1606  1.5864
10054TIP3   OH251576   2.974   2.201  16.375  0.1479  0.0475 -0.3562
10054TIP3    H151577   3.027   2.268  16.418 -0.0688 -0.1426  0.2185
10054TIP3    H251578   2.892   2.246  16.354  0.3824  0.2306 -0.8677
10055TIP3   OH251579   5.593   2.372   3.891 -0.2266  0.6159 -0.2450
10055TIP3    H151580   5.647   2.433   3.840  1.0696  0.1211  0.4974
10055TIP3    H251581   5.644   2.291   3.891 -1.3263 -0.0751 -0.1329
10056TIP3   OH251582   4.660   6.237   0.426 -0.0530  0.3287 -0.2253
10056TIP3    H151583   4.717   6.314   0.418  0.0746  0.2106 -0.4840
10056TIP3    H251584   4.707   6.179   0.485  0.1292  0.2049 -0.4877
10057TIP3   OH251585   3.136   1.132   4.721 -0.0483  0.4163 -0.2943
10057TIP3    H151586   3.048   1.102   4.741  0.6874 -0.3847  1.7877
10057TIP3    H251587   3.142   1.219   4.761  0.7926 -0.4078  1.4175
10058TIP3   OH251588   0.973   4.590   2.937  0.2727  0.2829  0.3118
10058TIP3    H151589   0.945   4.511   2.983  1.4382 -0.9823 -1.0981
10058TIP3    H251590   0.893   4.623   2.896 -0.1064 -0.5047  0.4140
10059TIP3   OH251591   1.810   2.621   3.343 -0.0581 -0.2055 -0.0909
10059TIP3    H151592   1.843   2.533   3.322  0.2254 -0.0969 -0.0935
10059TIP3    H251593   1.715   2.610   3.343 -0.0238 -0.5341 -0.0092
10060TIP3   OH251594   4.931   6.442  12.166  0.1420 -0.0171 -0.6998
10060TIP3    H151595   5.023   6.437  12.141 -0.2855  0.3965 -2.4674
10060TIP3    H251596   4.924   6.523  12.216  0.9959 -0.7575  0.6283
10061TIP3   OH251597   1.326   1.865  16.938  0.0330  0.1419 -0.6101
10061TIP3    H151598   1.266   1.876  17.012  1.2783  1.7294  0.1791
10061TIP3    H251599   1.282   1.910  16.865  0.1658  1.1142 -0.0907
10062TIP3   OH251600   2.247   2.409   2.356 -0.2370 -0.0819  0.2691
10062TIP3    H151601   2.265   2.331   2.409 -1.4443  1.4929  3.0864
10062TIP3    H251602   2.331   2.452   2.347 -0.1962  0.1638  1.7793
10063TIP3   OH251603   0.588   5.623   4.266  0.4305 -0.1269 -0.1836
10063TIP3    H151604   0.597   5.566   4.343  1.5225  1.1230  0.6530
10063TIP3    H251605   0.511   5.590   4.220 -1.5728  0.4284  2.6147
10064TIP3   OH251606   6.511   5.505   4.640 -0.9908  0.3102 -0.3783
10064TIP3    H151607   6.510   5.487   4.734  0.9903  0.2605 -0.3441
10064TIP3    H251608   6.548   5.425   4.601  0.5258  1.2746 -0.9524
10065TIP3   OH251609   3.773   3.058   4.501  0.4974  0.1115  0.1132
10065TIP3    H151610   3.784   2.965   4.520 -0.2945  0.1476  0.7915
10065TIP3    H251611   3.702   3.062   4.438  2.4687  0.0676 -2.1759
10066TIP3   OH251612   0.036   3.263  13.963  0.4172  0.2725  0.0524
10066TIP3    H151613   0.048   3.357  13.975 -0.8441  0.3401  0.8680
10066TIP3    H251614   0.118   3.224  13.994  0.4311  1.0129  0.9711
10067TIP3   OH251615   3.482   0.144  12.651  0.0258 -0.4650 -0.3341
10067TIP3    H151616   3.387   0.156  12.652  0.2566  1.9047 -2.0335
10067TIP3    H251617   3.515   0.211  12.712  0.7090 -0.1258 -1.0750
10068TIP3   OH251618   3.460   4.694  13.893 -0.2404 -0.1370  0.0826
10068TIP3    H151619   3.478   4.644  13.972  0.1892 -1.5010 -0.8530
10068TIP3    H251620   3.543   4.736  13.871  0.0664 -0.9980 -0.4717
10069TIP3   OH251621   0.040   4.894   2.102 -0.3802 -0.1675 -0.6614
10069TIP3    H151622   0.072   4.863   2.018 -0.0987  0.5486 -0.8261
10069TIP3    H251623   0.098   4.855   2.167  0.2405  0.3661 -0.8937
10070TIP3   OH251624   1.067   3.008   5.764  0.2622  0.0644 -0.0123
10070TIP3    H151625   1.131   2.938   5.749  0.8502  0.7099 -0.5270
10070TIP3    H251626   0.982   2.963   5.762  0.7751 -1.1695  2.8795
10071TIP3   OH251627   5.899   0.664  14.308  0.2770 -0.1670 -0.3669
10071TIP3    H151628   5.847   0.633  14.382  0.5704 -0.1818 -0.1685
10071TIP3    H251629   5.889   0.596  14.242  0.6886 -0.5540 -0.0376
10072TIP3   OH251630   3.214   1.667  14.873  0.1871 -0.1515  0.3209
10072TIP3    H151631   3.214   1.604  14.945  0.2443  1.2474  1.5556
10072TIP3    H251632   3.126   1.705  14.873  0.1111 -0.3183 -0.4991
10073TIP3   OH251633   1.914   1.355  14.689  0.8210  0.1290  0.0068
10073TIP3    H151634   1.865   1.294  14.634  0.0618  0.7222  0.0139
10073TIP3    H251635   1.890   1.331  14.778  0.6985  0.2882  0.0180
10074TIP3   OH251636   5.497   0.618   3.807 -0.2700  0.8026  0.2343
10074TIP3    H151637   5.503   0.609   3.712 -0.6383  0.8628  0.2038
10074TIP3    H251638   5.449   0.700   3.820  0.1386  1.0070  0.4774
10075TIP3   OH251639   0.587   4.848  10.400 -0.2909  0.8375 -0.2033
10075TIP3    H151640   0.523   4.875  10.467 -0.6974  1.0038 -0.6592
10075TIP3    H251641   0.538   4.852  10.318 -0.1343 -0.5686 -0.3646
10076TIP3   OH251642   3.029   5.261  14.035  0.1334 -0.0091 -0.0918
10076TIP3    H151643   3.050   5.352  14.016  0.2334 -0.3160 -1.4837
10076TIP3    H251644   3.114   5.219  14.050  0.2815 -0.4244 -1.9943
10077TIP3   OH251645   6.254   1.113   6.759 -0.2714 -0.3391 -0.9036
10077TIP3    H151646   6.217   1.199   6.779  0.1650 -0.1248 -1.0008
10077TIP3    H251647   6.345   1.118   6.790 -0.1990 -0.7096 -1.0528
10078TIP3   OH251648   1.172   0.214   0.646 -0.0843  0.3148 -0.1864
10078TIP3    H151649   1.264   0.223   0.670  0.4765  1.1996 -2.5056
10078TIP3    H251650   1.150   0.123   0.667  1.6286 -0.2045 -0.5637
10079TIP3   OH251651   4.563   2.075  11.366  0.9131  0.9420  0.2130
10079TIP3    H151652   4.618   2.147  11.336  0.3557  1.1625 -0.3053
10079TIP3    H251653   4.478   2.091  11.324  0.7768 -0.0004  0.1181
10080TIP3   OH251654   2.846   0.072  12.991 -1.4001  0.3416 -0.0129
10080TIP3    H151655   2.779   0.023  12.942  0.9809 -1.2448 -1.8394
10080TIP3    H251656   2.866   0.147  12.936 -0.9614  0.2650  0.0423
10081TIP3   OH251657   5.544   6.546  12.128 -0.1218 -0.3391  0.1548
10081TIP3    H151658   5.561   6.542  12.222  0.1907  0.3575  0.1329
10081TIP3    H251659   5.520   6.457  12.103 -0.1534 -0.5326  0.8862
10082TIP3   OH251660   1.062   6.780  12.895 -0.0622  0.0018  0.3876
10082TIP3    H151661   0.994   6.809  12.956  0.1646  1.5810 -0.1008
10082TIP3    H251662   1.143   6.818  12.929  0.2707 -0.2110 -0.1553
10083TIP3   OH251663   5.573   3.840   6.012  0.3920 -0.4771 -0.0256
10083TIP3    H151664   5.600   3.899   6.082  1.1833 -0.3936 -0.4025
10083TIP3    H251665   5.636   3.855   5.941 -0.0773 -0.9521 -0.5524
10084TIP3   OH251666   3.716   4.741   1.911  0.5506 -0.1535  0.1867
10084TIP3    H151667   3.644   4.774   1.964  1.8255  1.8281  0.7775
10084TIP3    H251668   3.746   4.663   1.957 -0.5646 -0.4239  0.4703
10085TIP3   OH251669   2.077   1.316   3.949 -0.3701  0.1415 -0.4493
10085TIP3    H151670   2.144   1.381   3.928 -0.7927  0.9357  0.5919
10085TIP3    H251671   2.028   1.355   4.021 -1.9400 -0.4346 -1.1867
10086TIP3   OH251672   0.090   5.697   0.323  0.0575 -0.4491  0.1223
10086TIP3    H151673   0.057   5.734   0.405 -0.5889 -0.4162 -0.1446
10086TIP3    H251674   0.136   5.769   0.281  0.1211 -0.3770  0.3164
10087TIP3   OH251675   6.475   6.253  12.967 -0.0477 -0.3674  0.2012
10087TIP3    H151676   6.438   6.338  12.944 -0.1969 -0.6964 -0.7763
10087TIP3    H251677   6.427   6.190  12.913 -1.0269 -1.2513  2.0513
10088TIP3   OH251678   6.065   2.515   5.319  0.1666 -0.0757 -0.4704
10088TIP3    H151679   6.124   2.479   5.386  0.8474  0.7645 -0.6175
10088TIP3    H251680   6.004   2.570   5.368  0.1834 -0.0730 -0.4534
10089TIP3   OH251681   0.826   1.724   1.323 -0.3678  0.1710  0.0395
10089TIP3    H151682   0.843   1.699   1.233  0.2652 -2.3770  0.8352
10089TIP3    H251683   0.745   1.678   1.346 -0.4270  0.6526  0.8396
10090TIP3   OH251684   1.078   3.709  11.045 -0.3987 -0.1219 -0.0426
10090TIP3    H151685   1.155   3.672  11.002 -0.2357 -1.5776  1.4409
10090TIP3    H251686   1.023   3.634  11.065 -1.2129  0.6905  0.8429
10091TIP3   OH251687   3.141   6.466   1.154  0.5103  0.6435 -0.2527
10091TIP3    H151688   3.176   6.499   1.237 -1.4427  0.9046  0.4926
10091TIP3    H251689   3.215   6.470   1.094  1.4413  2.3456  0.9497
10092TIP3   OH251690   1.941   4.269   0.932 -0.2555 -0.2206  0.2518
10092TIP3    H151691   1.884   4.192   0.936 -0.3270 -0.2167 -0.6235
10092TIP3    H251692   2.029   4.234   0.950 -0.4035 -0.3665  0.7105
10093TIP3   OH251693   6.182   2.680  13.838 -0.0588  0.3730  0.1477
10093TIP3    H151694   6.253   2.714  13.784  0.8968 -1.0807  0.4483
10093TIP3    H251695   6.123   2.636  13.776 -0.2172  0.7774  0.0101
10094TIP3   OH251696   1.011   5.201   5.638 -0.6935  0.1883 -0.3533
10094TIP3    H151697   1.030   5.286   5.599 -0.2463 -0.9216 -2.6364
10094TIP3    H251698   1.020   5.215   5.732 -0.3328  2.5847 -0.7222
10095TIP3   OH251699   4.505   3.944  11.479  0.5263 -0.2556 -0.0899
10095TIP3    H151700   4.505   4.020  11.420 -0.6987  0.9583  1.4284
10095TIP3    H251701   4.590   3.947  11.523  0.3129  0.4756  0.2723
10096TIP3   OH251702   3.962   5.821  13.504  0.4541 -0.7906 -0.5206
10096TIP3    H151703   3.939   5.893  13.564 -0.9264 -1.5900 -0.0587
10096TIP3    H251704   3.984   5.865  13.422 -0.1717  0.1747 -0.1878
10097TIP3   OH251705   1.212   3.005  16.536 -0.4406 -1.0013 -0.9454
10097TIP3    H151706   1.221   3.096  16.508 -1.7117 -1.1496 -1.8625
10097TIP3    H251707   1.209   3.010  16.631  0.7850 -0.2107 -0.9309
10098TIP3   OH251708   3.863   6.618   1.738 -0.0470  0.3647 -0.0629
10098TIP3    H151709   3.943   6.616   1.685 -1.8154  0.5351 -2.8281
10098TIP3    H251710   3.833   6.709   1.732 -1.1959 -0.0231 -0.2011
10099TIP3   OH251711   1.654   6.323   6.733 -1.0573 -0.3001 -0.3110
10099TIP3    H151712   1.642   6.412   6.700  0.4958 -0.0522 -0.2471
10099TIP3    H251713   1.568   6.283   6.725 -1.8216  1.2673 -0.1552
10100TIP3   OH251714   3.118   2.571   2.172 -0.2343  0.4520  0.1205
10100TIP3    H151715   3.174   2.633   2.124 -0.4850  0.6802  0.1210
10100TIP3    H251716   3.045   2.554   2.113 -0.3901  0.4996  0.3015
10101TIP3   OH251717   4.273   4.777   0.297 -0.1530 -1.5281 -0.6717
10101TIP3    H151718   4.243   4.867   0.287  0.0397 -1.0187  2.6618
10101TIP3    H251719   4.192   4.725   0.292 -0.5547 -0.9435 -0.4398
10102TIP3   OH251720   6.558   3.651   3.527 -0.2374  1.0009 -0.1650
10102TIP3    H151721   6.600   3.640   3.442  0.8278  1.7086  0.2537
10102TIP3    H251722   6.559   3.745   3.542  3.0275  0.6791  2.2875
10103TIP3   OH251723   5.685   6.725   6.031 -0.0380 -0.1370  0.0006
10103TIP3    H151724   5.757   6.779   6.064  0.3272  0.6698 -2.0732
10103TIP3    H251725   5.636   6.701   6.110  1.3140  1.0063  1.2294
10104TIP3   OH251726   5.409   5.584   0.702 -0.1388 -0.3334  0.5708
10104TIP3    H151727   5.428   5.597   0.609 -1.2410 -1.4453  0.1884
10104TIP3    H251728   5.491   5.550   0.739  1.2384  2.8503  0.6098
10105TIP3   OH251729   3.100   4.143  12.018 -0.2277  0.0783 -0.4458
10105TIP3    H151730   3.082   4.052  11.993 -2.3311  0.3974 -0.2071
10105TIP3    H251731   3.019   4.173  12.058  1.7619  0.8005  3.2290
10106TIP3   OH251732   2.053   3.328   0.636 -0.1515  0.3412 -0.4479
10106TIP3    H151733   2.038   3.262   0.568 -4.1959  2.4676 -1.7736
10106TIP3    H251734   2.026   3.285   0.718  0.2755 -0.6904 -0.8445
10107TIP3   OH251735   5.128   4.474  12.247 -0.0251 -0.3410 -0.4636
10107TIP3    H151736   5.190   4.523  12.301 -0.0999 -1.0973  0.3089
10107TIP3    H251737   5.137   4.513  12.160 -0.0878  1.0624  0.1309
10108TIP3   OH251738   4.040   1.213   2.273  0.0765 -0.0008 -0.2846
10108TIP3    H151739   3.969   1.161   2.234 -0.4584 -1.7389  2.8594
10108TIP3    H251740   4.119   1.161   2.258 -0.1989 -0.9047  1.2753
10109TIP3   OH251741   3.995   2.621   0.798 -0.6654  0.3685  0.1182
10109TIP3    H151742   3.972   2.528   0.799 -2.2441  0.7237 -1.1262
10109TIP3    H251743   3.915   2.665   0.768 -0.0054  2.1487  0.9067
10110TIP3   OH251744   3.441   1.019   1.118  0.4285  0.6313  0.7761
10110TIP3    H151745   3.365   1.001   1.063  0.5291 -0.7718  1.0750
10110TIP3    H251746   3.417   1.097   1.168 -0.5075  0.6424  0.3151
10111TIP3   OH251747   6.246   1.244  15.531 -0.5904 -0.2588 -0.2198
10111TIP3    H151748   6.265   1.225  15.622  3.4347 -0.1623 -0.9478
10111TIP3    H251749   6.189   1.322  15.533 -2.3300 -1.5357  2.1889
10112TIP3   OH251750   0.965   3.423  14.166 -0.7660 -0.3401  0.1525
10112TIP3    H151751   0.937   3.414  14.257 -2.4296 -0.4727 -0.3501
10112TIP3    H251752   0.987   3.515  14.157 -0.4031 -0.3672  0.7496
10113TIP3   OH251753   3.670   0.579  14.005  0.2052  0.0636 -0.2198
10113TIP3    H151754   3.740   0.521  13.976 -0.9796 -1.3153 -0.3840
10113TIP3    H251755   3.667   0.648  13.940  2.7688  1.2742  0.8951
10114TIP3   OH251756   0.042   2.336   5.474 -0.2829 -0.1106  0.0567
10114TIP3    H151757   0.047   2.312   5.382 -1.3561 -0.7300  0.1485
10114TIP3    H251758  -0.003   2.420   5.475  2.8174  1.6559 -0.2116
10115TIP3   OH251759   3.149   0.330   2.237  0.1837 -0.2792 -0.2377
10115TIP3    H151760   3.138   0.249   2.188  0.2115 -0.9389  0.8212
10115TIP3    H251761   3.195   0.388   2.177 -1.3310 -0.4505 -1.6239
10116TIP3   OH251762   0.773   0.683   3.963 -0.6419  0.2180  0.1151
10116TIP3    H151763   0.760   0.777   3.951  1.4621  0.3194 -1.5128
10116TIP3    H251764   0.843   0.677   4.028 -0.6180 -0.2250  0.0492
10117TIP3   OH251765   3.956   1.434  13.768  0.3128 -0.2081 -0.0468
10117TIP3    H151766   4.001   1.502  13.718 -1.1438  1.5359  0.9684
10117TIP3    H251767   3.871   1.425  13.726 -0.3353  0.1705  1.1536
10118TIP3   OH251768   3.189   2.337  16.581  0.5451 -0.2563 -0.3712
10118TIP3    H151769   3.232   2.353  16.665  0.9410  0.6876 -0.7508
10118TIP3    H251770   3.259   2.345  16.516 -0.1410  1.0540 -0.9690
10119TIP3   OH251771   4.562   3.837   5.442  0.9755 -0.1754 -0.1431
10119TIP3    H151772   4.577   3.915   5.495  1.2407 -0.5133  0.2836
10119TIP3    H251773   4.597   3.765   5.495  1.7380 -0.4550 -1.0020
10120TIP3   OH251774   0.385   2.297   1.504 -0.3123  0.1144  0.3345
10120TIP3    H151775   0.421   2.227   1.449  0.1728 -0.2131  1.0654
10120TIP3    H251776   0.443   2.371   1.488 -1.3137  0.6147 -1.0779
10121TIP3   OH251777   2.267   1.740  11.485  0.1775 -0.3553 -0.5847
10121TIP3    H151778   2.283   1.762  11.393  1.1465  1.8092  0.0850
10121TIP3    H251779   2.325   1.666  11.502  0.9410  0.0590 -1.3584
10122TIP3   OH251780   1.507   4.902   0.646  0.2836  0.0689 -0.0715
10122TIP3    H151781   1.470   4.921   0.560  2.6194  0.6903 -0.9879
10122TIP3    H251782   1.470   4.817   0.670  0.2156 -0.5079 -2.0710
10123TIP3   OH251783   4.726   4.843  13.352  0.4974  0.3095 -0.0051
10123TIP3    H151784   4.697   4.760  13.316  1.3751 -0.0717  0.1579
10123TIP3    H251785   4.679   4.909  13.301 -0.5702 -0.2963  0.1985
10124TIP3   OH251786   0.112   2.328   6.391  0.3702  0.2518 -0.2647
10124TIP3    H151787   0.064   2.407   6.419  1.1998  1.0537 -1.0555
10124TIP3    H251788   0.047   2.258   6.394 -0.3784  0.9672  0.4675
10125TIP3   OH251789   4.496   3.979  12.234  0.1182 -0.1913  0.4556
10125TIP3    H151790   4.491   4.022  12.149  1.3047 -2.0935 -0.6020
10125TIP3    H251791   4.590   3.978  12.255  0.0940 -2.0930  0.5399
10126TIP3   OH251792   5.536   0.065   0.641 -0.5586 -0.1558 -0.5209
10126TIP3    H151793   5.572   0.112   0.566  0.3757  0.9703  0.6211
10126TIP3    H251794   5.612   0.035   0.690 -1.1559 -1.7989 -0.5738
10127TIP3   OH251795   5.573   5.929  11.517 -0.0307 -0.2816 -0.5877
10127TIP3    H151796   5.666   5.905  11.517  0.5899  1.9233  0.3497
10127TIP3    H251797   5.552   5.944  11.609 -0.6080  1.6699 -1.0072
10128TIP3   OH251798   4.901   1.963   6.798  0.0803  0.2288  0.6073
10128TIP3    H151799   4.901   1.912   6.717  0.9927  0.7693  0.2510
10128TIP3    H251800   4.818   1.943   6.839  0.9391 -2.4816  1.0963
10129TIP3   OH251801   0.437   6.658   2.122  1.0710  0.2722 -0.5382
10129TIP3    H151802   0.446   6.648   2.028  0.1888  1.5053 -0.7676
10129TIP3    H251803   0.364   6.719   2.133  0.4299 -0.7099  0.9601
10130TIP3   OH251804   5.366   0.630   2.303 -0.1783 -0.4638 -0.0218
10130TIP3    H151805   5.310   0.597   2.373 -0.7576 -0.4087 -0.4554
10130TIP3    H251806   5.443   0.573   2.305  0.9452  1.0623  2.2722
10131TIP3   OH251807   1.529   1.710   0.772 -0.1121  0.2703  0.2343
10131TIP3    H151808   1.589   1.757   0.715  0.0827  0.1755  0.3634
10131TIP3    H251809   1.472   1.778   0.808 -2.3270 -0.0133 -2.5844
10132TIP3   OH251810   5.485   4.185   3.679  0.5632 -0.0604  0.0239
10132TIP3    H151811   5.456   4.217   3.594  0.6913 -0.7458 -0.2807
10132TIP3    H251812   5.524   4.261   3.722 -0.8102  0.6308  0.0576
10133TIP3   OH251813   6.102   6.604  17.052  0.2275  0.3206 -0.8855
10133TIP3    H151814   6.007   6.598  17.061  0.1097  0.3566 -2.0013
10133TIP3    H251815   6.136   6.527  17.097 -0.1669  1.6462  1.7931
10134TIP3   OH251816   5.840   5.527  14.327 -0.3338  0.1898 -0.5741
10134TIP3    H151817   5.839   5.458  14.261  1.0631  0.4508 -0.8786
10134TIP3    H251818   5.798   5.487  14.403  1.7244 -1.4872 -0.2729
10135TIP3   OH251819   5.938   5.007  15.619  0.1512  0.1833  0.4532
10135TIP3    H151820   6.034   5.008  15.621  0.1608  1.8144 -0.3888
10135TIP3    H251821   5.914   5.079  15.560 -1.5167 -2.3697 -2.1168
10136TIP3   OH251822   6.532   0.952   2.509 -0.1462  0.3786  0.1041
10136TIP3    H151823   6.556   0.912   2.592 -0.5089  1.0269  0.5210
10136TIP3    H251824   6.611   0.945   2.455  0.3781  0.7885  0.8130
10137TIP3   OH251825   1.732   6.219  12.068 -0.1198 -0.5653 -0.2746
10137TIP3    H151826   1.784   6.236  12.147 -0.5441 -3.8941  0.8036
10137TIP3    H251827   1.648   6.261  12.085 -0.2346 -1.3059  1.1431
10138TIP3   OH251828   4.783   4.127   2.337 -0.1696  0.4068 -0.0236
10138TIP3    H151829   4.814   4.052   2.287  0.1558  1.4511 -1.4372
10138TIP3    H251830   4.802   4.105   2.428  1.8592 -0.3263 -0.6023
10139TIP3   OH251831   0.679   5.352   5.676  0.3451  0.3751 -0.2057
10139TIP3    H151832   0.748   5.415   5.699  1.2015 -0.0649 -1.5215
10139TIP3    H251833   0.599   5.404   5.675  0.5791  0.8128  1.7221
10140TIP3   OH251834   5.205   4.305  15.889  0.0862 -0.0229  0.1302
10140TIP3    H151835   5.292   4.314  15.929  1.0008 -2.5506 -1.1906
10140TIP3    H251836   5.201   4.375  15.824  0.9915  0.3082  0.4232
10141TIP3   OH251837   4.937   5.305  17.156 -0.1924  0.2060 -0.1754
10141TIP3    H151838   4.904   5.215  17.153 -1.5795  0.7541 -2.4690
10141TIP3    H251839   5.028   5.296  17.186 -0.6276 -1.8449  0.6629
10142TIP3   OH251840   1.519   1.634   2.249 -0.2879 -0.3667 -0.4887
10142TIP3    H151841   1.445   1.573   2.256 -0.8846  0.5073  1.2580
10142TIP3    H251842   1.592   1.586   2.289 -0.3524 -0.5603 -0.6007
10143TIP3   OH251843   0.173   3.530  12.959  0.4474  0.3946  0.6100
10143TIP3    H151844   0.212   3.580  13.030  0.8543  0.0058  0.6576
10143TIP3    H251845   0.230   3.546  12.884  0.6080 -0.0388  0.6376
10144TIP3   OH251846   6.722   5.437   2.169 -0.1768  0.3799 -0.3919
10144TIP3    H151847   6.751   5.526   2.187 -0.9999  0.6534 -0.3645
10144TIP3    H251848   6.666   5.414   2.244 -0.5135  0.0913 -0.7293
10145TIP3   OH251849   0.411   5.638  16.489  0.2888 -0.2406  0.4347
10145TIP3    H151850   0.418   5.730  16.463  0.3300 -0.4161 -0.1832
10145TIP3    H251851   0.328   5.609  16.451  0.1612 -0.3982  0.8272
10146TIP3   OH251852   4.295   1.846   4.714  0.2267 -0.2798  0.3654
10146TIP3    H151853   4.355   1.807   4.777  2.2258  2.2571  0.0981
10146TIP3    H251854   4.288   1.781   4.643  0.5411 -1.7108  1.6222
10147TIP3   OH251855   1.961   4.370  15.926  0.1276  0.1709 -0.4355
10147TIP3    H151856   1.966   4.374  16.021  0.9184 -1.2058 -0.4065
10147TIP3    H251857   1.935   4.279  15.907 -0.0067  0.4313 -1.5244
10148TIP3   OH251858   3.870   5.773   0.847 -0.0212 -0.0407 -0.5273
10148TIP3    H151859   3.830   5.796   0.931  0.2545 -2.8019  0.3989
10148TIP3    H251860   3.824   5.695   0.818  3.1188 -1.9717 -0.5385
10149TIP3   OH251861   5.821   6.163  13.325  0.4947  1.0058  0.3264
10149TIP3    H151862   5.845   6.183  13.416 -0.7097 -0.5130  1.0195
10149TIP3    H251863   5.733   6.200  13.315 -0.2941 -0.7577  0.5139
10150TIP3   OH251864   1.075   4.578   3.267  0.0453  0.3781 -0.1084
10150TIP3    H151865   1.070   4.570   3.172  0.1443 -0.5771 -0.0450
10150TIP3    H251866   1.102   4.668   3.283 -0.5132  0.6959 -0.9693
10151TIP3   OH251867   6.237   2.467   1.614 -0.4312  0.4782 -0.0619
10151TIP3    H151868   6.282   2.480   1.697 -0.0009  0.8423 -0.3496
10151TIP3    H251869   6.300   2.497   1.547 -1.1123  1.0447 -0.4602
10152TIP3   OH251870   2.750   6.545  16.626  0.1109 -0.0345 -0.5064
10152TIP3    H151871   2.820   6.569  16.565  0.7328 -0.4306  0.0474
10152TIP3    H251872   2.719   6.460  16.595 -0.2191  0.2029 -0.8322
10153TIP3   OH251873   4.940   1.964  15.665  0.4216  0.2224 -0.6125
10153TIP3    H151874   4.893   1.892  15.707 -0.1454  0.2646 -1.1751
10153TIP3    H251875   4.899   2.043  15.700 -2.0399  0.2739 -3.4055
10154TIP3   OH251876   0.765   6.375  16.771 -0.3168  0.5795  0.1202
10154TIP3    H151877   0.788   6.286  16.746 -1.8162  0.0060  0.6776
10154TIP3    H251878   0.802   6.386  16.859  0.3707  0.7044 -0.1891
10155TIP3   OH251879   6.742   5.968   4.462  0.1949 -0.2165 -0.2791
10155TIP3    H151880   6.793   6.016   4.397 -1.0259  0.4505 -0.7576
10155TIP3    H251881   6.755   6.015   4.544  0.2487  0.0249 -0.4277
10156TIP3   OH251882   6.533   1.815   0.780  0.1338  0.1593  0.2538
10156TIP3    H151883   6.595   1.859   0.722  0.7805 -0.8539  0.1783
10156TIP3    H251884   6.568   1.829   0.868 -0.9122  1.8034  0.4447
10157TIP3   OH251885   5.935   3.308   3.832 -0.3828  0.0835 -0.0007
10157TIP3    H151886   5.938   3.220   3.794  0.4750 -0.3735  1.1022
10157TIP3    H251887   5.843   3.320   3.857 -0.2633 -1.0066  0.9945
10158TIP3   OH251888   2.862   2.142   0.599  0.1819  0.1194  0.0657
10158TIP3    H151889   2.910   2.225   0.594 -0.3150  0.3470 -1.1881
10158TIP3    H251890   2.894   2.101   0.679  1.2321  1.0328  0.1344
10159TIP3   OH251891   0.818   3.126  14.163  0.6855  0.5210  0.1864
10159TIP3    H151892   0.861   3.045  14.192 -0.0441 -0.1541 -0.5954
10159TIP3    H251893   0.815   3.119  14.068 -2.1342  0.0501  0.2616
10160TIP3   OH251894   0.481   3.673  14.357 -0.0805 -0.0691 -0.2524
10160TIP3    H151895   0.466   3.719  14.439  0.3501  0.8492 -0.6814
10160TIP3    H251896   0.395   3.642  14.330 -0.5177  1.2546 -0.4099
10161TIP3   OH251897   2.263   0.457  13.216  0.2776 -0.0819  0.0245
10161TIP3    H151898   2.276   0.493  13.304 -1.4549  1.4007 -0.2782
10161TIP3    H251899   2.305   0.521  13.158  0.0447 -0.2320 -0.3129
10162TIP3   OH251900   2.520   3.091  14.223  0.1701 -0.1546  0.3539
10162TIP3    H151901   2.578   3.116  14.150  0.3492  0.9407  0.8627
10162TIP3    H251902   2.493   3.002  14.202  1.9251 -0.6244  0.0214
10163TIP3   OH251903   5.289   5.777   5.792 -0.5649 -0.0559 -0.2961
10163TIP3    H151904   5.360   5.715   5.778 -0.7845 -0.7847  1.6817
10163TIP3    H251905   5.320   5.858   5.750  0.6669 -0.8433 -0.9578
10164TIP3   OH251906   5.512   5.017  17.149  0.0793 -0.8591  0.0626
10164TIP3    H151907   5.491   4.974  17.066  2.3842 -0.3172 -0.8439
10164TIP3    H251908   5.489   5.109  17.135  2.2573 -0.4047 -0.6766
10165TIP3   OH251909   2.982   6.341  16.312 -0.6312  0.7541  0.5199
10165TIP3    H151910   2.928   6.271  16.348  0.9666  1.1082  3.7986
10165TIP3    H251911   3.051   6.295  16.264 -1.9404  0.2357 -0.9117
10166TIP3   OH251912   2.589   0.653   2.749  0.4001 -0.3713  0.3267
10166TIP3    H151913   2.532   0.728   2.733 -0.4779 -1.1038 -0.0982
10166TIP3    H251914   2.673   0.677   2.711 -0.1150  0.0711 -0.5450
10167TIP3   OH251915   1.719   3.016  12.687  0.1890  0.2726  0.3309
10167TIP3    H151916   1.748   2.960  12.615 -1.6619  1.2201 -1.1734
10167TIP3    H251917   1.659   2.961  12.737  0.3010  0.1021  0.2786
10168TIP3   OH251918   3.131   1.797  12.379  0.1163 -0.4977 -0.3446
10168TIP3    H151919   3.039   1.788  12.403  0.0090 -1.1409 -0.9621
10168TIP3    H251920   3.170   1.848  12.450 -0.7558 -0.0585 -0.1824
10169TIP3   OH251921   5.834   4.498   5.998  0.0641 -0.1016 -0.0694
10169TIP3    H151922   5.864   4.425   5.944 -0.1839  0.3716 -0.8460
10169TIP3    H251923   5.760   4.535   5.951 -0.3091  0.1679  0.7139
10170TIP3   OH251924   4.125   6.594  15.167  0.7947  0.5893 -0.6198
10170TIP3    H151925   4.143   6.518  15.223  2.5675  0.0004 -1.9358
10170TIP3    H251926   4.108   6.665  15.228  1.4010 -0.3410  0.6664
10171TIP3   OH251927   5.604   4.137  16.807 -0.3295  0.0225  0.5104
10171TIP3    H151928   5.530   4.078  16.789 -1.4063  1.5054 -0.0335
10171TIP3    H251929   5.650   4.143  16.724  0.0896 -0.4501  0.7046
10172TIP3   OH251930   2.875   3.479  11.990  0.4432 -0.1731 -0.3954
10172TIP3    H151931   2.793   3.498  11.945  1.3792  1.4911 -1.4215
10172TIP3    H251932   2.925   3.427  11.928 -0.4208 -2.5433  0.8217
10173TIP3   OH251933   4.361   6.180   2.121 -0.1205  0.3677  0.3330
10173TIP3    H151934   4.413   6.100   2.128 -1.7453 -0.8690 -1.1501
10173TIP3    H251935   4.359   6.199   2.028 -2.0705  0.5445  0.3924
10174TIP3   OH251936   3.334   1.225  12.223  0.0079 -0.6365  0.2051
10174TIP3    H151937   3.255   1.181  12.191  0.8232 -0.9624 -1.3825
10174TIP3    H251938   3.332   1.311  12.181  0.3297 -0.5245  0.4197
10175TIP3   OH251939   5.543   2.711   2.135  0.1402  0.2523  0.3309
10175TIP3    H151940   5.624   2.691   2.089  0.1752  1.1872 -0.0122
10175TIP3    H251941   5.496   2.627   2.138  2.5684 -1.0805  3.4602
10176TIP3   OH251942   4.459   6.157  10.578 -0.1925  0.1214  0.8415
10176TIP3    H151943   4.416   6.239  10.553 -0.6721 -0.8605 -1.6788
10176TIP3    H251944   4.535   6.184  10.629  1.3877  2.3007 -2.5211
10177TIP3   OH251945   0.939   1.409   2.572  0.6158  0.2300  0.6109
10177TIP3    H151946   0.903   1.498   2.571 -0.6214 -0.2557  0.5542
10177TIP3    H251947   0.960   1.390   2.481  0.4240  0.2861  0.5544
10178TIP3   OH251948   3.134   5.602  15.838  0.5106 -0.4552 -0.2003
10178TIP3    H151949   3.161   5.577  15.750  1.5611 -0.3183  0.0696
10178TIP3    H251950   3.177   5.537  15.895 -0.6747 -0.9322  0.1683
10179TIP3   OH251951   5.437   4.260  17.075  0.6701 -0.9160  0.0143
10179TIP3    H151952   5.347   4.238  17.048  0.4298  0.9645 -0.7732
10179TIP3    H251953   5.479   4.175  17.088 -2.0143 -1.8856  3.1743
10180TIP3   OH251954   3.671   1.057  11.052  0.3253  0.0745  0.1082
10180TIP3    H151955   3.723   1.118  10.999  2.2599 -0.6266  1.1637
10180TIP3    H251956   3.670   1.096  11.139 -2.6259  1.0797 -0.3213
10181TIP3   OH251957   5.257   4.107   5.799  0.2150  0.0785 -0.2136
10181TIP3    H151958   5.272   4.199   5.820  0.0474  0.3117 -1.0971
10181TIP3    H251959   5.288   4.060   5.876 -0.6851  0.9241  0.6787
10182TIP3   OH251960   0.895   0.151  14.259  0.8226  0.2598  0.0017
10182TIP3    H151961   0.888   0.098  14.180  1.6404  0.3568 -0.1339
10182TIP3    H251962   0.973   0.205  14.246  0.5266  0.8335  0.5392
10183TIP3   OH251963   4.816   3.720  16.293 -0.1358  0.0339  0.0762
10183TIP3    H151964   4.837   3.640  16.244 -0.1879  0.8519 -1.2926
10183TIP3    H251965   4.889   3.732  16.353  1.8959  1.2231 -2.5782
10184TIP3   OH251966   0.917   4.882  16.852  0.8712  0.0888  0.1487
10184TIP3    H151967   0.828   4.916  16.856  1.3133  1.2705 -0.0004
10184TIP3    H251968   0.924   4.845  16.764  0.4052 -0.3567  0.2923
10185TIP3   OH251969   3.144   5.317  14.761  0.4510 -0.9541  0.4503
10185TIP3    H151970   3.051   5.339  14.756  0.2229 -2.0138 -0.1100
10185TIP3    H251971   3.178   5.373  14.830 -0.4787 -0.1203  0.2508
10186TIP3   OH251972   4.672   4.326   3.307 -0.0449  0.3077  0.3275
10186TIP3    H151973   4.737   4.381   3.351 -0.4380 -0.3369  1.7404
10186TIP3    H251974   4.592   4.338   3.357 -0.4930 -0.4579 -0.1976
10187TIP3   OH251975   6.337   1.077  14.617 -0.4960  0.0719 -0.2537
10187TIP3    H151976   6.259   1.032  14.585 -1.3479  0.1280  1.7159
10187TIP3    H251977   6.327   1.168  14.587 -0.8971 -0.0545 -0.4988
10188TIP3   OH251978   2.930   6.769  11.003 -0.0689 -0.5541 -0.3154
10188TIP3    H151979   2.945   6.675  11.013 -1.9409 -0.9082 -0.6179
10188TIP3    H251980   2.956   6.807  11.087  2.0003 -1.1526 -0.6598
10189TIP3   OH251981   0.455   5.052   1.673 -0.1514 -0.2233  0.4077
10189TIP3    H151982   0.535   5.063   1.621 -0.9665  0.8461 -0.6592
10189TIP3    H251983   0.452   4.958   1.692  0.1708 -0.6580 -1.5149
10190TIP3   OH251984   1.554   1.527   5.886 -0.4274 -0.8358  0.2447
10190TIP3    H151985   1.497   1.452   5.871 -0.0634 -1.4146  1.6592
10190TIP3    H251986   1.639   1.500   5.851 -0.3266 -1.0325  0.6435
10191TIP3   OH251987   2.180   1.432  11.773  0.2833  0.4763 -0.7334
10191TIP3    H151988   2.102   1.393  11.812  0.2814  0.4855 -0.7274
10191TIP3    H251989   2.225   1.474  11.846  0.9063 -0.5320 -0.5266
10192TIP3   OH251990   3.282   3.400   1.165  0.0595 -0.4590 -0.3664
10192TIP3    H151991   3.350   3.399   1.098  1.1625  3.2815  0.5588
10192TIP3    H251992   3.223   3.471   1.138 -1.4074 -1.2086  0.7789
10193TIP3   OH251993   2.386   1.258  13.351 -0.4175 -0.0940 -0.3031
10193TIP3    H151994   2.400   1.353  13.345  1.2193 -0.3343 -0.7334
10193TIP3    H251995   2.367   1.242  13.444 -1.0844  0.6934 -0.2976
10194TIP3   OH251996   6.105   5.225   1.664  0.8625 -1.2656  0.0669
10194TIP3    H151997   6.108   5.132   1.643  0.3705 -0.7837 -2.3477
10194TIP3    H251998   6.187   5.260   1.630  0.0202 -0.4349 -1.1407
10195TIP3   OH251999   4.944   2.948   2.378 -0.6717 -0.5000  0.1453
10195TIP3    H152000   4.949   2.964   2.283 -0.0414  2.5670  0.6326
10195TIP3    H252001   5.035   2.951   2.408 -0.9723 -0.0972  1.0418
10196TIP3   OH252002   4.303   4.293  10.992 -0.7602  0.0341 -0.5286
10196TIP3    H152003   4.372   4.359  10.992 -0.8647  0.1459 -0.9041
10196TIP3    H252004   4.236   4.328  10.933 -1.1805 -0.0275 -0.0891
10197TIP3   OH252005   1.366   2.647  16.996  0.0940  0.6290  0.5702
10197TIP3    H152006   1.273   2.625  17.001  0.4661 -1.2026 -0.2290
10197TIP3    H252007   1.411   2.563  16.997  1.7676  1.4948  1.1316
10198TIP3   OH252008   5.945   5.216   2.514  0.7667  0.1034  0.0961
10198TIP3    H152009   5.967   5.267   2.592  0.4230  1.2719 -0.5672
10198TIP3    H252010   5.874   5.264   2.473 -0.0399 -1.2797 -0.1722
10199TIP3   OH252011   2.990   0.279   4.718 -0.6274 -0.1995 -0.0840
10199TIP3    H152012   3.080   0.250   4.734 -0.3800  0.9164  0.6018
10199TIP3    H252013   2.943   0.256   4.798 -0.6423  0.4287  0.0901
10200TIP3   OH252014   6.778   3.176  13.705  0.1393  0.4816  0.3827
10200TIP3    H152015   6.803   3.202  13.794  0.8163  1.7968 -0.1782
10200TIP3    H252016   6.842   3.110  13.680 -0.6298 -0.6073  1.2213
10201TIP3   OH252017   5.684   1.883  11.878  0.6928 -0.3235  0.2286
10201TIP3    H152018   5.696   1.823  11.952  1.7052  0.8068  1.0051
10201TIP3    H252019   5.725   1.965  11.907 -0.2861  0.6064 -0.9898
10202TIP3   OH252020   3.326   0.754   0.097  0.0371  0.7966  0.1776
10202TIP3    H152021   3.241   0.799   0.093 -1.3808 -1.8633 -1.2041
10202TIP3    H252022   3.321   0.702   0.178 -0.0667 -0.1308 -0.4197
10203TIP3   OH252023   6.687   1.099   0.461  0.6147  0.0716 -0.6331
10203TIP3    H152024   6.742   1.032   0.502  1.2794  1.1549  0.2739
10203TIP3    H252025   6.685   1.074   0.368  1.3423 -0.8670 -0.4093
10204TIP3   OH252026   4.673   4.444  15.682 -0.2596 -0.5091  0.0005
10204TIP3    H152027   4.588   4.485  15.663  0.1278 -0.1694 -1.0126
10204TIP3    H252028   4.732   4.478  15.616  1.4206  1.5848  2.4794
10205TIP3   OH252029   4.482   4.934  11.697 -0.3555 -0.5780 -0.3421
10205TIP3    H152030   4.470   4.842  11.721  2.2507 -1.0843 -0.8337
10205TIP3    H252031   4.544   4.932  11.624  0.9515  1.6408  0.6562
10206TIP3   OH252032   3.273   6.010   3.633  0.9367  0.2878 -0.2254
10206TIP3    H152033   3.251   5.936   3.690 -0.9328 -1.6668 -3.3657
10206TIP3    H252034   3.201   6.072   3.646  0.1194 -0.4890 -1.0063
10207TIP3   OH252035   4.453   0.819  16.231 -0.2084 -0.1256  0.2124
10207TIP3    H152036   4.446   0.724  16.219  0.4952 -0.5330  2.8272
10207TIP3    H252037   4.547   0.836  16.235 -0.3387  0.6605 -0.0192
10208TIP3   OH252038   4.213   1.019   2.206  0.2049  0.3602  0.0646
10208TIP3    H152039   4.236   0.992   2.117 -1.1300 -0.8077  0.0499
10208TIP3    H252040   4.222   0.939   2.258 -2.2315  0.2141  0.3336
10209TIP3   OH252041   3.090   1.229  16.345 -0.2735  0.0237  0.2597
10209TIP3    H152042   3.041   1.309  16.326 -0.3497  0.0062  0.3783
10209TIP3    H252043   3.163   1.259  16.400 -0.5297 -0.0450  0.6384
10210TIP3   OH252044   1.357   1.804   2.071  0.0502 -0.0161 -0.5611
10210TIP3    H152045   1.401   1.743   2.130 -0.4702  1.4069  1.3419
10210TIP3    H252046   1.269   1.767   2.060  0.4831 -0.8378 -1.2998
10211TIP3   OH252047   3.844   5.013  14.240  0.0386 -0.1369  0.2976
10211TIP3    H152048   3.826   4.923  14.213  2.6853 -0.4140 -0.6853
10211TIP3    H252049   3.929   5.009  14.285  1.2968  2.1466 -1.7112
10212TIP3   OH252050   1.752   6.174  10.842  0.1698 -0.0660 -0.6231
10212TIP3    H152051   1.699   6.098  10.862 -0.9280  0.2003 -2.4462
10212TIP3    H252052   1.842   6.141  10.839 -0.2310 -1.1396 -0.7315
10213TIP3   OH252053   2.791   6.007   0.719  0.0830 -0.4003  0.1910
10213TIP3    H152054   2.843   6.087   0.731  0.2294 -0.6569  1.2920
10213TIP3    H252055   2.710   6.024   0.767 -0.4766 -0.3622 -0.7597
10214TIP3   OH252056   0.746   1.220  14.425  0.2620  0.9915 -0.1961
10214TIP3    H152057   0.815   1.286  14.425  0.7681  0.4776  0.8479
10214TIP3    H252058   0.740   1.190  14.334  1.4307  1.0232 -0.2868
10215TIP3   OH252059   5.443   5.295   1.690 -0.2723  0.0862 -0.5610
10215TIP3    H152060   5.351   5.323   1.688 -0.7409 -1.2288  1.6636
10215TIP3    H252061   5.490   5.370   1.729 -0.4083  0.6904 -1.5420
10216TIP3   OH252062   5.069   0.255  13.418  0.4000 -0.0792  0.3231
10216TIP3    H152063   5.141   0.260  13.356  0.4263 -0.0503  0.3567
10216TIP3    H252064   4.991   0.249  13.363  0.4681 -0.7360  0.2852
10217TIP3   OH252065   4.913   1.435  13.852  0.2587  0.1672 -0.1421
10217TIP3    H152066   4.906   1.444  13.757  0.1983  3.2641  0.1065
10217TIP3    H252067   4.990   1.488  13.875 -0.0361 -0.1520  1.5797
10218TIP3   OH252068   5.225   2.987  11.986 -0.6535  0.1260 -0.1934
10218TIP3    H152069   5.171   2.960  11.911 -2.3380  1.7144  0.4398
10218TIP3    H252070   5.268   3.067  11.957 -0.3980  0.1064  0.1300
10219TIP3   OH252071   1.340   4.313   4.261 -0.3652 -0.2400 -0.3169
10219TIP3    H152072   1.436   4.315   4.258 -0.3777 -0.2863 -0.7708
10219TIP3    H252073   1.319   4.301   4.354  0.0567  0.5828 -0.1093
10220TIP3   OH252074   5.044   6.619  15.381  0.1749  0.9312  0.4199
10220TIP3    H152075   5.032   6.712  15.362 -0.1217  0.7979 -0.0374
10220TIP3    H252076   5.136   6.612  15.406  0.4444  1.1876 -0.4783
10221TIP3   OH252077   1.130   6.776   5.215 -0.0839 -0.0233  0.1450
10221TIP3    H152078   1.036   6.792   5.203 -0.3801 -0.4194  1.7986
10221TIP3    H252079   1.140   6.764   5.310  1.4302 -1.3206 -0.1652
10222TIP3   OH252080   2.101   5.681   1.562 -0.3743  0.0945 -0.1697
10222TIP3    H152081   2.027   5.626   1.536 -1.3967  2.4346 -2.4565
10222TIP3    H252082   2.178   5.630   1.536 -1.1707 -1.9332  1.3187
10223TIP3   OH252083   2.558   1.005  13.361  0.3974  0.0961 -0.2228
10223TIP3    H152084   2.475   0.956  13.356 -0.0719  0.7214  1.0572
10223TIP3    H252085   2.537   1.091  13.323 -0.2947  1.1719  2.4569
10224TIP3   OH252086   5.762   5.706   4.954 -0.3776  0.1144 -0.5489
10224TIP3    H152087   5.807   5.631   4.994  0.8969  0.8733 -0.5065
10224TIP3    H252088   5.694   5.729   5.017  1.8229  1.5068  1.4566
10225TIP3   OH252089   4.259   0.034   2.202  0.4519  0.4405 -0.3002
10225TIP3    H152090   4.275   0.013   2.110  1.2393  0.0875 -0.0842
10225TIP3    H252091   4.169   0.067   2.204  0.1097 -0.4268 -1.0519
10226TIP3   OH252092   0.883   1.080  11.676  0.3927  0.3343 -0.2513
10226TIP3    H152093   0.922   1.155  11.720  0.4089 -0.5620  1.2936
10226TIP3    H252094   0.789   1.087  11.694  0.3845  0.0460 -0.1712
10227TIP3   OH252095   0.341   2.348   6.262  0.5699 -0.3183 -0.4502
10227TIP3    H152096   0.361   2.440   6.241 -1.4221  0.1763 -0.3002
10227TIP3    H252097   0.271   2.354   6.328  1.3603 -1.9402  0.5539
10228TIP3   OH252098   1.775   5.966   3.854 -0.1832 -0.1091  0.8094
10228TIP3    H152099   1.810   6.023   3.785 -1.3422  0.6952  0.8592
10228TIP3    H252100   1.836   5.892   3.858  0.5895  0.4592 -0.2076
10229TIP3   OH252101   0.531   2.938   0.467  0.9155 -0.4469  0.4968
10229TIP3    H152102   0.560   2.863   0.415  0.5917  0.9284 -1.7607
10229TIP3    H252103   0.440   2.953   0.440  0.9203  0.6368  1.0343
10230TIP3   OH252104   0.988   0.906  15.180  0.9153  0.0476 -0.5444
10230TIP3    H152105   1.000   0.930  15.272 -0.5597  0.4069 -0.4322
10230TIP3    H252106   1.018   0.982  15.131  0.4754  0.3705 -0.3171
10231TIP3   OH252107   5.156   4.703   4.016  0.1044  0.7669 -0.0946
10231TIP3    H152108   5.126   4.788   4.048 -0.4680  0.1644  1.0229
10231TIP3    H252109   5.078   4.648   4.018  1.0156 -0.5189  1.7704
10232TIP3   OH252110   2.573   1.550  12.280  0.4361  0.3696 -0.4350
10232TIP3    H152111   2.561   1.645  12.276  1.3060  0.4967 -0.2043
10232TIP3    H252112   2.488   1.516  12.307  0.2415  1.1280 -0.0784
10233TIP3   OH252113   1.181   5.016  13.774  0.4699  0.2224 -0.2989
10233TIP3    H152114   1.204   4.956  13.845  2.7785  2.5555  1.0348
10233TIP3    H252115   1.113   5.073  13.811 -1.5122 -1.3377 -1.4644
10234TIP3   OH252116   3.540   0.363  16.466 -0.4685 -0.3818 -0.1892
10234TIP3    H152117   3.529   0.454  16.494  0.0642  0.2516 -2.0120
10234TIP3    H252118   3.631   0.357  16.437 -0.6202 -1.3885 -0.4729
10235TIP3   OH252119   6.656   1.485   5.625 -0.2803  0.6031  0.6880
10235TIP3    H152120   6.561   1.477   5.632 -0.2062 -0.3352  0.6598
10235TIP3    H252121   6.687   1.486   5.716 -0.3308  1.1798  0.7045
10236TIP3   OH252122   4.587   4.243  13.130  0.4038 -0.0103  0.1754
10236TIP3    H152123   4.673   4.274  13.101  0.3277 -1.1329 -1.2811
10236TIP3    H252124   4.593   4.242  13.226  1.8154  0.4396  0.1068
10237TIP3   OH252125   0.338   1.194  16.209 -0.3400  0.0955  0.3177
10237TIP3    H152126   0.395   1.270  16.197  0.8978 -0.8838 -0.1637
10237TIP3    H252127   0.341   1.148  16.125  2.6636 -2.9745  1.9392
10238TIP3   OH252128   4.698   1.201  15.472 -0.0017  0.6498 -0.5182
10238TIP3    H152129   4.683   1.258  15.547 -1.9360  0.1608 -0.5011
10238TIP3    H252130   4.671   1.254  15.397 -0.2406  0.3530 -0.6447
10239TIP3   OH252131   2.734   5.673  14.951  0.2495 -0.4786 -0.1240
10239TIP3    H152132   2.672   5.667  14.879  1.7555  1.8204 -1.6591
10239TIP3    H252133   2.717   5.594  15.003 -2.3920 -1.0356 -1.7140
10240TIP3   OH252134   2.380   4.310   2.176 -0.2380  0.3052 -0.1557
10240TIP3    H152135   2.361   4.261   2.256 -0.9191 -0.9736 -1.0908
10240TIP3    H252136   2.296   4.350   2.152  0.1274  1.2657  0.1481
10241TIP3   OH252137   4.551   2.816   4.044 -0.1209 -0.6503  0.4487
10241TIP3    H152138   4.562   2.812   3.949  0.4169  0.7551  0.4542
10241TIP3    H252139   4.622   2.762   4.078 -0.7194 -1.7225  0.0427
10242TIP3   OH252140   5.299   4.902  12.928  0.1140 -0.2539 -0.1796
10242TIP3    H152141   5.294   4.992  12.960  1.0597 -0.0476 -0.5992
10242TIP3    H252142   5.219   4.890  12.877 -1.1870 -0.4367  1.8647
10243TIP3   OH252143   6.209   4.163  10.276  0.1368  0.0361 -0.3064
10243TIP3    H152144   6.233   4.073  10.252  1.2261  0.4016 -0.5878
10243TIP3    H252145   6.162   4.153  10.359 -0.7144 -0.8981 -0.8745
10244TIP3   OH252146   0.319   5.426   1.692  0.1334  0.7532  0.2837
10244TIP3    H152147   0.357   5.397   1.609 -0.8769  2.1248 -0.6723
10244TIP3    H252148   0.312   5.346   1.745  2.8576  0.2085 -0.1001
10245TIP3   OH252149   0.212   5.973   2.567  0.2193 -0.7425  0.0601
10245TIP3    H152150   0.159   6.050   2.588  1.0373  0.6215 -2.5739
10245TIP3    H252151   0.303   6.003   2.574  0.5557 -1.5522 -0.7071
10246TIP3   OH252152   6.214   4.354  14.271  0.1466  0.5645 -0.4408
10246TIP3    H152153   6.186   4.396  14.190  0.0548  0.7968 -0.2883
10246TIP3    H252154   6.169   4.402  14.340 -0.1040  0.0958 -0.2785
10247TIP3   OH252155   1.204   2.821   0.779 -0.0762 -0.0668  0.0273
10247TIP3    H152156   1.273   2.847   0.719 -0.0862 -1.5196 -0.6357
10247TIP3    H252157   1.137   2.889   0.770  1.0552  1.1025  0.3460
10248TIP3   OH252158   5.302   4.273  15.349 -0.4734 -0.3392 -0.2428
10248TIP3    H152159   5.328   4.352  15.304 -0.0740 -1.0840 -1.3320
10248TIP3    H252160   5.364   4.265  15.422 -0.1220 -0.0035 -0.5090
10249TIP3   OH252161   4.442   0.143   6.112 -0.5097  0.0491  0.7589
10249TIP3    H152162   4.424   0.223   6.064  0.4085 -0.7060 -0.8765
10249TIP3    H252163   4.357   0.117   6.148 -0.7295  1.9646  1.6799
10250TIP3   OH252164   5.202   0.260  13.924  0.0644 -0.0191  0.1841
10250TIP3    H152165   5.208   0.223  14.012 -2.4268 -0.1196  0.3411
10250TIP3    H252166   5.210   0.185  13.865  0.8665 -0.0562  0.3334
10251TIP3   OH252167   1.324   2.974  12.812 -0.1987  0.1231 -0.2809
10251TIP3    H152168   1.278   2.972  12.897 -0.5152  2.6198 -0.3550
10251TIP3    H252169   1.409   2.935  12.830 -0.4743  0.1152  1.0662
10252TIP3   OH252170   4.260   2.507   2.939 -0.1270  0.1385 -0.0257
10252TIP3    H152171   4.300   2.572   2.997  1.2162 -0.1463 -0.6235
10252TIP3    H252172   4.204   2.559   2.881  2.5294  1.0564 -1.8727
10253TIP3   OH252173   5.011   2.169  15.439 -0.3639 -0.2072 -0.1696
10253TIP3    H152174   4.989   2.149  15.530  0.4738 -0.2191  0.0346
10253TIP3    H252175   5.038   2.085  15.403 -3.5624 -0.8297 -1.2872
10254TIP3   OH252176   2.386   5.990   0.579  0.3464  0.1900 -0.5690
10254TIP3    H152177   2.468   5.961   0.538 -0.1762 -0.7848 -0.9597
10254TIP3    H252178   2.321   5.981   0.509  0.0596  1.7779 -0.5071
10255TIP3   OH252179   4.686   1.823   0.760 -0.6661 -0.3413 -0.0926
10255TIP3    H152180   4.727   1.890   0.705  0.4855 -1.2286 -0.3141
10255TIP3    H252181   4.759   1.768   0.790 -1.3929 -0.4420  1.5323
10256TIP3   OH252182   3.024   0.950  13.441 -0.1139 -0.1348  0.0443
10256TIP3    H152183   3.065   0.975  13.358 -1.9260  0.6646 -0.6525
10256TIP3    H252184   3.048   1.020  13.502  1.3755 -0.8189  0.2448
10257TIP3   OH252185   2.532   6.215   6.049  0.1491 -0.5391  0.7191
10257TIP3    H152186   2.509   6.157   6.121  0.9694 -2.3057 -0.4164
10257TIP3    H252187   2.623   6.240   6.066  0.2119 -0.6336  0.5348
10258TIP3   OH252188   2.161   6.441  14.012 -0.0431  0.2287  0.3176
10258TIP3    H152189   2.066   6.449  14.007 -0.1299 -0.9762 -0.1126
10258TIP3    H252190   2.176   6.362  14.063  0.7110 -0.5847 -1.1313
10259TIP3   OH252191   2.970   1.731  11.837 -0.4755  0.6357  0.6763
10259TIP3    H152192   2.902   1.748  11.771 -0.0447  2.2135  0.6331
10259TIP3    H252193   2.999   1.818  11.864  1.4330 -0.0375  0.8070
10260TIP3   OH252194   6.395   3.950  14.193  0.3525 -0.3317 -0.0530
10260TIP3    H152195   6.484   3.919  14.178  0.1918 -0.9954  0.3305
10260TIP3    H252196   6.367   3.905  14.273  0.2209  1.0720  0.6955
10261TIP3   OH252197   4.338   2.781  11.202  0.2470  0.3436 -0.0784
10261TIP3    H152198   4.274   2.710  11.205  0.2092  0.3560 -0.5524
10261TIP3    H252199   4.370   2.781  11.112  0.6494  0.5711  0.0635
10262TIP3   OH252200   1.593   3.892  14.489 -0.5831 -0.2432  0.3934
10262TIP3    H152201   1.541   3.836  14.548  0.1437 -2.0552 -0.6301
10262TIP3    H252202   1.548   3.888  14.405  1.1154 -1.7867 -0.4931
10263TIP3   OH252203   6.716   2.919   2.139 -0.0085  0.6181 -0.0095
10263TIP3    H152204   6.767   2.839   2.141 -0.5799  0.2656  1.0654
10263TIP3    H252205   6.781   2.989   2.137  0.5040  0.1557  0.5099
10264TIP3   OH252206   0.215   0.487  12.861 -0.2377 -0.5231 -0.0628
10264TIP3    H152207   0.156   0.540  12.915 -0.9128 -3.3434  2.1581
10264TIP3    H252208   0.158   0.449  12.794 -0.2535 -0.3662 -0.1369
10265TIP3   OH252209   1.403   4.657   1.614  0.3250 -0.9355 -0.2626
10265TIP3    H152210   1.430   4.689   1.700 -1.4878 -0.2119  0.0610
10265TIP3    H252211   1.384   4.736   1.563 -1.0872 -1.4091 -0.4876
10266TIP3   OH252212   2.862   2.067   0.267  0.4311 -0.0818 -0.5918
10266TIP3    H152213   2.816   1.988   0.236 -0.4970  0.6980 -1.2218
10266TIP3    H252214   2.804   2.103   0.334  1.8718 -1.1060  1.2451
10267TIP3   OH252215   1.148   4.552   0.437 -0.1154 -0.1554  0.0383
10267TIP3    H152216   1.111   4.500   0.508  2.3894 -2.0116  0.0541
10267TIP3    H252217   1.175   4.634   0.480 -0.8208 -0.2797  0.7368
10268TIP3   OH252218   4.862   0.319   5.037 -0.4600 -0.3167  0.3122
10268TIP3    H152219   4.894   0.338   5.126  0.1550 -0.8404  0.2113
10268TIP3    H252220   4.844   0.225   5.039  0.5143 -0.5303 -0.4052
10269TIP3   OH252221   5.807   0.311  16.826  0.0504 -0.2315  0.3227
10269TIP3    H152222   5.733   0.370  16.808 -0.7879 -1.5998 -0.7895
10269TIP3    H252223   5.884   0.366  16.815 -0.7478  0.8352 -0.0767
10270TIP3   OH252224   0.543   1.705   0.952  0.0932 -0.0553  0.5009
10270TIP3    H152225   0.591   1.690   0.871  0.8592  0.5580  0.8391
10270TIP3    H252226   0.487   1.627   0.961  0.1433 -0.2151 -0.5052
10271TIP3   OH252227   4.987   2.729   4.041  0.2014 -0.4095  0.1249
10271TIP3    H152228   4.986   2.824   4.031 -1.2316 -0.4797 -0.4611
10271TIP3    H252229   5.075   2.710   4.075  0.9867  0.9806 -1.0458
10272TIP3   OH252230   3.038   4.155  14.495 -0.0838  0.2987 -0.5588
10272TIP3    H152231   3.014   4.068  14.528  3.0585 -0.7839 -0.9885
10272TIP3    H252232   3.095   4.192  14.563  0.1494  1.2501 -1.2638
10273TIP3   OH252233   2.670   6.205   3.406  0.1026 -0.3529  0.2351
10273TIP3    H152234   2.763   6.186   3.392  0.3527 -0.0395  1.3891
10273TIP3    H252235   2.628   6.183   3.323  0.9000 -2.4262  0.3665
10274TIP3   OH252236   4.616   4.425  11.668 -0.5863  0.1846  0.5515
10274TIP3    H152237   4.644   4.467  11.587 -1.3125  1.6769  1.0482
10274TIP3    H252238   4.524   4.402  11.652 -0.7129  0.4258  0.9379
10275TIP3   OH252239   3.355   5.158   5.505 -0.0020 -0.5002 -0.2971
10275TIP3    H152240   3.316   5.126   5.586 -0.6689  0.2818 -0.2976
10275TIP3    H252241   3.414   5.088   5.478 -0.8383 -1.3916  0.1115
10276TIP3   OH252242   4.594   4.434   2.023 -0.0428  0.2650 -0.3751
10276TIP3    H152243   4.595   4.371   2.096  1.1055  1.7190  0.8812
10276TIP3    H252244   4.669   4.409   1.969 -0.3379 -0.2215 -0.5691
10277TIP3   OH252245   6.292   1.163   4.408  0.4233 -0.0641  0.1730
10277TIP3    H152246   6.198   1.179   4.401  0.5042  0.3692  0.0712
10277TIP3    H252247   6.332   1.250   4.411  0.7284 -0.2372  1.5590
10278TIP3   OH252248   2.624   0.153   2.369 -0.1985 -0.2515 -0.0612
10278TIP3    H152249   2.699   0.101   2.340  0.7930  0.0763  1.8406
10278TIP3    H252250   2.628   0.149   2.465 -0.9882  2.0769  0.0953
10279TIP3   OH252251   5.918   2.691   5.490 -0.3007 -0.4684  0.1967
10279TIP3    H152252   5.912   2.785   5.504  0.0929  0.0182 -2.7030
10279TIP3    H252253   5.908   2.653   5.578 -0.5655  2.2406  1.3761
10280TIP3   OH252254   4.816   3.929  12.643 -0.4824 -0.2423  0.4788
10280TIP3    H152255   4.799   3.923  12.548 -0.0005 -1.5091  0.4627
10280TIP3    H252256   4.867   3.851  12.663  0.6166  0.7243  1.5449
10281TIP3   OH252257   1.840   5.672   3.212  0.2666  0.0639 -0.0412
10281TIP3    H152258   1.917   5.625   3.245 -1.2447 -1.4216  1.3975
10281TIP3    H252259   1.801   5.711   3.290 -0.9004  0.1581 -0.6724
10282TIP3   OH252260   1.472   5.096  15.200  0.3004 -0.2354  0.4082
10282TIP3    H152261   1.423   5.140  15.268  2.2477  1.6641  0.6387
10282TIP3    H252262   1.518   5.166  15.154  2.2527 -1.8582 -0.2075
10283TIP3   OH252263   4.049   2.682  12.095  0.1882 -0.8953  0.3623
10283TIP3    H152264   4.143   2.688  12.113  0.3060 -0.5512 -0.3443
10283TIP3    H252265   4.035   2.741  12.021 -0.7154 -0.3841  0.9323
10284TIP3   OH252266   0.589   5.750   3.934  0.8283 -0.0916 -0.0911
10284TIP3    H152267   0.556   5.802   4.007  3.1216 -1.2943  1.8718
10284TIP3    H252268   0.536   5.670   3.935  0.2537  0.2751 -0.3590
10285TIP3   OH252269   2.318   5.356  12.359 -0.0670 -0.4325 -0.2552
10285TIP3    H152270   2.360   5.360  12.445  1.6403  1.1787 -1.1511
10285TIP3    H252271   2.359   5.281  12.315  1.8067  1.0512 -1.0746
10286TIP3   OH252272   2.297   4.994  14.320 -0.1758  0.4874  0.0935
10286TIP3    H152273   2.371   4.991  14.381 -0.2927 -2.2224  0.1299
10286TIP3    H252274   2.220   4.990  14.376 -0.2887 -3.8098 -0.2069
10287TIP3   OH252275   4.381   4.633  14.337 -0.2863  0.0189 -0.3826
10287TIP3    H152276   4.444   4.694  14.299  1.8264 -0.9595  1.4445
10287TIP3    H252277   4.399   4.634  14.431 -1.0712 -2.4493 -0.1601
10288TIP3   OH252278   1.424   6.738  11.059 -0.6206  0.4392 -0.1998
10288TIP3    H152279   1.471   6.810  11.101 -0.6847 -0.2438  1.0413
10288TIP3    H252280   1.457   6.737  10.969  1.0589  0.5508  0.4143
10289TIP3   OH252281   4.394   5.800  13.903  0.2280 -0.5577 -0.3170
10289TIP3    H152282   4.343   5.821  13.981 -0.0042 -2.4219  0.0650
10289TIP3    H252283   4.480   5.773  13.938  1.0054  1.1726 -0.8683
10290TIP3   OH252284   5.480   3.022  12.343 -0.2670 -0.0373  0.4351
10290TIP3    H152285   5.505   3.113  12.358 -0.3921  0.1624 -0.5624
10290TIP3    H252286   5.466   2.986  12.431  1.6107  0.3901  0.9409
10291TIP3   OH252287   3.720   4.349   0.806 -0.7916  0.0818 -0.0926
10291TIP3    H152288   3.738   4.294   0.882  0.8194  0.1218 -0.4315
10291TIP3    H252289   3.643   4.400   0.832 -3.4673 -3.5733 -0.4727
10292TIP3   OH252290   2.587   4.209   2.641  0.1582  0.2562 -0.6301
10292TIP3    H152291   2.596   4.150   2.716  0.8370  1.3331  0.1484
10292TIP3    H252292   2.529   4.279   2.672  0.6111  0.8175 -1.0203
10293TIP3   OH252293   1.475   3.801  16.415 -0.9372 -0.2783 -0.5838
10293TIP3    H152294   1.558   3.848  16.424 -0.7795 -0.6984  0.1919
10293TIP3    H252295   1.462   3.760  16.500 -1.5181 -0.9047 -0.9752
10294TIP3   OH252296   2.127   1.572   5.596  0.7382 -0.0746 -0.1031
10294TIP3    H152297   2.181   1.620   5.533 -1.0583  1.3681 -0.5749
10294TIP3    H252298   2.049   1.626   5.607  1.4411  0.2253  4.1593
10295TIP3   OH252299   6.718   3.392   2.935 -0.5424 -0.2092  0.6727
10295TIP3    H152300   6.755   3.438   3.010 -0.6688  1.0701 -0.0315
10295TIP3    H252301   6.718   3.300   2.961  1.8073 -0.0924  1.2661
10296TIP3   OH252302   5.039   3.716   2.407 -0.3827  0.3489  0.2517
10296TIP3    H152303   5.006   3.642   2.458  0.6600  1.3031  2.3886
10296TIP3    H252304   5.082   3.676   2.332  1.7810 -1.3947  2.3197
10297TIP3   OH252305   4.092   3.342  12.095 -0.9560 -0.2811 -0.3439
10297TIP3    H152306   4.161   3.409  12.098 -1.1788 -0.1291  2.3909
10297TIP3    H252307   4.087   3.318  12.003  1.8771  0.6196 -0.7940
10298TIP3   OH252308   2.344   6.707  13.349  0.2012  0.4118  0.6180
10298TIP3    H152309   2.299   6.791  13.339 -0.2979 -0.1343 -2.0816
10298TIP3    H252310   2.434   6.726  13.321 -0.3074 -0.3030 -1.5566
10299TIP3   OH252311   3.964   1.593  14.002  0.3310  0.1600 -0.8940
10299TIP3    H152312   3.967   1.547  13.918 -0.4617 -0.2159 -0.7137
10299TIP3    H252313   3.896   1.660  13.990 -1.2504 -1.2439  0.1378
10300TIP3   OH252314   3.952   6.045   1.577  0.7953 -0.6113  0.2026
10300TIP3    H152315   4.023   6.024   1.638 -1.0068 -1.6249  2.0138
10300TIP3    H252316   3.928   6.135   1.599  0.0437 -1.0255  1.1583
10301TIP3   OH252317   4.160   4.110  14.742  0.3590 -0.2941  0.0921
10301TIP3    H152318   4.217   4.113  14.819  1.1027  0.1105 -0.4686
10301TIP3    H252319   4.138   4.017  14.732  1.2605 -0.5109  0.0740
10302TIP3   OH252320   3.519   6.015   3.205 -0.3522  0.2885 -0.2981
10302TIP3    H152321   3.438   6.050   3.242  0.1083  2.8025 -1.5982
10302TIP3    H252322   3.493   5.929   3.169 -1.4536 -0.8543  3.0542
10303TIP3   OH252323   5.739   5.938   2.006 -0.3233  0.0092  0.5750
10303TIP3    H152324   5.643   5.943   2.005 -0.3815 -0.8792  0.8260
10303TIP3    H252325   5.757   5.844   1.999  0.5303  0.1782  0.5490
10304TIP3   OH252326   5.921   3.473  17.137  0.4214  0.3031  0.4278
10304TIP3    H152327   5.890   3.517  17.057 -0.2833  1.5227  1.3538
10304TIP3    H252328   5.995   3.527  17.166  0.0509  0.4274  1.1402
10305TIP3   OH252329   5.013   5.177   5.432 -0.3602 -0.0747 -0.3935
10305TIP3    H152330   4.990   5.130   5.512  0.7139 -0.1527 -0.1341
10305TIP3    H252331   5.084   5.127   5.393 -0.8288  0.0041 -1.3650
10306TIP3   OH252332   0.222   1.546  11.448  0.1294 -0.4506 -0.1942
10306TIP3    H152333   0.248   1.551  11.541  0.6582 -0.5069 -0.3344
10306TIP3    H252334   0.137   1.502  11.449 -0.7660  1.2298  0.4264
10307TIP3   OH252335   4.198   3.138  17.170 -0.1410  0.2697 -0.4340
10307TIP3    H152336   4.144   3.161  17.245  0.6158 -0.7350  0.4199
10307TIP3    H252337   4.284   3.119  17.207  0.3874  0.3309 -1.6156
10308TIP3   OH252338   5.686   1.042  16.621 -0.2583  0.0215 -0.3545
10308TIP3    H152339   5.591   1.056  16.620 -0.3190 -0.4450 -1.6516
10308TIP3    H252340   5.696   0.949  16.599  0.4914  0.0203 -0.0175
10309TIP3   OH252341   3.612   4.187  17.161 -0.7473  0.5312  0.0562
10309TIP3    H152342   3.574   4.224  17.241 -3.0776  0.4709 -0.9945
10309TIP3    H252343   3.646   4.262  17.113  0.8195  0.5507  1.1621
10310TIP3   OH252344   2.010   0.052  11.867 -0.5236  0.0172  0.0037
10310TIP3    H152345   2.030   0.102  11.787  1.2439  1.0881  1.0783
10310TIP3    H252346   2.096   0.034  11.905 -1.3584 -0.5693  1.6184
10311TIP3   OH252347   5.704   2.105   2.535  0.0798 -0.1575  0.0872
10311TIP3    H152348   5.677   2.025   2.490  1.3134 -0.6993  0.3111
10311TIP3    H252349   5.674   2.176   2.478 -0.5655 -0.7840 -0.3558
10312TIP3   OH252350   1.687   1.378  12.844  0.5028 -0.0077  0.0998
10312TIP3    H152351   1.776   1.369  12.879  0.3941 -1.6413  0.0077
10312TIP3    H252352   1.695   1.353  12.752 -0.1277 -0.5692  0.1967
10313TIP3   OH252353   1.243   3.186   1.831 -0.4015 -0.1797 -0.2418
10313TIP3    H152354   1.281   3.243   1.898 -1.2797 -0.3057  0.3703
10313TIP3    H252355   1.278   3.220   1.749  0.7889 -0.1008  0.2788
10314TIP3   OH252356   4.109   0.805  12.980 -0.4196  0.4512  0.2538
10314TIP3    H152357   4.105   0.750  13.059 -0.0009  0.6752  0.4318
10314TIP3    H252358   4.063   0.754  12.914  1.6966 -1.0376 -0.1360
10315TIP3   OH252359   3.921   0.076  11.193  0.1435 -0.2327  0.4517
10315TIP3    H152360   3.976   0.012  11.149 -0.1891 -0.6304  0.6178
10315TIP3    H252361   3.892   0.032  11.273 -1.3210 -0.4248 -0.1684
10316TIP3   OH252362   1.537   6.003   0.520 -0.3722  0.0290  0.6038
10316TIP3    H152363   1.469   5.937   0.507 -1.1741  0.8474  0.5194
10316TIP3    H252364   1.496   6.068   0.577 -0.6641  1.9353 -1.6884
10317TIP3   OH252365   2.285   3.633  16.379 -0.4188  0.2132 -0.0686
10317TIP3    H152366   2.377   3.607  16.379 -0.2414  0.5640  3.3472
10317TIP3    H252367   2.278   3.697  16.450 -2.6895  2.6666 -2.3767
10318TIP3   OH252368   4.789   5.946   2.575  0.2611 -0.0685 -0.2477
10318TIP3    H152369   4.856   5.997   2.620  0.6520  0.1406 -1.0664
10318TIP3    H252370   4.734   5.912   2.646  0.0630  1.3817  0.3100
10319TIP3   OH252371   4.814   2.112   2.203 -0.1535 -0.4409  0.8454
10319TIP3    H152372   4.815   2.023   2.238 -0.9117 -0.9663 -0.4280
10319TIP3    H252373   4.747   2.110   2.135  0.8525  0.6996 -0.2099
10320TIP3   OH252374   3.907   0.616   3.393  0.4656  0.0089 -0.3156
10320TIP3    H152375   3.819   0.580   3.408  0.0724  0.3145 -1.7912
10320TIP3    H252376   3.919   0.679   3.464 -0.8203  0.5122 -0.5273
10321TIP3   OH252377   0.841   3.062  12.274  0.1980  0.0559  0.4153
10321TIP3    H152378   0.789   3.057  12.194 -0.2581  0.2257  0.6978
10321TIP3    H252379   0.908   3.128  12.256  0.3327 -0.1843  0.0400
10322TIP3   OH252380   1.095   4.842   4.440  0.8496 -0.5886 -0.3312
10322TIP3    H152381   1.047   4.858   4.521  1.1973  0.9811 -0.4209
10322TIP3    H252382   1.117   4.749   4.443 -0.7387 -0.9510  0.4898
10323TIP3   OH252383   2.652   5.524   2.069 -0.3716  0.3720  0.0255
10323TIP3    H152384   2.606   5.592   2.019 -1.1870  1.3134  1.9756
10323TIP3    H252385   2.582   5.476   2.113  0.3747  0.2000  1.0334
10324TIP3   OH252386   1.910   5.709   0.135 -0.2603 -0.9636  0.3184
10324TIP3    H152387   1.931   5.749   0.050 -1.8896 -1.1612 -0.1900
10324TIP3    H252388   1.920   5.615   0.120 -0.5351 -0.9985  0.3606
10325TIP3   OH252389   2.413   1.482   3.455  0.3603 -0.9445 -0.2300
10325TIP3    H152390   2.360   1.490   3.534  1.3552 -0.0569  0.3507
10325TIP3    H252391   2.382   1.554   3.399  0.6568 -0.6835 -0.0602
10326TIP3   OH252392   5.902   1.677  10.836  0.6769 -0.4409 -0.7492
10326TIP3    H152393   5.886   1.584  10.824  0.6584 -0.5772  0.3443
10326TIP3    H252394   5.829   1.708  10.889  0.0750  0.4274 -2.0629
10327TIP3   OH252395   1.558   6.776   5.210  0.5805  0.6204 -0.1276
10327TIP3    H152396   1.543   6.695   5.260 -0.2581  1.4122  0.9261
10327TIP3    H252397   1.486   6.833   5.235  1.0642  1.6285 -1.0197
10328TIP3   OH252398   5.826   3.078   0.450 -0.2737  0.1091  0.0225
10328TIP3    H152399   5.754   3.106   0.393 -0.4746 -1.8365 -0.7528
10328TIP3    H252400   5.819   2.982   0.450  0.6037  0.0216  2.2106
10329TIP3   OH252401   1.071   1.274   2.019  0.1943  0.1669  0.2859
10329TIP3    H152402   0.992   1.327   2.005  0.2950  0.8490  2.0426
10329TIP3    H252403   1.038   1.187   2.041  0.0146 -0.3681 -1.9763
10330TIP3   OH252404   3.625   6.280  11.998  0.1513  0.2679 -0.7309
10330TIP3    H152405   3.559   6.333  12.042 -0.6283 -0.5280 -0.9463
10330TIP3    H252406   3.708   6.309  12.036 -0.4590  0.0648  0.7602
10331TIP3   OH252407   3.922   2.921  12.552  0.0200  0.1460 -0.2968
10331TIP3    H152408   3.881   3.003  12.526  0.4796  0.4448 -0.0774
10331TIP3    H252409   3.990   2.906  12.487  1.4706  1.1245  0.9498
10332TIP3   OH252410   1.280   1.570   5.287  0.1998  0.4033 -0.3751
10332TIP3    H152411   1.374   1.551   5.291 -0.2672 -1.6598  1.6835
10332TIP3    H252412   1.245   1.510   5.222  0.0759  0.0901 -0.0236
10333TIP3   OH252413   5.598   2.734   3.271 -0.1191 -0.4502  0.0910
10333TIP3    H152414   5.560   2.753   3.357  3.4925  0.8130  1.5156
10333TIP3    H252415   5.628   2.643   3.278  0.4004 -0.2676  0.2775
10334TIP3   OH252416   0.324   2.158   1.134 -0.7103 -0.3239 -0.0619
10334TIP3    H152417   0.308   2.079   1.082 -1.0418 -0.9062  0.9168
10334TIP3    H252418   0.383   2.130   1.203 -2.5155 -0.2459  1.5738
10335TIP3   OH252419   5.434   0.477   5.400  0.4217  0.1374 -0.4996
10335TIP3    H152420   5.339   0.471   5.408  0.5205  1.7939  2.4102
10335TIP3    H252421   5.452   0.571   5.394  2.0952  0.0718  2.5303
10336TIP3   OH252422   3.007   1.693   3.635  0.0868 -0.0183 -0.1765
10336TIP3    H152423   3.061   1.670   3.711  2.1618 -2.8560 -2.3845
10336TIP3    H252424   2.973   1.780   3.655  3.3107  0.7364  2.5261
10337TIP3   OH252425   1.858   0.748  11.839  0.6758 -0.3685 -0.0248
10337TIP3    H152426   1.875   0.703  11.922 -3.4360 -1.6195  0.2410
10337TIP3    H252427   1.934   0.728  11.784  1.9953 -2.1032  2.3411
10338TIP3   OH252428   2.831   0.142  13.241 -0.0814  0.3516  0.0969
10338TIP3    H152429   2.837   0.115  13.149 -1.5985 -0.3397  0.1961
10338TIP3    H252430   2.751   0.194  13.246 -0.0690  0.2910  1.0555
10339TIP3   OH252431   4.494   0.037   3.595  0.2215 -0.2757  0.2595
10339TIP3    H152432   4.581   0.030   3.555  1.4449  1.7851  2.4607
10339TIP3    H252433   4.450  -0.043   3.568  2.7281 -1.2975 -1.0434
10340TIP3   OH252434   0.372   1.079   4.572 -0.4753  0.3460  0.2394
10340TIP3    H152435   0.430   1.137   4.523 -0.7236  0.4911  0.1136
10340TIP3    H252436   0.360   1.122   4.657  2.6290 -1.5312  1.7165
10341TIP3   OH252437   0.090   3.114  15.640 -0.5450 -0.1655 -0.2667
10341TIP3    H152438   0.151   3.086  15.709  0.6283 -0.4929 -1.4208
10341TIP3    H252439   0.102   3.050  15.570 -0.8456  0.8791 -1.2824
10342TIP3   OH252440   4.351   3.043   3.458  0.0345 -0.1921  0.1826
10342TIP3    H152441   4.395   2.985   3.395  0.2263  1.6788 -1.4507
10342TIP3    H252442   4.331   2.986   3.533  2.5632 -1.7700 -0.2686
10343TIP3   OH252443   5.205   3.068  13.477  0.5446  0.2511  0.7110
10343TIP3    H152444   5.112   3.090  13.467  0.9835  2.0303  0.3381
10343TIP3    H252445   5.240   3.136  13.534  1.7362 -0.0845  0.4048
10344TIP3   OH252446   1.575   3.124   2.198 -0.2619 -0.1064  0.0178
10344TIP3    H152447   1.533   3.127   2.284 -1.9863 -0.4763 -0.7838
10344TIP3    H252448   1.654   3.176   2.208 -0.0119 -0.8470  2.0621
10345TIP3   OH252449   2.640   0.242   1.570  0.1080 -0.2847 -0.3308
10345TIP3    H152450   2.628   0.273   1.480 -0.1434  0.9973  0.1380
10345TIP3    H252451   2.720   0.285   1.600 -0.3228  0.0328  0.3739
10346TIP3   OH252452   5.706   3.433   5.138  0.3617  0.3631 -0.8468
10346TIP3    H152453   5.660   3.416   5.220 -0.8201 -0.4465 -1.6431
10346TIP3    H252454   5.720   3.527   5.137  2.4529  0.1160  1.3360
10347TIP3   OH252455   3.092   6.564   0.485 -0.8272  0.5150  0.9352
10347TIP3    H152456   3.006   6.530   0.462 -0.7440  0.3259  0.8985
10347TIP3    H252457   3.137   6.577   0.401 -0.5565 -0.0883  0.9839
10348TIP3   OH252458   0.452   6.174   0.456 -0.9938 -0.1164  0.3266
10348TIP3    H152459   0.407   6.116   0.394  1.4083 -1.7277  0.0406
10348TIP3    H252460   0.473   6.251   0.404  1.4356 -1.6488 -1.0799
10349TIP3   OH252461   3.692   3.659  12.574  0.3344  0.1785 -0.0580
10349TIP3    H152462   3.615   3.631  12.624  1.9049 -2.2548  1.0374
10349TIP3    H252463   3.679   3.621  12.488  0.8248 -1.1476  0.4446
10350TIP3   OH252464   2.410   1.320   1.717  0.6362 -0.0472  0.1836
10350TIP3    H152465   2.393   1.282   1.803  0.3784  1.1905  0.6888
10350TIP3    H252466   2.461   1.399   1.735 -0.5190  0.9263 -0.6942
10351TIP3   OH252467   2.263   2.116  11.575 -0.3973 -0.3033 -0.1197
10351TIP3    H152468   2.324   2.156  11.636 -1.1985 -0.7337  0.9822
10351TIP3    H252469   2.314   2.045  11.534 -0.3416 -1.1041  1.2897
10352TIP3   OH252470   1.345   3.449  14.568  0.3954 -0.2877  0.3439
10352TIP3    H152471   1.311   3.375  14.618 -1.8067 -0.9104 -2.0173
10352TIP3    H252472   1.320   3.432  14.477  1.7641  2.2626 -0.5879
10353TIP3   OH252473   6.384   1.879  14.494 -0.1906  0.2390  0.7378
10353TIP3    H152474   6.461   1.833  14.529 -1.2357 -1.5725  0.6504
10353TIP3    H252475   6.310   1.823  14.516 -1.6032  2.3029  1.4345
10354TIP3   OH252476   5.289   2.110  11.730  0.2207 -0.1447  0.8445
10354TIP3    H152477   5.364   2.055  11.707  0.4897 -0.0348  1.4534
10354TIP3    H252478   5.317   2.199  11.708  0.9049  0.0949  2.6481
10355TIP3   OH252479   6.488   4.446  14.390 -0.4781  0.2979  0.4944
10355TIP3    H152480   6.500   4.361  14.349  0.5272  0.4796  0.4059
10355TIP3    H252481   6.419   4.432  14.455 -0.7785 -0.4209  0.0253
10356TIP3   OH252482   1.955   2.756  12.269 -0.3763 -0.7704  0.0044
10356TIP3    H152483   2.008   2.692  12.316 -2.7028 -2.1392  0.8014
10356TIP3    H252484   1.941   2.717  12.183  0.6442  0.0230 -0.5455
10357TIP3   OH252485   6.737   2.163  11.730  1.0183 -0.0620 -0.3833
10357TIP3    H152486   6.747   2.133  11.640 -0.2067 -2.1914  0.1538
10357TIP3    H252487   6.771   2.091  11.784 -1.9004 -0.5721  0.9280
10358TIP3   OH252488   6.187   4.126   0.603  1.2014  0.1477 -0.1317
10358TIP3    H152489   6.200   4.210   0.560 -1.4792 -0.4036 -2.1494
10358TIP3    H252490   6.145   4.071   0.537 -1.9623 -1.1077  2.7502
10359TIP3   OH252491   2.104   4.429   2.136  0.6067  0.3314  0.5074
10359TIP3    H152492   2.101   4.509   2.187 -2.2836 -0.5388  1.7910
10359TIP3    H252493   2.087   4.456   2.046 -0.5795  1.1324  0.9711
10360TIP3   OH252494   3.266   0.334  16.434  0.1459  0.0920  0.4122
10360TIP3    H152495   3.269   0.409  16.375  0.0785  1.3123  1.9391
10360TIP3    H252496   3.357   0.316  16.456  0.0576  0.9081  1.4959
10361TIP3   OH252497   4.644   2.503  13.186  0.4227 -0.4920 -0.1996
10361TIP3    H152498   4.637   2.572  13.120 -1.0604 -0.0432  0.3926
10361TIP3    H252499   4.591   2.535  13.259 -0.8471 -2.5684 -0.1757
10362TIP3   OH252500   4.501   6.555   1.352  0.8354  0.2698 -0.1418
10362TIP3    H152501   4.544   6.488   1.405  0.6117  0.3560  0.1516
10362TIP3    H252502   4.561   6.571   1.279  0.6910 -0.5684 -0.4474
10363TIP3   OH252503   4.943   3.107   3.590 -0.0878 -0.2349  0.2811
10363TIP3    H152504   4.973   3.049   3.520  0.0052 -1.0457  0.9954
10363TIP3    H252505   4.927   3.049   3.664  0.0927  0.6600  1.0258
10364TIP3   OH252506   6.147   4.343  15.261  0.5069  0.0786 -0.1783
10364TIP3    H152507   6.133   4.290  15.182 -0.4817 -1.5017  1.0171
10364TIP3    H252508   6.139   4.434  15.231  0.5078 -0.4835 -1.9510
10365TIP3   OH252509   5.945   1.618  16.503 -0.2254  0.1009 -0.3809
10365TIP3    H152510   5.902   1.562  16.438 -1.3389  0.7992 -0.2740
10365TIP3    H252511   5.986   1.687  16.452 -0.7416  0.4119 -0.3880
10366TIP3   OH252512   4.951   0.769  12.154  0.3772  0.3322  0.0718
10366TIP3    H152513   4.899   0.817  12.218 -0.3240  0.4723 -0.5912
10366TIP3    H252514   4.898   0.771  12.074  1.1602  0.0177 -0.4631
10367TIP3   OH252515   1.827   5.464  11.518 -0.1365 -0.0906  0.1542
10367TIP3    H152516   1.731   5.468  11.515 -0.0642  0.7582 -1.4917
10367TIP3    H252517   1.846   5.405  11.591 -1.9184 -0.8877  0.0016
10368TIP3   OH252518   4.278   4.665   5.068 -0.1121  0.2786 -0.1583
10368TIP3    H152519   4.250   4.616   5.145 -1.3978  1.1834 -0.0359
10368TIP3    H252520   4.232   4.749   5.075  0.3348  0.6484 -1.5180
10369TIP3   OH252521   2.483   1.533  13.365 -0.2116 -0.1073  0.4665
10369TIP3    H152522   2.442   1.619  13.361 -0.8306 -0.4276 -0.0636
10369TIP3    H252523   2.553   1.537  13.300  2.1472  1.2299  2.9638
10370TIP3   OH252524   0.015   0.560  16.022 -0.2323  0.3887 -0.1232
10370TIP3    H152525   0.008   0.483  16.078  1.4914  0.5477  0.3585
10370TIP3    H252526  -0.042   0.625  16.062 -0.1049  0.0297  0.6518
10371TIP3   OH252527   3.705   1.822   4.145 -0.1684  0.6152 -0.0896
10371TIP3    H152528   3.775   1.782   4.196  0.4530  1.6835 -0.0959
10371TIP3    H252529   3.726   1.915   4.144 -1.8703  1.0194  0.3349
10372TIP3   OH252530   4.917   2.264   5.008  0.1220  0.4135  0.0401
10372TIP3    H152531   4.892   2.173   5.023 -0.2809  0.7723  1.7016
10372TIP3    H252532   4.846   2.300   4.954 -0.6831  0.2206  0.9494
10373TIP3   OH252533   1.232   3.251  16.080  0.1159  0.6265 -0.2370
10373TIP3    H152534   1.219   3.341  16.110 -0.8605 -0.1170  1.5982
10373TIP3    H252535   1.179   3.245  16.000 -1.6242  1.0112  0.8746
10374TIP3   OH252536   1.074   1.049  15.411  0.4944  0.4959 -0.1256
10374TIP3    H152537   1.066   1.120  15.348  1.5189  1.9350  1.3289
10374TIP3    H252538   1.163   1.016  15.400  0.5626  0.5241  0.3375
10375TIP3   OH252539   2.893   1.512  14.329  0.0621 -0.2031 -0.3286
10375TIP3    H152540   2.975   1.561  14.333 -0.3217  0.3112  2.7556
10375TIP3    H252541   2.826   1.579  14.313  0.1533 -0.5467 -2.2412
10376TIP3   OH252542   5.062   4.717  12.450 -0.4701  0.2605  0.2711
10376TIP3    H152543   5.151   4.737  12.479 -0.6004 -0.2880  1.0863
10376TIP3    H252544   5.053   4.623  12.464 -1.5953  0.5153  1.3754
10377TIP3   OH252545   4.157   6.530   0.646 -0.3019  0.4593 -0.1952
10377TIP3    H152546   4.064   6.516   0.628 -1.2372  2.9761  2.2076
10377TIP3    H252547   4.167   6.509   0.739  1.6497 -0.1650 -0.5086
10378TIP3   OH252548   4.504   5.554  14.903  0.6285 -0.4716 -0.1341
10378TIP3    H152549   4.535   5.575  14.991 -0.4023 -1.2861  0.4283
10378TIP3    H252550   4.423   5.504  14.916  1.1925 -1.8061 -1.5062
10379TIP3   OH252551   4.944   4.768  12.211  0.7487  0.8418  1.3075
10379TIP3    H152552   4.850   4.756  12.223  0.3643  1.8174 -0.5545
10379TIP3    H252553   4.982   4.743  12.295 -1.3210  2.4622  2.7633
10380TIP3   OH252554   6.475   3.244  11.675  0.8802  0.0840  0.5245
10380TIP3    H152555   6.543   3.178  11.664 -0.2131 -1.3975  2.3337
10380TIP3    H252556   6.482   3.299  11.596  3.0581 -1.0152 -0.0940
10381TIP3   OH252557   3.094   1.520  12.262  0.2371  0.3350  0.0827
10381TIP3    H152558   3.132   1.596  12.305  1.7528 -1.0647  1.3189
10381TIP3    H252559   3.064   1.464  12.335 -0.2812 -0.5246 -0.7755
10382TIP3   OH252560   6.668   0.174  16.559 -0.1763  0.3788 -0.6430
10382TIP3    H152561   6.640   0.130  16.639 -0.3273 -0.6644 -1.2528
10382TIP3    H252562   6.702   0.259  16.588  1.5673 -0.7507  0.7339
10383TIP3   OH252563   1.527   1.482  17.000  0.4614  0.3898 -0.1643
10383TIP3    H152564   1.585   1.518  16.934  0.1654 -1.8769 -1.7160
10383TIP3    H252565   1.529   1.387  16.985 -1.6518  0.0598  1.3747
10384TIP3   OH252566   6.430   2.861  13.831  0.5514 -0.2208 -0.3120
10384TIP3    H152567   6.413   2.889  13.741  1.4234  2.5332  0.3189
10384TIP3    H252568   6.375   2.919  13.884  0.0020 -1.8518  0.9413
10385TIP3   OH252569   1.133   4.862   5.395 -0.2237  0.1538  0.3403
10385TIP3    H152570   1.140   4.884   5.488  1.8038 -0.6977  0.4035
10385TIP3    H252571   1.125   4.947   5.351 -2.0545  0.5277  1.3211
10386TIP3   OH252572   1.324   4.186  12.379  0.5502 -0.0408  0.1065
10386TIP3    H152573   1.304   4.275  12.351  0.6286 -0.4627 -1.2972
10386TIP3    H252574   1.315   4.189  12.474 -0.5210  1.1882 -0.0206
10387TIP3   OH252575   6.356   3.331  15.336  0.0196  0.5128  0.2869
10387TIP3    H152576   6.301   3.408  15.349  1.9688  1.7812  1.2337
10387TIP3    H252577   6.424   3.338  15.404  2.0210 -0.3898 -1.5594
10388TIP3   OH252578   0.736   3.459   1.010  0.1828 -0.8609  0.0927
10388TIP3    H152579   0.763   3.428   0.923  0.0225 -2.3920  0.5754
10388TIP3    H252580   0.643   3.480   0.999  1.2430  3.5449 -1.3298
10389TIP3   OH252581   2.116   5.451  14.151  0.0723  0.1500 -0.4737
10389TIP3    H152582   2.086   5.486  14.235  0.5292 -1.4237  0.3630
10389TIP3    H252583   2.106   5.356  14.160  1.2973 -0.1104 -1.7500
10390TIP3   OH252584   4.584   5.064  13.194 -0.0383  0.1033 -0.2347
10390TIP3    H152585   4.527   5.064  13.271 -1.0494  0.7646 -0.9759
10390TIP3    H252586   4.539   5.119  13.130  0.5114 -0.9142 -1.5181
10391TIP3   OH252587   6.595   3.200  14.435 -0.3883  0.4087 -0.2131
10391TIP3    H152588   6.681   3.195  14.478  0.7538  1.2790 -2.3343
10391TIP3    H252589   6.604   3.148  14.356 -1.3814  1.6350 -1.1582
10392TIP3   OH252590   4.135   1.620   2.827 -0.4981  0.2340  0.7994
10392TIP3    H152591   4.087   1.567   2.891 -0.8715  0.5111  0.7482
10392TIP3    H252592   4.217   1.572   2.813 -0.6820 -0.1437  1.0211
10393TIP3   OH252593   1.114   1.861   6.421  0.4129 -0.1890  0.3629
10393TIP3    H152594   1.075   1.803   6.486  1.0425  1.6088  2.4039
10393TIP3    H252595   1.054   1.935   6.415  0.6937 -0.0297 -0.6316
10394TIP3   OH252596   2.808   1.124  15.180  0.2107 -0.2060 -0.2166
10394TIP3    H152597   2.715   1.131  15.158  0.5502  2.3400 -1.0303
10394TIP3    H252598   2.853   1.158  15.102  1.7609  0.1798  0.8359
10395TIP3   OH252599   0.536   6.380  15.978  0.2277  0.5660 -0.4621
10395TIP3    H152600   0.505   6.453  16.032 -1.3560 -0.8875  0.6566
10395TIP3    H252601   0.621   6.357  16.016 -0.2894  0.4033  0.6380
10396TIP3   OH252602   4.839   0.726  16.743  0.5324 -0.5124  0.1967
10396TIP3    H152603   4.850   0.760  16.654 -1.7468  0.4953  0.2628
10396TIP3    H252604   4.809   0.635  16.730  1.2887 -0.7308 -0.0450
10397TIP3   OH252605   5.099   2.142   0.745  0.2234 -0.1498  0.5019
10397TIP3    H152606   5.090   2.095   0.662  1.3037  1.6874 -0.6713
10397TIP3    H252607   5.194   2.147   0.760  0.0351 -1.0958  2.2446
10398TIP3   OH252608   2.917   0.161   3.685  0.0134  0.2334 -0.4111
10398TIP3    H152609   2.855   0.111   3.632 -0.9867 -2.5816  3.2045
10398TIP3    H252610   2.866   0.232   3.723  0.8602  2.6027 -3.5344
10399TIP3   OH252611   5.299   1.494   0.950 -0.2715  0.3696  0.2203
10399TIP3    H152612   5.359   1.457   1.015 -0.3786 -1.1500 -0.5444
10399TIP3    H252613   5.265   1.419   0.902 -3.0463  1.1752  0.8418
10400TIP3   OH252614   5.858   3.445   2.427 -0.1921  0.1488  0.6144
10400TIP3    H152615   5.844   3.524   2.479 -1.0472 -0.0193  0.6374
10400TIP3    H252616   5.803   3.456   2.350 -1.2378 -0.9481  1.1810
10401TIP3   OH252617   1.310   0.579  16.084  0.2873 -0.9210  0.2898
10401TIP3    H152618   1.315   0.611  16.174  0.7876 -3.0863  1.0704
10401TIP3    H252619   1.237   0.517  16.086  0.1677 -0.8180 -0.8522
10402TIP3   OH252620   1.062   2.786   5.369 -0.2894  0.2862  0.8402
10402TIP3    H152621   1.130   2.743   5.421 -0.0294  2.0183  2.0011
10402TIP3    H252622   1.039   2.722   5.301  0.6385 -1.3265  2.0082
10403TIP3   OH252623   1.441   1.217  12.105 -0.8166  0.4101  0.1870
10403TIP3    H152624   1.368   1.222  12.043 -0.5613 -0.6194 -0.2166
10403TIP3    H252625   1.447   1.124  12.127 -1.6333  0.9124  2.6727
10404TIP3   OH252626   4.412   0.624   0.830 -0.2359  0.7088  0.1490
10404TIP3    H152627   4.353   0.685   0.875  1.0955  3.6566 -1.9544
10404TIP3    H252628   4.363   0.542   0.826 -2.2467  1.7084  2.6943
10405TIP3   OH252629   2.558   1.491  14.705 -0.5716  0.2778  0.2270
10405TIP3    H152630   2.612   1.565  14.680  0.3169 -0.5833 -0.4574
10405TIP3    H252631   2.469   1.526  14.710  0.0355  1.7012  1.3511
10406TIP3   OH252632   3.238   6.220  14.561 -0.5457  0.3023  0.1501
10406TIP3    H152633   3.236   6.316  14.563 -2.0828  0.2852 -0.7020
10406TIP3    H252634   3.184   6.196  14.487  1.5524 -1.1897 -0.9602
10407TIP3   OH252635   6.227   2.916   0.531  0.3931  0.0145 -0.7783
10407TIP3    H152636   6.248   2.982   0.597  2.2744 -0.9005 -0.4353
10407TIP3    H252637   6.155   2.865   0.569 -0.9882  1.7542 -0.9962
10408TIP3   OH252638   1.856   5.176   3.366 -0.7259  0.0594  0.1627
10408TIP3    H152639   1.889   5.257   3.406 -1.0125  0.1183  0.2789
10408TIP3    H252640   1.853   5.114   3.439 -0.6049 -0.0264  0.0943
10409TIP3   OH252641   0.395   0.314  12.741 -0.8345 -0.0206  0.4789
10409TIP3    H152642   0.366   0.353  12.659 -0.7312 -1.0232 -0.0429
10409TIP3    H252643   0.420   0.389  12.796  0.8908  0.5873 -1.0618
10410TIP3   OH252644   6.735   2.648   4.088 -0.6503  0.4083  0.3687
10410TIP3    H152645   6.654   2.662   4.137  0.8030  1.1242  2.6423
10410TIP3    H252646   6.799   2.708   4.128  1.0847 -0.3266 -1.1946
10411TIP3   OH252647   5.572   5.151   3.590  0.3372 -0.0860  0.6420
10411TIP3    H152648   5.520   5.071   3.583  0.9315 -0.3209 -1.6153
10411TIP3    H252649   5.644   5.138   3.528  0.3674  2.2493  0.1338
10412TIP3   OH252650   4.858   2.564   4.794  0.6280 -0.0754 -0.4107
10412TIP3    H152651   4.853   2.514   4.713  3.9534  0.2628 -0.8909
10412TIP3    H252652   4.945   2.604   4.793 -0.0011  1.5558  2.3919
10413TIP3   OH252653   5.403   3.319  17.062  0.1130 -0.1589 -0.2530
10413TIP3    H152654   5.307   3.316  17.056 -0.0616  1.8099  1.0394
10413TIP3    H252655   5.431   3.350  16.976 -0.5440  0.9661 -0.0714
10414TIP3   OH252656   0.774   5.276   4.978 -0.2288  0.1623 -0.7330
10414TIP3    H152657   0.787   5.368   4.999 -2.0931  0.7651 -2.1365
10414TIP3    H252658   0.706   5.247   5.039  1.7143 -0.8221  1.0218
10415TIP3   OH252659   6.573   5.065  12.737 -0.8978  0.0490  0.1850
10415TIP3    H152660   6.598   5.006  12.665  0.1654  1.0588 -0.3002
10415TIP3    H252661   6.498   5.022  12.778 -2.3850  0.1055 -2.3632
10416TIP3   OH252662   1.492   0.845   4.741  0.6291  0.1595 -0.1516
10416TIP3    H152663   1.397   0.840   4.732  0.5318  2.9883 -1.2199
10416TIP3    H252664   1.525   0.800   4.663  0.1785 -0.4110 -0.0208
10417TIP3   OH252665   0.835   1.429  16.263  0.2488  0.0129  0.2098
10417TIP3    H152666   0.778   1.395  16.194  1.6254 -0.6273 -0.6501
10417TIP3    H252667   0.841   1.357  16.327  0.6702 -0.2022 -0.0661
10418TIP3   OH252668   5.291   5.336  14.428  0.4438  0.3131  0.2593
10418TIP3    H152669   5.349   5.261  14.413  0.8934  0.5315  0.8722
10418TIP3    H252670   5.340   5.411  14.395 -0.2938  0.2515 -0.9934
10419TIP3   OH252671   2.228   1.299  12.487  0.1669 -0.1796  0.7988
10419TIP3    H152672   2.134   1.286  12.497 -0.0603  0.4720 -0.3882
10419TIP3    H252673   2.259   1.219  12.444 -0.2704  0.6510 -1.1170
10420TIP3   OH252674   6.629   1.947   5.355 -0.0851 -0.0913 -0.0108
10420TIP3    H152675   6.676   1.976   5.277 -0.9537 -1.0679 -0.9192
10420TIP3    H252676   6.564   1.885   5.322 -0.3676 -0.6295  1.5107
10421TIP3   OH252677   6.735   2.777  15.072  0.2928 -0.6472  0.2456
10421TIP3    H152678   6.640   2.780  15.085  0.4733  0.0197  1.5116
10421TIP3    H252679   6.761   2.692  15.108  0.4039 -0.0386  1.6513
10422TIP3   OH252680   4.891   5.304  11.995  0.2062 -0.3902 -1.3450
10422TIP3    H152681   4.886   5.259  12.079  1.5036  1.2249 -0.3651
10422TIP3    H252682   4.985   5.304  11.973  0.1248  0.9516 -1.7795
10423TIP3   OH252683   1.034   6.191   3.864  0.0685 -0.5666 -0.2514
10423TIP3    H152684   1.053   6.260   3.801  1.1494 -0.8645 -0.2621
10423TIP3    H252685   1.117   6.176   3.908 -0.2434 -1.6417 -0.0274
10424TIP3   OH252686   3.867   0.705   5.612 -0.2472  0.2854 -0.1549
10424TIP3    H152687   3.958   0.707   5.583  0.2402  0.8946  1.3372
10424TIP3    H252688   3.851   0.613   5.633  0.5625  0.4173  1.1386
10425TIP3   OH252689   6.752   3.673  11.664 -0.0350  0.3868  0.5743
10425TIP3    H152690   6.795   3.759  11.666  1.5579 -0.4051  0.8227
10425TIP3    H252691   6.703   3.673  11.582  0.8311  1.1288  0.0437
10426TIP3   OH252692   5.661   4.560   6.205  0.4235 -0.0304 -0.2475
10426TIP3    H152693   5.733   4.516   6.158  1.0373  1.5294 -0.8092
10426TIP3    H252694   5.635   4.631   6.146 -0.6331  0.2794  0.5909
10427TIP3   OH252695   2.756   1.693  11.570  0.2008 -0.0909 -0.6425
10427TIP3    H152696   2.697   1.682  11.495  0.2900 -1.3710 -0.5365
10427TIP3    H252697   2.706   1.659  11.644  0.8081 -0.5362 -0.4395
10428TIP3   OH252698   5.233   0.389   3.529 -0.2941 -0.1676 -0.4742
10428TIP3    H152699   5.152   0.348   3.561 -0.5546  0.1484 -0.7260
10428TIP3    H252700   5.236   0.474   3.571  1.3883 -1.2814  1.7837
10429TIP3   OH252701   5.596   5.773   3.799 -0.0888 -0.3561 -1.0155
10429TIP3    H152702   5.666   5.725   3.841  0.8644  1.5534 -0.3612
10429TIP3    H252703   5.517   5.722   3.817  0.5042 -0.3090  1.9167
10430TIP3   OH252704   2.902   2.470  12.379 -0.9749  0.0900  0.4545
10430TIP3    H152705   2.891   2.392  12.324 -1.4450  0.5683 -0.1351
10430TIP3    H252706   2.847   2.537  12.337  0.8407  1.2734 -0.0838
10431TIP3   OH252707   5.630   1.269  14.353  0.1041 -0.6334  0.0753
10431TIP3    H152708   5.555   1.236  14.303 -1.1774  0.0168  1.5292
10431TIP3    H252709   5.669   1.190  14.391 -1.0663 -0.8157  0.9523
10432TIP3   OH252710   4.587   4.002  10.608 -0.4341 -0.1511  0.3818
10432TIP3    H152711   4.608   3.947  10.684 -1.1798 -1.4676 -0.3337
10432TIP3    H252712   4.672   4.031  10.575 -0.1829  2.5912  3.2434
10433TIP3   OH252713   3.764   2.562  15.852 -0.0197 -0.8902 -0.3362
10433TIP3    H152714   3.837   2.510  15.820  0.9418  0.3084 -0.1278
10433TIP3    H252715   3.749   2.530  15.941  0.7028 -0.6843 -0.1359
10434TIP3   OH252716   5.370   1.476   3.301  0.0182  0.4569  0.7974
10434TIP3    H152717   5.317   1.469   3.222 -0.4090  2.1510  0.9074
10434TIP3    H252718   5.421   1.395   3.304 -0.7818 -0.1028 -0.6123
10435TIP3   OH252719   0.008   3.042  16.816 -0.5789  0.0481  0.6846
10435TIP3    H152720  -0.072   3.047  16.869 -0.2225  0.7948  1.1559
10435TIP3    H252721   0.036   3.133  16.806 -1.5678  0.0878 -2.2116
10436TIP3   OH252722   6.645   1.136   3.155 -0.0688  0.0338 -0.5522
10436TIP3    H152723   6.564   1.086   3.162  0.2448 -0.5276 -0.8921
10436TIP3    H252724   6.620   1.226   3.177 -0.9193 -0.0098 -1.2935
10437TIP3   OH252725   0.367   1.052   1.511 -0.2531 -0.4541 -0.0449
10437TIP3    H152726   0.452   1.096   1.502 -0.3584 -0.2174  0.1143
10437TIP3    H252727   0.314   1.113   1.562 -0.0903 -1.1802  1.0058
10438TIP3   OH252728   5.759   4.920   1.232  0.1722 -0.0532 -0.1359
10438TIP3    H152729   5.854   4.922   1.232  0.2057 -0.9562  1.4862
10438TIP3    H252730   5.736   4.858   1.301 -1.5927  0.3193 -0.3615
10439TIP3   OH252731   2.148   6.168   1.127  0.1036 -0.0062  0.8102
10439TIP3    H152732   2.194   6.096   1.171  0.7254  0.7892  1.4977
10439TIP3    H252733   2.176   6.163   1.036 -0.1540 -0.8634  0.7780
10440TIP3   OH252734   5.989   2.965   5.735  0.3295  0.3848  0.4293
10440TIP3    H152735   5.988   3.056   5.763 -1.1651  0.2682  0.8031
10440TIP3    H252736   5.896   2.944   5.719  0.8580 -0.3761 -1.8766
10441TIP3   OH252737   2.570   2.677  11.509  0.1781 -0.1008 -0.1026
10441TIP3    H152738   2.534   2.614  11.571  0.1231 -0.4560 -0.4943
10441TIP3    H252739   2.658   2.697  11.543 -0.6560  1.3886  1.3113
10442TIP3   OH252740   4.864   4.592  13.671 -0.1993  0.1313  0.5182
10442TIP3    H152741   4.849   4.660  13.737 -0.8024  0.3147  0.2046
10442TIP3    H252742   4.776   4.556  13.654  0.4437 -2.6370  2.6959
10443TIP3   OH252743   1.259   5.024  11.156 -0.5850 -0.4136 -0.1667
10443TIP3    H152744   1.274   5.075  11.235  0.0878 -1.5179  0.4408
10443TIP3    H252745   1.338   5.036  11.103 -0.0695 -1.4439  0.3429
10444TIP3   OH252746   6.089   5.061   2.322  0.8908 -0.0084 -0.1784
10444TIP3    H152747   6.088   5.084   2.229  0.2307  0.1750 -0.1279
10444TIP3    H252748   6.057   5.140   2.367  1.6702  0.0702  0.2413
10445TIP3   OH252749   1.257   6.729   2.862 -0.5077 -0.0696 -0.5713
10445TIP3    H152750   1.255   6.771   2.776 -0.1732 -1.3086 -1.2000
10445TIP3    H252751   1.349   6.733   2.888 -0.6335  0.4391 -0.2012
10446TIP3   OH252752   2.309   4.129   0.573 -0.0351  0.9635  0.4961
10446TIP3    H152753   2.339   4.200   0.629 -1.7075 -0.1220  2.8804
10446TIP3    H252754   2.214   4.140   0.568  0.0594  0.9232 -2.0213
10447TIP3   OH252755   6.101   6.353   0.662 -0.3923  0.9431 -0.3296
10447TIP3    H152756   6.116   6.388   0.750  0.9202 -1.9629  0.6530
10447TIP3    H252757   6.181   6.373   0.613 -0.0161  0.1719 -0.0397
10448TIP3   OH252758   2.284   1.510  10.424  0.6388 -0.3072 -0.0886
10448TIP3    H152759   2.258   1.447  10.358  0.0423  0.7610 -0.8989
10448TIP3    H252760   2.354   1.467  10.474  0.2402 -1.5793 -0.6271
10449TIP3   OH252761   0.997   2.484   3.260  0.4234  0.3308 -0.2430
10449TIP3    H152762   1.014   2.392   3.240  1.8691  0.3038  1.0460
10449TIP3    H252763   0.977   2.485   3.353  0.0065  1.2876 -0.3348
10450TIP3   OH252764   3.753   6.682  12.140  0.2741 -0.0087 -0.3839
10450TIP3    H152765   3.800   6.751  12.092  0.9516  0.6415  1.1952
10450TIP3    H252766   3.772   6.602  12.091  1.2572  0.5861 -0.9933
10451TIP3   OH252767   0.581   1.082  11.642 -0.2819  0.2499 -0.0720
10451TIP3    H152768   0.522   1.017  11.679  0.9747 -1.3036 -0.7239
10451TIP3    H252769   0.571   1.073  11.547  1.2244 -0.2818 -0.1994
10452TIP3   OH252770   0.466   4.386   2.221 -0.0357  0.0730 -0.3362
10452TIP3    H152771   0.399   4.405   2.287 -0.7949 -1.6966 -0.5626
10452TIP3    H252772   0.416   4.354   2.146  1.0721 -1.4619 -0.4346
10453TIP3   OH252773   1.333   4.645   0.671  0.9482  0.2788 -0.1785
10453TIP3    H152774   1.280   4.613   0.745  1.2185  1.3620  0.4998
10453TIP3    H252775   1.342   4.569   0.614 -2.7473  0.4907 -1.1522
10454TIP3   OH252776   1.301   1.141  14.004  0.2810  0.1863 -0.0670
10454TIP3    H152777   1.226   1.083  13.989 -0.8295  1.5996 -0.1566
10454TIP3    H252778   1.334   1.115  14.090  0.4677 -1.2705 -0.5656
10455TIP3   OH252779   1.262   0.176   4.910 -0.1237 -0.3138 -0.1522
10455TIP3    H152780   1.245   0.183   5.004 -1.1635 -1.9009 -0.2133
10455TIP3    H252781   1.323   0.103   4.902 -0.0396 -0.1788 -0.7241
10456TIP3   OH252782   5.119   3.790   5.865  0.2497 -0.2005 -0.0977
10456TIP3    H152783   5.179   3.808   5.793 -0.7169  2.3183 -0.3025
10456TIP3    H252784   5.038   3.762   5.823 -0.1719  0.8327  0.0331
10457TIP3   OH252785   0.501   5.034  11.705  0.8087  0.1102  0.5557
10457TIP3    H152786   0.460   5.020  11.791  0.5866 -2.2891  0.1079
10457TIP3    H252787   0.537   4.948  11.682  0.5921  0.6471 -1.8919
10458TIP3   OH252788   5.562   6.357   2.759  0.1865 -0.0670  0.1641
10458TIP3    H152789   5.642   6.407   2.743  0.9802 -1.7816 -1.2819
10458TIP3    H252790   5.494   6.424   2.767  1.2769  1.2892 -1.5158
10459TIP3   OH252791   5.713   0.224  15.630  0.1454  0.0803 -0.6473
10459TIP3    H152792   5.630   0.256  15.594  0.7927 -0.7084 -2.9368
10459TIP3    H252793   5.775   0.295  15.613  0.0101  0.5648  0.8331
10460TIP3   OH252794   2.425   2.766   3.255  0.0491  0.9304  0.0582
10460TIP3    H152795   2.439   2.705   3.183 -0.9500  0.8647 -0.0783
10460TIP3    H252796   2.339   2.805   3.238 -2.0577 -2.0253  3.3117
10461TIP3   OH252797   3.518   1.258   4.569 -0.0918  0.6257 -0.6118
10461TIP3    H152798   3.424   1.239   4.566  0.4014 -2.1476  0.0167
10461TIP3    H252799   3.541   1.248   4.662  1.2436 -0.9546 -1.0982
10462TIP3   OH252800   2.569   3.933   3.538 -0.4222  1.2448  0.0622
10462TIP3    H152801   2.521   3.954   3.618  0.2781  0.2661  0.7505
10462TIP3    H252802   2.660   3.956   3.557 -0.0496 -0.1416 -0.0092
10463TIP3   OH252803   2.542   5.954  13.033 -0.0559  0.1278  0.0953
10463TIP3    H152804   2.544   5.866  13.071 -0.7528 -1.6535 -3.7145
10463TIP3    H252805   2.455   5.961  12.994  1.0520  1.3435 -2.2476
10464TIP3   OH252806   2.941   6.612  16.420 -0.0344  0.0211 -0.1253
10464TIP3    H152807   2.949   6.525  16.382 -0.5208  0.3055 -0.8782
10464TIP3    H252808   2.946   6.672  16.346 -0.7141  0.5907  0.2803
10465TIP3   OH252809   2.229   5.305   4.963 -0.0761  0.3177 -0.3468
10465TIP3    H152810   2.168   5.234   4.983  1.4195 -0.6096  1.0600
10465TIP3    H252811   2.193   5.381   5.009  1.6423 -1.0534  3.5332
10466TIP3   OH252812   5.207   2.421  13.351 -0.1748  0.1501 -0.2275
10466TIP3    H152813   5.210   2.469  13.268 -1.5790  0.9281  0.1589
10466TIP3    H252814   5.275   2.462  13.405  0.2828  0.0885 -0.7442
10467TIP3   OH252815   0.538   6.631   4.616 -0.2652 -0.1793 -0.3270
10467TIP3    H152816   0.626   6.650   4.650 -0.0509 -1.8812  0.1402
10467TIP3    H252817   0.549   6.550   4.566 -1.3734  0.1501 -1.1082
10468TIP3   OH252818   0.157   0.376   6.140 -0.0896  0.5569  0.1556
10468TIP3    H152819   0.105   0.405   6.065  0.0757  0.4308 -0.0086
10468TIP3    H252820   0.100   0.390   6.215 -0.6546 -0.3065 -0.1049
10469TIP3   OH252821   2.592   0.922  11.910  0.5872  0.1312  0.1919
10469TIP3    H152822   2.623   1.010  11.888 -0.1395  0.6896  1.3573
10469TIP3    H252823   2.561   0.929  12.001  1.7908 -1.6624  0.7645
10470TIP3   OH252824   5.458   3.434   3.584  0.1545 -0.1710  0.3504
10470TIP3    H152825   5.373   3.420   3.542 -0.3380  0.2135  1.1967
10470TIP3    H252826   5.499   3.348   3.586  0.7470  0.0263 -2.0873
10471TIP3   OH252827   0.127   1.198  11.254  0.5750  0.0017 -0.3882
10471TIP3    H152828   0.213   1.230  11.281  0.3738  1.9115 -1.9486
10471TIP3    H252829   0.146   1.119  11.203  1.3556  0.0681 -0.2063
10472TIP3   OH252830   4.652   0.761  13.518  0.4747 -0.1894  0.0012
10472TIP3    H152831   4.703   0.696  13.567 -1.0403 -1.2747  0.1836
10472TIP3    H252832   4.595   0.802  13.584  0.8368  0.7555 -0.2621
10473TIP3   OH252833   6.227   0.271  15.561 -0.0628 -0.4663 -0.2481
10473TIP3    H152834   6.206   0.315  15.478  2.1191 -0.7884 -1.0202
10473TIP3    H252835   6.212   0.337  15.628 -4.6993 -1.0520 -0.5332
10474TIP3   OH252836   5.246   4.264   3.872 -0.1060  0.2108 -0.5401
10474TIP3    H152837   5.250   4.279   3.778 -1.6813  0.0045 -0.6592
10474TIP3    H252838   5.214   4.174   3.881  0.6232  0.0168  0.1958
10475TIP3   OH252839   3.912   3.206  16.017  0.5409 -0.0807 -0.5909
10475TIP3    H152840   3.997   3.165  16.036 -0.2385 -0.9998  1.0062
10475TIP3    H252841   3.882   3.238  16.102 -1.7277 -1.7430 -0.7183
10476TIP3   OH252842   0.048   6.371   0.624  0.6762 -0.1497 -0.6677
10476TIP3    H152843  -0.039   6.385   0.663  0.2150 -1.5538 -1.1865
10476TIP3    H252844   0.077   6.459   0.599  0.8202  0.7647  2.4883
10477TIP3   OH252845   5.078   1.554  13.389  0.6557 -0.1654  0.0061
10477TIP3    H152846   5.173   1.544  13.393  0.5983 -2.1865 -2.2423
10477TIP3    H252847   5.054   1.524  13.301 -2.4165 -3.3305  1.7572
10478TIP3   OH252848   0.846   1.126   5.676 -0.7603  0.2602 -0.3497
10478TIP3    H152849   0.911   1.123   5.606  0.7799  0.3897  1.0437
10478TIP3    H252850   0.800   1.208   5.662 -2.3360 -0.9640 -2.8077
10479TIP3   OH252851   5.723   3.463   1.549 -0.3018 -0.1915 -0.3569
10479TIP3    H152852   5.812   3.437   1.570 -0.5153 -0.8564 -0.2553
10479TIP3    H252853   5.696   3.519   1.622 -0.8043 -1.9492  0.8593
10480TIP3   OH252854   1.068   1.122  15.048  0.1091  0.1829  1.1212
10480TIP3    H152855   1.090   1.104  14.957 -0.2841 -2.8094  1.5812
10480TIP3    H252856   0.996   1.184  15.044  1.2477  1.4338 -0.5490
10481TIP3   OH252857   4.556   0.062  11.723 -0.4479 -0.1185  0.3491
10481TIP3    H152858   4.564   0.023  11.810  1.6623  0.2378  0.3403
10481TIP3    H252859   4.645   0.063  11.689 -1.4012 -1.2859 -2.2939
10482TIP3   OH252860   2.497   1.484   2.307  0.3498  1.0504 -0.1874
10482TIP3    H152861   2.478   1.572   2.273 -1.4937  0.0329 -1.8216
10482TIP3    H252862   2.434   1.427   2.264  1.3682 -1.0641  1.0622
10483TIP3   OH252863   3.736   2.858  14.298  0.3290 -0.2294  0.3824
10483TIP3    H152864   3.816   2.840  14.348  0.3309 -2.4046 -0.3596
10483TIP3    H252865   3.766   2.860  14.207 -0.2878  0.0579  0.1883
10484TIP3   OH252866   5.329   4.916   2.303  0.1021 -0.0757 -0.2593
10484TIP3    H152867   5.406   4.864   2.279  1.0352  0.2753  1.8599
10484TIP3    H252868   5.306   4.885   2.391 -0.7709  1.4226  0.0497
10485TIP3   OH252869   4.501   1.801   4.918 -0.2184  0.0579 -0.4081
10485TIP3    H152870   4.594   1.811   4.897 -0.7172 -0.4298 -3.0233
10485TIP3    H252871   4.485   1.864   4.988  1.4609  2.1687 -1.8675
10486TIP3   OH252872   3.849   3.457  16.146 -0.7590 -0.1238  0.0425
10486TIP3    H152873   3.800   3.474  16.066 -0.9732 -0.9477 -0.0045
10486TIP3    H252874   3.922   3.518  16.143 -2.2425  1.7446  0.5319
10487TIP3   OH252875   5.568   4.835  10.930 -0.3938 -0.3162 -0.5141
10487TIP3    H152876   5.606   4.862  10.846 -0.3299 -1.4693 -0.8770
10487TIP3    H252877   5.538   4.916  10.970  0.5234  0.3743 -1.1826
10488TIP3   OH252878   0.375   1.039   2.464 -0.1335 -0.3858 -0.3884
10488TIP3    H152879   0.394   0.966   2.406  0.2549  1.0344 -2.0861
10488TIP3    H252880   0.296   1.079   2.427 -0.3806  0.0156  0.5562
10489TIP3   OH252881   2.056   3.174  13.124 -0.2675  0.2510 -0.3600
10489TIP3    H152882   1.991   3.219  13.178  0.7583 -1.6900  2.5828
10489TIP3    H252883   2.140   3.204  13.158  0.3894 -0.5730 -1.2373
10490TIP3   OH252884   2.376   6.286  15.967  0.4464  0.6727  0.2656
10490TIP3    H152885   2.367   6.337  15.886  0.6425  0.1184 -0.1094
10490TIP3    H252886   2.309   6.322  16.025 -1.7677 -0.9162 -1.1909
10491TIP3   OH252887   3.683   3.671   2.083  0.0987 -0.1047  0.4572
10491TIP3    H152888   3.587   3.674   2.087  0.0519 -0.2178 -0.4557
10491TIP3    H252889   3.702   3.641   1.994  0.9882  0.4284  0.4631
10492TIP3   OH252890   4.119   0.926  14.579  0.2318 -0.1261 -0.0119
10492TIP3    H152891   4.177   0.914  14.655  0.2037  0.9639  0.1884
10492TIP3    H252892   4.124   1.019  14.560 -0.6706 -0.2051 -0.6397
10493TIP3   OH252893   0.759   2.821   5.001  0.8549 -0.2343  0.0098
10493TIP3    H152894   0.742   2.911   4.974  0.0260 -0.5311 -0.4610
10493TIP3    H252895   0.854   2.815   5.005  0.8981  0.8839  0.7924
10494TIP3   OH252896   4.497   4.235  15.165 -0.2574  0.2613  0.1930
10494TIP3    H152897   4.425   4.257  15.224  0.1455 -0.6580  1.0325
10494TIP3    H252898   4.453   4.210  15.083 -0.8178  1.3872  0.1401
10495TIP3   OH252899   1.807   0.366  13.414  0.0472 -0.2720 -0.2880
10495TIP3    H152900   1.808   0.445  13.468 -1.9917 -0.2620 -0.2335
10495TIP3    H252901   1.729   0.318  13.442  1.7190 -2.7609  0.2834
10496TIP3   OH252902   2.965   5.990   5.743  0.0913 -0.0243 -0.5403
10496TIP3    H152903   2.870   5.995   5.736 -0.0266 -0.2794  0.7737
10496TIP3    H252904   2.981   5.923   5.810  1.1676  0.9596  0.2095
10497TIP3   OH252905   2.242   0.999  11.232 -0.0986 -0.2687  0.4879
10497TIP3    H152906   2.249   0.942  11.309  0.0125  0.2121  0.8292
10497TIP3    H252907   2.287   1.080  11.257  0.7435 -0.4512 -0.4099
10498TIP3   OH252908   5.701   3.686   4.038  0.1775 -0.2917  0.3460
10498TIP3    H152909   5.663   3.737   4.110 -0.2159 -1.1364  0.7478
10498TIP3    H252910   5.644   3.704   3.963 -0.0503 -0.2635  0.5265
10499TIP3   OH252911   2.857   1.965  11.538 -0.1546  0.1453 -0.1781
10499TIP3    H152912   2.762   1.960  11.526 -0.0792 -1.0407 -0.3308
10499TIP3    H252913   2.888   1.875  11.526  1.1096  0.6761 -1.1066
10500TIP3   OH252914   0.451   2.325   5.065 -0.1727  0.1584  0.1428
10500TIP3    H152915   0.508   2.346   5.139 -3.1149 -0.6494  2.7410
10500TIP3    H252916   0.496   2.254   5.019  0.7673 -0.7621  2.3933
10501TIP3   OH252917   2.949   1.968   3.664  0.6947  0.7587  0.0328
10501TIP3    H152918   2.974   2.045   3.612 -0.7629  0.3632 -1.3059
10501TIP3    H252919   2.853   1.964   3.657  0.8053 -1.6789 -0.6723
10502TIP3   OH252920   3.554   5.518   0.422  0.4638  0.0223  0.7981
10502TIP3    H152921   3.588   5.433   0.395 -0.0145  0.3267 -0.8226
10502TIP3    H252922   3.630   5.576   0.421  0.5715 -0.1196  0.7124
10503TIP3   OH252923   6.001   5.561  15.990  0.1124  0.5050 -0.8560
10503TIP3    H152924   6.007   5.651  16.022 -1.6724  0.7497 -1.1442
10503TIP3    H252925   6.015   5.507  16.068  0.4610  1.0503 -0.5417
10504TIP3   OH252926   1.625   1.802   1.854  0.0490  0.2439 -0.4730
10504TIP3    H152927   1.687   1.781   1.784  0.2663  0.3056 -0.2973
10504TIP3    H252928   1.579   1.720   1.871  1.3808 -0.2709  0.6973
10505TIP3   OH252929   4.641   5.494  12.369  0.0406  0.1420 -0.4464
10505TIP3    H152930   4.558   5.462  12.334 -0.0584 -1.0390  0.8248
10505TIP3    H252931   4.659   5.437  12.444  1.5191  0.9971 -0.1297
10506TIP3   OH252932   4.663   0.296  16.444 -0.4805 -0.2495  0.0933
10506TIP3    H152933   4.664   0.309  16.539  0.1631 -2.1528  0.3639
10506TIP3    H252934   4.755   0.300  16.418 -0.4724 -1.8396 -0.1420
10507TIP3   OH252935   3.250   4.551   4.161 -0.3141  0.1471  0.2732
10507TIP3    H152936   3.218   4.478   4.109 -0.2820  0.1727  0.2169
10507TIP3    H252937   3.203   4.544   4.244 -3.5049  2.5369 -1.2226
10508TIP3   OH252938   0.796   0.103   6.775 -0.1320 -0.3882 -0.4695
10508TIP3    H152939   0.852   0.042   6.824 -0.0107 -1.5891 -2.0350
10508TIP3    H252940   0.708   0.084   6.806  0.0377 -0.5214 -0.0676
10509TIP3   OH252941   4.656   3.709   0.188 -0.7204 -0.1658  0.1269
10509TIP3    H152942   4.731   3.686   0.244 -1.1615  0.2547  0.9058
10509TIP3    H252943   4.580   3.703   0.247 -1.1098  1.0107 -0.2362
10510TIP3   OH252944   5.656   1.772   3.128  0.0583  0.0287  0.0630
10510TIP3    H152945   5.598   1.749   3.200 -2.5266 -1.7534 -2.4665
10510TIP3    H252946   5.632   1.862   3.105 -0.1579  0.0746  0.4663
10511TIP3   OH252947   3.590   5.232  15.099 -0.3726  0.2316 -0.0246
10511TIP3    H152948   3.563   5.162  15.039  1.2313 -1.1307  0.8017
10511TIP3    H252949   3.635   5.296  15.043  0.3873 -0.6307 -0.4073
10512TIP3   OH252950   3.209   5.809   5.737  0.7464  0.5470 -0.0094
10512TIP3    H152951   3.243   5.899   5.732  1.0790  0.4730  0.9029
10512TIP3    H252952   3.168   5.804   5.823  0.1507  0.0174 -0.3187
10513TIP3   OH252953   5.850   1.064   2.177 -0.2789  0.3382 -0.2195
10513TIP3    H152954   5.831   1.056   2.271 -1.3600  0.6811 -0.4010
10513TIP3    H252955   5.936   1.023   2.166  0.1418  0.8728  1.0210
10514TIP3   OH252956   3.779   5.850   0.533  0.2065 -0.4844 -0.2594
10514TIP3    H152957   3.830   5.929   0.554 -0.1351 -0.3007 -0.1274
10514TIP3    H252958   3.706   5.851   0.595 -0.9414  0.1910 -1.6100
10515TIP3   OH252959   6.024   3.481   4.832 -0.1639  0.2951 -0.1081
10515TIP3    H152960   6.092   3.482   4.900 -0.1913 -0.8684 -0.0550
10515TIP3    H252961   6.012   3.573   4.809  0.6553  0.6024  0.6600
10516TIP3   OH252962   5.371   6.114  14.685  0.7217 -0.2794 -0.2948
10516TIP3    H152963   5.462   6.084  14.685  1.4646  1.8556  0.0899
10516TIP3    H252964   5.330   6.070  14.759  2.3062  1.1498  1.4749
10517TIP3   OH252965   6.231   5.092   3.013  0.4484  0.0715 -0.0472
10517TIP3    H152966   6.258   5.019   3.069  0.8594  0.1747 -0.1149
10517TIP3    H252967   6.138   5.104   3.034  0.3992 -0.4082  0.0328
10518TIP3   OH252968   4.983   0.630  12.441 -0.2159 -0.1994  0.7167
10518TIP3    H152969   4.917   0.563  12.426  0.7279 -0.7376 -1.1250
10518TIP3    H252970   4.949   0.707  12.395 -0.1121 -0.1439  0.7324
10519TIP3   OH252971   5.826   0.614   0.715  0.3045  0.2199 -0.0269
10519TIP3    H152972   5.806   0.707   0.717  2.0170  0.6059 -0.1390
10519TIP3    H252973   5.905   0.604   0.768  1.0198 -0.9196 -1.2443
10520TIP3   OH252974   1.244   3.056  11.802  0.6403  0.5475  0.3700
10520TIP3    H152975   1.273   2.968  11.827  1.3610  0.3754 -1.0481
10520TIP3    H252976   1.322   3.097  11.764  0.1614  1.6108  0.5278
10521TIP3   OH252977   1.833   2.059   0.568  0.7719  0.2526  0.5223
10521TIP3    H152978   1.794   1.972   0.576  2.3213 -0.5763 -0.5807
10521TIP3    H252979   1.773   2.117   0.615 -1.9694 -0.8732 -1.4867
10522TIP3   OH252980   3.457   5.121   3.426 -0.1998 -0.2079  0.4091
10522TIP3    H152981   3.375   5.073   3.432 -0.9073  0.3919 -3.2660
10522TIP3    H252982   3.442   5.201   3.476 -1.3473 -0.7600  0.9521
10523TIP3   OH252983   0.478   5.659  12.135 -0.8529 -0.3429 -0.2026
10523TIP3    H152984   0.542   5.696  12.196 -0.7569  1.6199 -1.4359
10523TIP3    H252985   0.393   5.681  12.173 -0.7942  1.0259 -0.8119
10524TIP3   OH252986   6.466   0.188  10.990  0.1959 -0.1045 -0.3987
10524TIP3    H152987   6.493   0.254  10.926  0.2591  0.5907  0.3376
10524TIP3    H252988   6.372   0.176  10.974  0.3608 -0.4603 -1.0966
10525TIP3   OH252989   5.388   1.731   5.110 -0.0873  0.5009 -0.0631
10525TIP3    H152990   5.458   1.786   5.076  0.0821  0.1355 -0.3088
10525TIP3    H252991   5.388   1.654   5.053 -1.3036  0.9241 -0.6562
10526TIP3   OH252992   2.965   4.703   4.620 -0.2314 -0.0011  0.1977
10526TIP3    H152993   2.917   4.621   4.625 -1.5022  0.8348  1.8281
10526TIP3    H252994   2.943   4.738   4.534 -1.9746  0.0287  0.6497
10527TIP3   OH252995   5.074   3.516  12.109  0.1053  0.4485 -0.5846
10527TIP3    H152996   5.148   3.573  12.131  0.2022  0.5151 -1.0879
10527TIP3    H252997   5.066   3.522  12.014 -0.5251  0.4113 -0.5340
10528TIP3   OH252998   6.309   3.965   4.883 -0.1107 -0.6057 -0.0633
10528TIP3    H152999   6.339   3.876   4.868  1.6819 -0.0949  0.3128
10528TIP3    H253000   6.297   3.971   4.978  3.2056  0.5232  0.3779
10529TIP3   OH253001   6.332   4.553  16.402  0.6611  0.6163 -0.2065
10529TIP3    H153002   6.294   4.531  16.487 -0.7122 -0.7531 -1.1568
10529TIP3    H253003   6.264   4.533  16.339  1.9023  1.0168 -1.7041
10530TIP3   OH253004   2.656   1.069   1.153  0.0836 -0.3525  0.1435
10530TIP3    H153005   2.648   1.050   1.060 -1.2590 -4.2663  0.9559
10530TIP3    H253006   2.744   1.041   1.177 -0.0702 -0.7146  0.3014
10531TIP3   OH253007   3.822   3.466   3.728  0.4990 -0.1385  0.6964
10531TIP3    H153008   3.845   3.376   3.705  4.0575 -0.2109  3.9729
10531TIP3    H253009   3.868   3.519   3.662 -0.3198 -0.6393 -0.2939
10532TIP3   OH253010   4.320   3.061  12.042 -0.7461  0.1460 -0.1904
10532TIP3    H153011   4.406   3.101  12.027 -0.1401 -0.8486  0.5691
10532TIP3    H253012   4.259   3.118  11.995  0.4252  0.3531 -1.4920
10533TIP3   OH253013   2.471   6.770  14.856  0.4852  0.2072  0.3986
10533TIP3    H153014   2.539   6.719  14.899  1.9645  2.1935  0.5021
10533TIP3    H253015   2.419   6.807  14.928  0.4863  0.2705  0.3659
10534TIP3   OH253016   5.776   1.959   3.311 -0.3863 -0.7532 -0.3881
10534TIP3    H153017   5.816   1.896   3.251 -0.5486 -1.2074 -0.0214
10534TIP3    H253018   5.740   1.906   3.382  0.5872 -0.1616  0.5751
10535TIP3   OH253019   4.408   5.202   0.374 -0.3326 -0.3727 -0.2728
10535TIP3    H153020   4.341   5.139   0.350 -0.6502 -0.9678  2.0033
10535TIP3    H253021   4.424   5.185   0.467  1.7993  0.8437 -0.3782
10536TIP3   OH253022   0.427   5.225   3.229  0.2989 -0.1258  0.3103
10536TIP3    H153023   0.377   5.305   3.211 -0.3846 -0.9847 -1.8238
10536TIP3    H253024   0.517   5.248   3.207 -0.1044 -0.3140 -1.6167
10537TIP3   OH253025   6.664   4.996   5.352 -0.1207  0.1197 -0.0858
10537TIP3    H153026   6.587   5.026   5.401 -1.2294  0.0148 -1.7310
10537TIP3    H253027   6.640   4.909   5.321  1.4791 -0.7806  1.1348
10538TIP3   OH253028   5.507   4.139  13.016  0.8661  0.2594  0.6014
10538TIP3    H153029   5.482   4.141  13.109 -0.7546  1.9161  0.1504
10538TIP3    H253030   5.516   4.046  12.996 -0.8019 -0.2050  1.8806
10539TIP3   OH253031   2.616   1.605   0.124  0.0461  0.2480 -0.1458
10539TIP3    H153032   2.559   1.603   0.047  0.4056  0.1684 -0.4112
10539TIP3    H253033   2.567   1.559   0.192 -0.0460 -0.1434 -0.4812
10540TIP3   OH253034   4.070   0.917   3.846 -0.3955 -0.1378 -0.3093
10540TIP3    H153035   4.156   0.949   3.818  0.2755 -1.5579  0.0921
10540TIP3    H253036   4.027   0.994   3.881  1.1805  0.3669  0.5938
10541TIP3   OH253037   6.080   6.497  12.481 -0.1782  0.0980  0.2113
10541TIP3    H153038   6.038   6.410  12.486 -1.0410  0.4508 -0.6749
10541TIP3    H253039   6.124   6.497  12.396  1.9394 -0.3892  1.2760
10542TIP3   OH253040   4.803   2.294  12.022  0.0382  0.0767  0.0513
10542TIP3    H153041   4.745   2.328  12.091  0.0402 -0.1771  0.1780
10542TIP3    H253042   4.888   2.284  12.065 -0.6947 -3.0860  0.8793
10543TIP3   OH253043   3.407   4.917  12.244  0.5853  0.2614 -0.0072
10543TIP3    H153044   3.464   4.967  12.302  1.3914 -0.8932  0.2151
10543TIP3    H253045   3.443   4.933  12.156  0.0931  1.0535 -0.0658
10544TIP3   OH253046   5.725   2.267   1.728  0.4314  0.1712  0.3476
10544TIP3    H153047   5.660   2.196   1.726 -2.0562  2.3718  0.9348
10544TIP3    H253048   5.808   2.222   1.746 -1.3333 -2.4148  2.5160
10545TIP3   OH253049   1.295   3.093  14.333  0.4422 -0.2740  0.4404
10545TIP3    H153050   1.281   3.084  14.239  1.6811 -0.7827  0.3007
10545TIP3    H253051   1.263   3.180  14.354  1.0748  0.2222 -0.6331
10546TIP3   OH253052   2.411   3.406   4.917  0.6459  0.0961  0.2282
10546TIP3    H153053   2.434   3.382   5.006  1.5356  1.0364  0.2732
10546TIP3    H253054   2.460   3.345   4.862  2.4279  1.3715  0.3484
10547TIP3   OH253055   0.368   3.265  14.004  0.1750  0.0289  0.2824
10547TIP3    H153056   0.441   3.240  13.948  0.5590 -0.9663  1.2063
10547TIP3    H253057   0.410   3.291  14.087 -0.5997 -2.2433  1.4333
10548TIP3   OH253058   2.595   5.492  14.452  0.2037 -0.3747  0.5978
10548TIP3    H153059   2.505   5.479  14.423  0.1163  1.1715  0.1630
10548TIP3    H253060   2.634   5.549  14.387  0.6569  1.2923  2.2908
10549TIP3   OH253061   5.436   1.427  17.147 -0.2187  0.4996  0.4337
10549TIP3    H153062   5.350   1.448  17.110 -0.4647 -2.1194 -0.6021
10549TIP3    H253063   5.420   1.413  17.240 -0.8375  0.4502  0.3220
10550TIP3   OH253064   4.063   3.623  16.147 -0.0860 -0.4381 -0.4687
10550TIP3    H153065   4.083   3.631  16.241 -2.8234 -0.8177  0.1944
10550TIP3    H253066   4.094   3.705  16.109  0.0252  0.2089  0.9744
10551TIP3   OH253067   2.448   2.387  13.281  0.2205 -0.5474 -0.5479
10551TIP3    H153068   2.455   2.451  13.352 -0.2609 -0.8045 -0.2691
10551TIP3    H253069   2.539   2.360  13.264  0.3800 -0.1436 -0.3443
10552TIP3   OH253070   3.158   5.274   1.875  0.0360 -0.0253 -0.2371
10552TIP3    H153071   3.234   5.278   1.934 -1.2960 -0.2885  1.5270
10552TIP3    H253072   3.083   5.296   1.930 -1.2106  0.0365 -1.9180
10553TIP3   OH253073   4.125   3.004   2.647 -0.2564  0.4686 -0.5608
10553TIP3    H153074   4.099   3.054   2.725  0.6499 -0.6035  0.4682
10553TIP3    H253075   4.073   2.924   2.651  1.3709 -0.5862  0.1850
10554TIP3   OH253076   4.748   4.609  12.344 -0.2699 -0.0606 -0.1088
10554TIP3    H153077   4.758   4.583  12.435  1.0561  0.0680 -0.2035
10554TIP3    H253078   4.680   4.676  12.345 -0.7176 -0.5196  0.6909
10555TIP3   OH253079   0.599   6.034  15.126  0.5700 -0.0388 -0.5191
10555TIP3    H153080   0.585   5.939  15.126  1.1410 -0.1429  1.2933
10555TIP3    H253081   0.688   6.045  15.094  0.9033 -0.1979  0.3348
10556TIP3   OH253082   1.902   4.190  17.040  0.1024 -0.7043 -0.3101
10556TIP3    H153083   1.962   4.122  17.011 -0.4747 -1.0940 -0.6106
10556TIP3    H253084   1.930   4.210  17.130  0.6663 -0.8864 -0.4448
10557TIP3   OH253085   0.423   4.006  10.875  0.5812  0.0171  0.5982
10557TIP3    H153086   0.475   4.075  10.915 -0.0894  1.0536 -0.3101
10557TIP3    H253087   0.483   3.964  10.813  0.6931  0.4003  0.4499
10558TIP3   OH253088   1.047   2.672  15.131 -0.1155  0.0395  0.5155
10558TIP3    H153089   1.114   2.617  15.171 -0.5724  0.2043  1.5265
10558TIP3    H253090   1.095   2.735  15.078  0.4532 -0.7574  0.0713
10559TIP3   OH253091   5.771   0.977   0.226  0.1547 -0.2990 -0.1090
10559TIP3    H153092   5.783   0.933   0.142 -0.0483 -0.5528 -0.0047
10559TIP3    H253093   5.751   0.907   0.287  0.3122 -0.1143  0.1538
10560TIP3   OH253094   4.210   6.045  13.548  0.2504  0.3376 -0.2788
10560TIP3    H153095   4.233   6.120  13.494  0.8469  1.2732  1.2319
10560TIP3    H253096   4.120   6.062  13.575  0.6480  0.8963  0.6943
10561TIP3   OH253097   0.901   4.754   5.681 -0.6755 -0.0592  0.1667
10561TIP3    H153098   0.939   4.680   5.633 -0.4508 -0.9819  1.7072
10561TIP3    H253099   0.896   4.723   5.772 -1.9118  1.3165  0.5860
10562TIP3   OH253100   6.625   3.787   1.414  0.0483  0.1125 -0.1806
10562TIP3    H153101   6.691   3.724   1.444 -0.8427 -0.9467 -0.4221
10562TIP3    H253102   6.616   3.848   1.487 -1.1265 -1.6736  1.2478
10563TIP3   OH253103   3.428   2.918   0.257 -0.0035 -0.4044  0.1964
10563TIP3    H153104   3.469   2.941   0.173 -1.1167 -0.3503 -0.3385
10563TIP3    H253105   3.339   2.952   0.250  0.1591  0.3783  1.7533
10564TIP3   OH253106   0.161   0.310   0.165  0.7907 -0.0834 -0.1657
10564TIP3    H153107   0.070   0.337   0.152  0.2127 -1.8148  0.2792
10564TIP3    H253108   0.178   0.248   0.094  1.4838 -0.1310  0.0399
10565TIP3   OH253109   5.860   1.124  16.437 -0.4111  0.3735  0.2113
10565TIP3    H153110   5.782   1.099  16.486  0.7629  0.3650  2.1542
10565TIP3    H253111   5.896   1.198  16.487  0.5910  0.6417 -0.8879
10566TIP3   OH253112   6.211   5.049  11.621 -0.4542 -0.3305 -0.2754
10566TIP3    H153113   6.199   5.024  11.712  0.0616 -1.0874 -0.4057
10566TIP3    H253114   6.125   5.037  11.581 -0.5685 -0.4498  0.0100
10567TIP3   OH253115   2.538   3.548   3.706 -0.0698 -0.1071 -0.9318
10567TIP3    H153116   2.557   3.596   3.787 -0.9072  1.3373 -1.5609
10567TIP3    H253117   2.556   3.611   3.636 -1.8496 -0.4682 -1.7441
10568TIP3   OH253118   4.968   3.611   4.005  0.6089 -0.2879 -0.1148
10568TIP3    H153119   5.061   3.593   4.020  1.1691  0.8337 -2.1563
10568TIP3    H253120   4.930   3.617   4.093  2.4587 -0.7370  0.7279
10569TIP3   OH253121   5.867   0.451  14.091  0.2724 -0.4388 -0.5284
10569TIP3    H153122   5.960   0.467  14.078  0.3781  0.5290  1.2487
10569TIP3    H253123   5.828   0.462  14.004  1.5103  1.3498 -0.8828
10570TIP3   OH253124   3.447   1.047  14.255  0.1162 -0.1272  0.0901
10570TIP3    H153125   3.375   1.110  14.253  1.1352  1.0281 -0.3310
10570TIP3    H253126   3.404   0.962  14.240 -1.3440  0.3688  1.3265
10571TIP3   OH253127   0.648   6.433  15.194  0.6136  0.3308  0.0403
10571TIP3    H153128   0.556   6.405  15.191  0.6297  0.1812  0.9342
10571TIP3    H253129   0.673   6.424  15.286  1.9787 -1.0881 -0.4553
10572TIP3   OH253130   6.606   0.848  17.032  0.1778  0.3948  0.3219
10572TIP3    H153131   6.638   0.931  17.067 -1.1427  0.2957  1.8179
10572TIP3    H253132   6.549   0.873  16.959 -0.0693  0.7970  0.6503
10573TIP3   OH253133   2.640   6.163  15.444 -0.3879  0.3581 -0.1643
10573TIP3    H153134   2.596   6.214  15.512  0.0250 -0.9204  1.1062
10573TIP3    H253135   2.689   6.096  15.493  1.9423  0.9553 -1.5948
10574TIP3   OH253136   4.305   2.912   3.686 -0.0011  0.1422  0.1202
10574TIP3    H153137   4.257   2.829   3.688 -0.3619  0.3654  0.6937
10574TIP3    H253138   4.307   2.942   3.777  1.0057  0.2649  0.0680
10575TIP3   OH253139   2.935   2.055   2.498  0.1630 -0.0260 -0.2742
10575TIP3    H153140   2.870   2.032   2.565  1.5430  0.5497  1.2845
10575TIP3    H253141   3.019   2.027   2.535  0.6935 -2.0959 -2.8907
10576TIP3   OH253142   5.864   5.717  13.430 -0.1353  0.5897 -0.7140
10576TIP3    H153143   5.907   5.786  13.479  1.1450 -0.8956  0.3259
10576TIP3    H253144   5.928   5.692  13.363 -0.9836  1.0716 -1.7204
10577TIP3   OH253145   5.518   6.463   4.597  0.4058 -0.1693 -0.0050
10577TIP3    H153146   5.454   6.504   4.539 -0.1837 -0.0843  0.6974
10577TIP3    H253147   5.601   6.467   4.549 -0.1215 -0.3042 -0.9340
10578TIP3   OH253148   0.835   4.616  16.939  0.7184 -0.2535  0.5781
10578TIP3    H153149   0.875   4.700  16.919  0.7975 -0.2247  0.8588
10578TIP3    H253150   0.901   4.569  16.989  0.5418 -0.3482  0.7235
10579TIP3   OH253151   0.916   3.632  16.972 -0.1761  0.2541  0.6168
10579TIP3    H153152   0.980   3.697  16.999 -1.1510  0.7029  1.8964
10579TIP3    H253153   0.890   3.660  16.884  0.7269  0.5659  0.4397
10580TIP3   OH253154   3.485   3.916   0.281  0.2464 -0.0782 -0.4568
10580TIP3    H153155   3.511   3.863   0.206 -0.2883 -0.1602 -0.5875
10580TIP3    H253156   3.415   3.866   0.323  0.8146 -0.2256  0.3318
10581TIP3   OH253157   1.782   5.408   4.837  0.3300  0.3046  0.0640
10581TIP3    H153158   1.821   5.322   4.825 -2.4562 -0.8918 -0.9813
10581TIP3    H253159   1.830   5.465   4.777  2.6561 -0.3229  1.2791
10582TIP3   OH253160   6.730   6.402  11.928  0.8000 -0.0536 -0.5991
10582TIP3    H153161   6.769   6.352  11.857  0.4486  0.6498 -1.2906
10582TIP3    H253162   6.696   6.335  11.988  0.6978 -0.6445 -1.3071
10583TIP3   OH253163   4.756   2.232   0.833 -0.3064 -0.0100  0.2075
10583TIP3    H153164   4.672   2.190   0.815 -1.2787  0.8669  2.4186
10583TIP3    H253165   4.781   2.272   0.750 -1.5634 -1.1600 -0.7506
10584TIP3   OH253166   4.371   4.843  11.133  0.0635 -0.2104  0.0873
10584TIP3    H153167   4.410   4.903  11.196 -1.0589  0.1712  0.4303
10584TIP3    H253168   4.442   4.824  11.072  0.4367  1.5206 -0.0668
10585TIP3   OH253169   6.240   5.334  15.297  0.0764  0.0984  0.2250
10585TIP3    H153170   6.334   5.340  15.282 -0.0040  1.7184  0.3185
10585TIP3    H253171   6.204   5.310  15.212  0.4564  0.6277 -0.0857
10586TIP3   OH253172   6.208   4.540   0.805  0.3617 -0.4606 -0.5846
10586TIP3    H153173   6.294   4.499   0.798  0.6189 -0.1083  0.4490
10586TIP3    H253174   6.208   4.609   0.739  1.3673  0.3991  0.2945
10587TIP3   OH253175   1.602   6.735  13.002 -0.3070  0.0551  0.4221
10587TIP3    H153176   1.690   6.771  13.013  0.0381 -0.7490  0.3131
10587TIP3    H253177   1.546   6.795  13.050  0.5702 -0.6664  2.4150
10588TIP3   OH253178   1.376   3.700   3.027  0.4431 -0.0623  0.0826
10588TIP3    H153179   1.342   3.758   3.096  0.0655 -1.5814  1.2074
10588TIP3    H253180   1.337   3.615   3.047  0.4077 -0.5487 -1.9714
10589TIP3   OH253181   5.271   2.424   1.073  0.0019 -0.1225 -0.0589
10589TIP3    H153182   5.348   2.435   1.129  0.5838 -2.8832 -0.2761
10589TIP3    H253183   5.250   2.331   1.078 -0.1963 -0.3855 -4.0789
10590TIP3   OH253184   0.030   6.624   4.718  0.1567  0.0370 -0.3045
10590TIP3    H153185   0.019   6.609   4.811 -2.6747 -0.9308 -0.7583
10590TIP3    H253186   0.079   6.706   4.713  1.5051 -0.5880  2.0144
10591TIP3   OH253187   3.304   1.276   1.805 -0.0537  0.2546 -0.3697
10591TIP3    H153188   3.379   1.298   1.749  0.6622  0.2538  0.5811
10591TIP3    H253189   3.234   1.334   1.774  0.5125  0.6912 -0.8592
10592TIP3   OH253190   2.946   3.242  16.487 -0.2386 -0.4450 -0.0724
10592TIP3    H153191   3.033   3.250  16.527  0.3006  1.3555 -1.5357
10592TIP3    H253192   2.955   3.169  16.425 -0.3242 -1.4630  1.0762
10593TIP3   OH253193   3.711   4.906  11.524  0.1334 -0.2356  0.3304
10593TIP3    H153194   3.801   4.899  11.491  0.2691  0.3120  0.5591
10593TIP3    H253195   3.666   4.830  11.489  0.5435 -0.2184 -0.2498
10594TIP3   OH253196   2.937   1.855   4.278 -0.2465 -0.2533  0.5425
10594TIP3    H153197   2.951   1.945   4.249 -3.5664  0.1059 -0.1767
10594TIP3    H253198   2.874   1.862   4.349  0.3361 -1.9469  1.2586
10595TIP3   OH253199   1.987   1.546   4.701 -0.6437 -0.0872  0.1646
10595TIP3    H153200   2.019   1.494   4.774 -2.4439  0.6723  1.5471
10595TIP3    H253201   2.057   1.609   4.683  0.1045 -0.7465  0.7729
10596TIP3   OH253202   6.350   5.825  12.287  0.4212 -0.2734 -0.2501
10596TIP3    H153203   6.367   5.762  12.357 -0.6005  0.1569  0.3990
10596TIP3    H253204   6.297   5.893  12.328 -0.2718 -0.0607 -1.4674
10597TIP3   OH253205   6.409   5.331  12.799 -0.0110  0.1601  0.1373
10597TIP3    H153206   6.484   5.285  12.837  0.3258  2.0190  1.8333
10597TIP3    H253207   6.335   5.304  12.853  0.0650  1.0192  0.6826
10598TIP3   OH253208   2.223   0.153   1.129 -0.7958  0.0477 -0.7478
10598TIP3    H153209   2.208   0.237   1.172  1.3673  0.6184 -1.0366
10598TIP3    H253210   2.174   0.090   1.181 -0.7957  1.1982  0.6759
10599TIP3   OH253211   4.222   5.341  13.164 -0.2567  0.3115 -0.3909
10599TIP3    H153212   4.264   5.423  13.141  1.5931 -0.5761 -0.2890
10599TIP3    H253213   4.178   5.359  13.248 -0.0918  1.2610 -0.5025
10600TIP3   OH253214   4.862   2.028  12.042 -0.2944 -0.3559 -0.4148
10600TIP3    H153215   4.796   2.095  12.022 -0.8431 -0.3051  1.3948
10600TIP3    H253216   4.840   2.000  12.132  2.5931  0.2022  0.5089
10601TIP3   OH253217   4.621   5.103   5.086 -0.6779  0.1945  0.7973
10601TIP3    H153218   4.716   5.100   5.080 -0.6104  3.2406 -0.5682
10601TIP3    H253219   4.603   5.102   5.180  0.7054  0.1260  1.0719
10602TIP3   OH253220   5.231   6.124  15.706  0.0327 -0.2226  0.1336
10602TIP3    H153221   5.269   6.193  15.759 -0.3469  0.7128 -0.7762
10602TIP3    H253222   5.208   6.055  15.768 -0.8306  1.0357  1.2513
10603TIP3   OH253223   1.582   4.032   5.050 -0.5240 -0.2315  0.0381
10603TIP3    H153224   1.657   3.973   5.058 -0.3661  0.0874  0.9812
10603TIP3    H253225   1.506   3.975   5.059 -0.4248 -0.7537 -2.2585
10604TIP3   OH253226   3.371   2.447   0.438 -0.2780 -0.3092  0.1274
10604TIP3    H153227   3.333   2.361   0.456  0.6857 -0.3366  2.1809
10604TIP3    H253228   3.414   2.472   0.520  0.6725  1.5056 -0.8882
10605TIP3   OH253229   1.270   4.517  15.979  0.5613 -0.0638 -0.6621
10605TIP3    H153230   1.285   4.520  15.885 -1.8071  0.2343 -1.0634
10605TIP3    H253231   1.301   4.431  16.006 -0.1054 -0.7299 -1.9771
10606TIP3   OH253232   2.324   2.893   5.023  0.2791 -0.1031 -0.2332
10606TIP3    H153233   2.255   2.956   5.002 -0.0311 -0.3423  0.0482
10606TIP3    H253234   2.402   2.926   4.978 -0.0098  0.1908 -0.5224
10607TIP3   OH253235   0.168   6.784  15.842 -0.1935 -0.2953  0.3731
10607TIP3    H153236   0.238   6.780  15.776 -1.2372 -1.9562 -0.6673
10607TIP3    H253237   0.215   6.798  15.925  1.1957  0.9924 -0.6040
10608TIP3   OH253238   6.192   4.267  15.541  0.0656 -0.2841  0.0063
10608TIP3    H153239   6.250   4.333  15.579  0.4720 -0.1418 -0.8409
10608TIP3    H253240   6.168   4.302  15.455 -0.2134 -0.9476 -0.1939
10609TIP3   OH253241   5.699   2.820   2.852 -0.4556 -0.2799  0.0162
10609TIP3    H153242   5.762   2.858   2.914 -0.1211 -1.6357  0.5271
10609TIP3    H253243   5.653   2.753   2.902 -0.2406 -1.3403 -1.1702
10610TIP3   OH253244   5.670   1.355   3.979 -0.6781 -1.1327  0.6286
10610TIP3    H153245   5.689   1.305   4.058 -0.4163 -1.4198  0.3879
10610TIP3    H253246   5.601   1.416   4.005  0.1122 -0.5301  1.3459
10611TIP3   OH253247   0.537   2.836   3.560  0.1950  0.3490 -0.5295
10611TIP3    H153248   0.627   2.858   3.536 -0.6853  1.1573 -3.2695
10611TIP3    H253249   0.544   2.754   3.609  2.5257  1.0352  0.3014
10612TIP3   OH253250   2.954   6.362   4.772 -0.3798  0.4468 -0.0164
10612TIP3    H153251   2.861   6.378   4.753 -0.3653 -0.3659 -0.7920
10612TIP3    H253252   3.000   6.401   4.698 -0.0955  0.9342  0.4173
10613TIP3   OH253253   4.756   0.016   2.885 -0.7253  0.1425 -0.0271
10613TIP3    H153254   4.717  -0.071   2.876  0.5056 -0.2612 -1.6904
10613TIP3    H253255   4.780   0.022   2.977 -1.3587 -1.0601  0.2298
10614TIP3   OH253256   3.842   0.834  16.674  0.1091 -0.6887 -0.3212
10614TIP3    H153257   3.806   0.770  16.735  0.3241  0.2579  0.8304
10614TIP3    H253258   3.777   0.841  16.605 -1.1676 -0.1940  0.9080
10615TIP3   OH253259   5.412   2.041   0.982  0.2421 -0.0923  0.2986
10615TIP3    H153260   5.494   2.016   1.024  1.0205  0.0289 -1.1031
10615TIP3    H253261   5.364   2.089   1.049  1.9230  1.0739  0.7068
10616TIP3   OH253262   5.517   1.881   3.899  0.1419 -0.2093  0.0451
10616TIP3    H153263   5.525   1.793   3.862  0.9061  0.8597 -2.4010
10616TIP3    H253264   5.490   1.936   3.826 -1.0953  1.4858  1.7135
10617TIP3   OH253265   1.351   0.542   5.801 -0.1479  0.4700  0.2854
10617TIP3    H153266   1.303   0.472   5.845  0.2607 -0.8648 -1.3250
10617TIP3    H253267   1.298   0.563   5.724  0.5828  0.7603 -0.1411
10618TIP3   OH253268   6.373   1.670  15.808 -0.1829 -0.4082  0.2692
10618TIP3    H153269   6.464   1.652  15.786 -0.0820 -0.2704  0.5806
10618TIP3    H253270   6.342   1.726  15.737 -0.2485 -1.0829 -0.2492
10619TIP3   OH253271   5.083   0.364   6.859 -0.0300 -0.1977  0.3221
10619TIP3    H153272   5.055   0.274   6.843  0.1196  0.1058 -1.6995
10619TIP3    H253273   5.006   0.418   6.840  0.8030  0.3431 -1.5944
10620TIP3   OH253274   1.380   6.270   6.671  0.0996  0.5898  0.6208
10620TIP3    H153275   1.287   6.253   6.655  0.1745  1.2708 -0.6186
10620TIP3    H253276   1.426   6.211   6.613  0.4173  1.1577  0.2868
10621TIP3   OH253277   2.070   6.284  14.731 -0.1666 -0.1816  0.7068
10621TIP3    H153278   2.017   6.336  14.670  0.8692  0.7500  0.5795
10621TIP3    H253279   2.038   6.195  14.720  0.3649 -0.1189 -1.6214
10622TIP3   OH253280   2.294   2.096   1.525  0.6389  0.4075  0.1179
10622TIP3    H153281   2.211   2.117   1.567 -0.3747  0.0369 -1.6183
10622TIP3    H253282   2.292   2.145   1.442  1.7436 -0.3145 -0.3604
10623TIP3   OH253283   4.966   5.748   5.145 -0.3341 -0.1082  0.4465
10623TIP3    H153284   4.945   5.841   5.131  0.3193 -0.1739 -1.0940
10623TIP3    H253285   5.058   5.748   5.171 -0.1524 -0.3758 -0.1966
10624TIP3   OH253286   3.969   5.843   5.193 -0.1742 -0.4143  0.3780
10624TIP3    H153287   4.055   5.856   5.233 -1.1267 -0.0447  2.3555
10624TIP3    H253288   3.945   5.753   5.218 -0.3006 -0.5740 -0.3079
10625TIP3   OH253289   3.330   0.750   0.726 -0.3227  0.3655  1.0377
10625TIP3    H153290   3.425   0.736   0.736 -0.2046  0.7621  0.4663
10625TIP3    H253291   3.323   0.839   0.694 -0.9115  0.4279  1.3441
10626TIP3   OH253292   0.333   2.130   0.377 -0.4133  0.1893 -0.4066
10626TIP3    H153293   0.308   2.038   0.367 -1.7494  0.4786  0.1349
10626TIP3    H253294   0.428   2.130   0.366 -0.5426 -1.0528 -1.8366
10627TIP3   OH253295   6.301   4.025  15.642 -0.5393 -0.1681  0.1792
10627TIP3    H153296   6.269   4.094  15.584 -0.8154 -0.9950 -0.6617
10627TIP3    H253297   6.268   3.943  15.603  0.7479 -0.8669  0.5278
10628TIP3   OH253298   3.339   5.107   6.002 -0.1758 -0.9486  0.1593
10628TIP3    H153299   3.372   5.121   6.091 -0.1959 -0.3261  0.0682
10628TIP3    H253300   3.250   5.142   6.004 -0.3249 -1.3094  0.0035
10629TIP3   OH253301   1.892   2.415  16.737  0.3867  0.1023 -0.1297
10629TIP3    H153302   1.838   2.353  16.786  3.1822 -1.4050  1.1259
10629TIP3    H253303   1.859   2.411  16.648 -1.3508 -1.0337  0.5447
10630TIP3   OH253304   1.848   1.213   1.333  0.0342  0.0001 -0.3040
10630TIP3    H153305   1.851   1.178   1.244  0.2285  0.9701 -0.6786
10630TIP3    H253306   1.757   1.241   1.344  0.1677  0.4805 -0.4273
10631TIP3   OH253307   2.171   2.276   5.434 -0.2341 -0.3528 -0.1542
10631TIP3    H153308   2.095   2.278   5.375  0.1715  0.1312 -0.6640
10631TIP3    H253309   2.148   2.210   5.500 -1.8334  0.9357  0.6488
10632TIP3   OH253310   1.251   3.118   4.695 -0.3251 -0.4574  0.3239
10632TIP3    H153311   1.162   3.145   4.717  0.1804  0.4561  1.2586
10632TIP3    H253312   1.253   3.024   4.714 -1.0852 -0.4819  0.2915
10633TIP3   OH253313   3.418   2.122   2.305 -0.0331  0.0985  0.1953
10633TIP3    H153314   3.393   2.037   2.341 -2.3635  0.4287 -0.5547
10633TIP3    H253315   3.390   2.185   2.372  2.2178  0.2681  1.0137
10634TIP3   OH253316   2.640   3.093   1.214  0.2670  0.1345  0.2753
10634TIP3    H153317   2.549   3.120   1.225 -0.1172 -1.0840  0.2033
10634TIP3    H253318   2.655   3.099   1.119  0.1849  0.0872  0.2593
10635TIP3   OH253319   5.610   5.710   2.431 -0.2728  0.3720  0.0433
10635TIP3    H153320   5.565   5.662   2.361  1.7522 -3.5490  1.2359
10635TIP3    H253321   5.542   5.731   2.494 -1.7310  1.9231 -1.9895
10636TIP3   OH253322   5.554   1.236  12.382  0.0743 -0.1742  0.5987
10636TIP3    H153323   5.523   1.146  12.383  0.0132 -0.1551  2.8671
10636TIP3    H253324   5.476   1.289  12.392  0.0784  0.1639 -1.0241
10637TIP3   OH253325   1.834   6.534   5.384 -0.0753 -0.2102  0.0437
10637TIP3    H153326   1.788   6.481   5.449  0.5206  0.5752  1.1274
10637TIP3    H253327   1.927   6.528   5.409  0.1506  0.1474 -0.6932
10638TIP3   OH253328   1.788   6.395  11.189 -0.0987  0.0594  0.1458
10638TIP3    H153329   1.721   6.402  11.121 -0.8467 -0.7467  0.7721
10638TIP3    H253330   1.868   6.430  11.149 -0.2610 -1.3842 -1.5217
10639TIP3   OH253331   6.208   5.540   2.897  0.0534 -0.4109 -0.1159
10639TIP3    H153332   6.258   5.620   2.912  1.4107 -1.3415  0.4490
10639TIP3    H253333   6.233   5.513   2.809  1.5101 -1.5121  0.6015
10640TIP3   OH253334   3.497   1.446  11.064 -0.4546 -0.3083 -0.4745
10640TIP3    H153335   3.513   1.530  11.107 -1.1721  0.6340 -1.9973
10640TIP3    H253336   3.437   1.467  10.992  1.6084 -1.5854 -2.6561
10641TIP3   OH253337   3.559   4.423  16.436 -0.3300 -0.0495 -0.1930
10641TIP3    H153338   3.528   4.430  16.527 -1.8806 -0.4279 -0.6851
10641TIP3    H253339   3.556   4.330  16.417 -0.1322  0.0461 -0.6832
10642TIP3   OH253340   5.642   2.934  15.839 -0.9593 -0.3867  0.0173
10642TIP3    H153341   5.628   2.891  15.755  1.7734  1.3517 -1.4109
10642TIP3    H253342   5.608   3.023  15.827 -0.8835 -0.2311  0.8949
10643TIP3   OH253343   4.420   3.738   2.232  0.4529  0.2065 -0.0498
10643TIP3    H153344   4.430   3.661   2.177  0.1280 -0.6453  1.0652
10643TIP3    H253345   4.510   3.771   2.244  0.5261  0.3892 -1.0556
10644TIP3   OH253346   1.733   0.373   2.548 -0.1208  0.1813 -0.0378
10644TIP3    H153347   1.717   0.466   2.532  0.6141  0.1409 -1.0016
10644TIP3    H253348   1.682   0.354   2.627 -1.5991  1.0094 -0.7706
10645TIP3   OH253349   4.416   3.831  15.611 -0.1859  0.2193 -0.0703
10645TIP3    H153350   4.460   3.914  15.632  0.2095  1.1687 -4.2159
10645TIP3    H253351   4.476   3.763  15.642  0.4285  1.4561  1.5450
10646TIP3   OH253352   2.039   2.708  13.241 -0.2346  0.5724 -0.0239
10646TIP3    H153353   1.950   2.694  13.275 -0.5207  1.8584 -0.2268
10646TIP3    H253354   2.032   2.785  13.185  0.2333 -1.5135 -3.0859
10647TIP3   OH253355   1.602   3.232   3.866  0.0908  0.1224 -0.4999
10647TIP3    H153356   1.653   3.311   3.851  0.1952 -0.2210 -2.0726
10647TIP3    H253357   1.618   3.210   3.958  1.2108  1.1095 -0.4476
10648TIP3   OH253358   2.972   0.216   0.950 -0.0344 -0.1103  0.0126
10648TIP3    H153359   3.037   0.238   0.883 -0.4839 -2.4248 -1.2614
10648TIP3    H253360   3.002   0.133   0.986 -1.4382 -0.4090  0.5381
10649TIP3   OH253361   1.301   6.729  12.281  0.4564  0.0276  0.5577
10649TIP3    H153362   1.259   6.644  12.266  0.1217  0.4947 -1.2444
10649TIP3    H253363   1.275   6.782  12.206 -0.2593  2.0934  2.2172
10650TIP3   OH253364   0.120   2.516   5.830 -0.5749  0.3058  0.1045
10650TIP3    H153365   0.111   2.436   5.780 -0.2509  0.3787 -0.0746
10650TIP3    H253366   0.166   2.490   5.910 -3.5970 -0.3447  1.7144
10651TIP3   OH253367   3.263   2.337   0.743  0.2180  0.7358  0.0772
10651TIP3    H153368   3.340   2.282   0.756 -1.7634 -2.0277  0.5906
10651TIP3    H253369   3.228   2.308   0.659 -1.2124  0.7714  0.6592
10652TIP3   OH253370   6.748   1.712  12.823 -0.0894 -0.1337 -0.1874
10652TIP3    H153371   6.763   1.680  12.734  1.8474  0.1750  0.0063
10652TIP3    H253372   6.726   1.805  12.812  0.7515  0.0531 -0.3057
10653TIP3   OH253373   2.782   6.486   3.605 -0.2975 -0.1280 -0.0612
10653TIP3    H153374   2.714   6.506   3.669  0.0403  0.4750  0.1120
10653TIP3    H253375   2.742   6.509   3.521  0.1813  1.5971  0.1536
10654TIP3   OH253376   2.102   1.183  13.707  0.5310 -0.3016 -0.1343
10654TIP3    H153377   2.029   1.237  13.676 -0.1738 -0.4942  1.1572
10654TIP3    H253378   2.061   1.116  13.761  1.4818 -1.6752 -1.0987
10655TIP3   OH253379   4.744   4.617  10.790  0.0689 -0.1314 -0.2826
10655TIP3    H153380   4.787   4.684  10.736  1.8810 -1.3290 -0.3687
10655TIP3    H253381   4.750   4.537  10.738 -2.2642 -0.3496 -0.2633
10656TIP3   OH253382   0.972   6.037  13.556  0.6836 -0.4414 -0.5754
10656TIP3    H153383   0.905   6.105  13.559  1.4676  0.3139 -0.0378
10656TIP3    H253384   1.012   6.038  13.643  0.6757 -1.6166 -0.5489
10657TIP3   OH253385   5.156   1.946   2.643  0.1866 -0.2377 -0.0198
10657TIP3    H153386   5.103   2.021   2.670  0.9079  1.0737 -2.1059
10657TIP3    H253387   5.123   1.923   2.556  2.4643  0.1050 -1.0194
10658TIP3   OH253388   6.177   5.572  13.599  0.1410 -0.1465  0.0025
10658TIP3    H153389   6.270   5.555  13.583  0.4048  0.7962  0.4907
10658TIP3    H253390   6.136   5.568  13.512  0.4171 -1.8507 -0.0566
10659TIP3   OH253391   1.326   3.873   5.018  0.1976  0.0956 -0.0872
10659TIP3    H153392   1.245   3.901   4.975 -1.1959 -1.5593  1.3648
10659TIP3    H253393   1.301   3.860   5.110  1.5795 -2.3747 -0.0106
10660TIP3   OH253394   1.020   5.312  11.446 -0.3084  0.3590  0.2078
10660TIP3    H153395   0.953   5.350  11.504 -0.4976  2.0069 -1.0571
10660TIP3    H253396   0.974   5.297  11.363 -0.1619 -2.4213  0.5662
10661TIP3   OH253397   0.468   6.475  12.998 -0.4721 -0.1256  0.3585
10661TIP3    H153398   0.558   6.495  13.026 -0.6264  2.5367 -0.9387
10661TIP3    H253399   0.478   6.439  12.910 -0.5677 -1.3645  0.8468
10662TIP3   OH253400   1.409   6.545  13.698 -0.3274  0.2794 -0.0364
10662TIP3    H153401   1.320   6.574  13.678 -1.4533 -0.2178  3.7651
10662TIP3    H253402   1.462   6.625  13.693 -1.2103  0.8240 -0.9760
10663TIP3   OH253403   3.983   0.985  11.082 -0.9989  0.3302  0.0957
10663TIP3    H153404   3.934   1.065  11.100 -3.6002 -1.7567  2.8635
10663TIP3    H253405   3.919   0.928  11.038  1.0270  0.0029 -2.5202
10664TIP3   OH253406   1.140   2.688  13.806  0.0142 -0.2249  0.3417
10664TIP3    H153407   1.110   2.609  13.852 -1.9360  1.1908  1.5549
10664TIP3    H253408   1.190   2.736  13.871 -2.0842  1.4045  0.7992
10665TIP3   OH253409   0.303   4.450   3.409  0.4354 -0.1206 -0.0070
10665TIP3    H153410   0.220   4.417   3.374  0.1380 -0.9448  1.4665
10665TIP3    H253411   0.278   4.498   3.488  1.3659 -0.3894  0.4521
10666TIP3   OH253412   3.590   5.538   1.176  0.1464 -0.2752  1.1209
10666TIP3    H153413   3.500   5.554   1.203 -0.0948  0.6083 -0.1611
10666TIP3    H253414   3.633   5.623   1.186  0.0650  0.0536 -1.1891
10667TIP3   OH253415   6.341   3.835   3.373  0.1256  0.5178  0.2441
10667TIP3    H153416   6.328   3.897   3.302  1.0353 -0.2921 -0.6551
10667TIP3    H253417   6.280   3.862   3.441 -1.0660  1.0520 -1.0197
10668TIP3   OH253418   4.726   0.815  16.163  0.2223  0.6941 -0.4698
10668TIP3    H153419   4.709   0.764  16.084  0.6881  1.0690 -0.8149
10668TIP3    H253420   4.741   0.750  16.232 -1.3499  0.3536 -0.4264
10669TIP3   OH253421   3.123   1.119   3.991 -0.0020 -0.7390 -0.0554
10669TIP3    H153422   3.069   1.170   3.931  1.4113 -1.0288 -1.6149
10669TIP3    H253423   3.122   1.168   4.074 -1.1846  0.1705 -0.6097
10670TIP3   OH253424   1.873   2.390  12.407  0.2006  0.1129  0.5104
10670TIP3    H153425   1.855   2.344  12.490 -1.5168  1.2081  0.7870
10670TIP3    H253426   1.900   2.321  12.347 -0.4763 -0.9914  1.4421
10671TIP3   OH253427   4.742   0.468  16.939  0.1746 -0.4523 -0.3159
10671TIP3    H153428   4.764   0.436  17.026 -0.2779  0.4590  0.1392
10671TIP3    H253429   4.655   0.507  16.949  0.3330  0.0951 -1.0608
10672TIP3   OH253430   5.413   4.620   2.781 -0.6065  0.2498  0.3811
10672TIP3    H153431   5.468   4.553   2.823 -1.0173 -0.2301  0.1621
10672TIP3    H253432   5.350   4.645   2.848  0.7942  1.8739  1.1136
10673TIP3   OH253433   1.211   2.115   3.110 -0.4445  0.3436 -0.2702
10673TIP3    H153434   1.282   2.056   3.086  0.6327  1.3369  0.3893
10673TIP3    H253435   1.142   2.097   3.046  0.6366 -0.1970 -1.3110
10674TIP3   OH253436   6.041   1.671   5.835  0.5965  0.4177  0.2485
10674TIP3    H153437   6.002   1.673   5.923  0.7498  0.6306  0.3099
10674TIP3    H253438   6.100   1.746   5.833 -1.8026  2.3636 -1.1370
10675TIP3   OH253439   2.815   5.870   2.925  0.0801  0.2267 -0.5389
10675TIP3    H153440   2.779   5.785   2.950  0.4015 -0.0841 -1.1282
10675TIP3    H253441   2.740   5.920   2.891 -0.3629  0.6533  1.0273
10676TIP3   OH253442   3.182   3.477   6.523  0.4920  0.3424 -0.0217
10676TIP3    H153443   3.233   3.401   6.496  1.2825 -0.1254  2.6466
10676TIP3    H253444   3.234   3.552   6.495  1.8636 -0.1350  1.1738
10677TIP3   OH253445   0.582   5.646   2.407 -0.0759 -0.3118  0.4278
10677TIP3    H153446   0.654   5.589   2.379  0.3274  0.5814 -0.3519
10677TIP3    H253447   0.514   5.635   2.341  0.6585  1.3684 -0.6439
10678TIP3   OH253448   5.116   4.302   2.575  0.2848 -0.3682  0.1055
10678TIP3    H153449   5.141   4.287   2.666 -2.9079  1.3150  1.3341
10678TIP3    H253450   5.026   4.272   2.570 -0.1536  1.1979 -2.0533
10679TIP3   OH253451   0.467   1.366  15.923 -0.5745  0.3003  0.1692
10679TIP3    H153452   0.446   1.414  15.843 -0.4526 -2.3284 -1.4813
10679TIP3    H253453   0.395   1.303  15.933  0.6223 -0.9861  0.8189
10680TIP3   OH253454   3.856   6.557   1.410 -0.1832  0.5011 -0.1435
10680TIP3    H153455   3.818   6.498   1.475  0.5513 -1.4313 -1.4526
10680TIP3    H253456   3.945   6.574   1.441 -1.0848  2.7267  1.3882
10681TIP3   OH253457   1.510   3.542  13.651  0.6636 -0.3325 -0.1977
10681TIP3    H153458   1.567   3.590  13.591 -1.6848  2.9282  0.0468
10681TIP3    H253459   1.494   3.603  13.723 -1.0811 -2.1168  0.9687
10682TIP3   OH253460   2.707   2.038  14.388 -0.3238 -0.5480 -0.9630
10682TIP3    H153461   2.712   2.095  14.311 -1.7453 -0.3573 -0.9221
10682TIP3    H253462   2.617   2.007  14.389 -1.2108  1.8709  2.3733
10683TIP3   OH253463   2.713   2.255   0.859 -0.2171 -0.4226 -0.6754
10683TIP3    H153464   2.673   2.168   0.854 -0.4520 -0.2819 -1.2543
10683TIP3    H253465   2.755   2.257   0.946 -1.2398 -0.6610 -0.1695
10684TIP3   OH253466   1.641   1.173  14.618 -0.4543  0.0698  0.1298
10684TIP3    H153467   1.672   1.167  14.708 -0.2109  0.7546  0.1000
10684TIP3    H253468   1.552   1.140  14.620 -0.3389 -0.2148  0.5635
10685TIP3   OH253469   5.109   1.085  16.590  0.2881 -0.0574  0.4475
10685TIP3    H153470   5.084   1.157  16.531  0.0209 -1.1573 -0.8106
10685TIP3    H253471   5.056   1.098  16.668 -1.6183 -0.3025 -0.7642
10686TIP3   OH253472   6.387   0.672  13.104  0.5563  0.4350 -0.1199
10686TIP3    H153473   6.378   0.693  13.011  0.1977  0.0320 -0.1826
10686TIP3    H253474   6.457   0.607  13.108 -1.0301 -1.3772 -0.4129
10687TIP3   OH253475   1.038   0.133   2.871 -0.1948  0.3735  0.5460
10687TIP3    H153476   1.090   0.207   2.840  0.2270  0.5440  1.6577
10687TIP3    H253477   1.064   0.060   2.815  0.5793  0.6711  0.5155
10688TIP3   OH253478   1.314   5.224   5.083 -0.3373  0.3017 -0.5972
10688TIP3    H153479   1.374   5.160   5.044 -0.7408 -1.1039  1.0355
10688TIP3    H253480   1.277   5.271   5.008 -0.8523 -2.1331 -1.9263
10689TIP3   OH253481   4.352   3.270   2.193 -0.2993 -0.5330  0.2866
10689TIP3    H153482   4.306   3.217   2.258  1.5228 -1.2045  1.0662
10689TIP3    H253483   4.394   3.339   2.244 -1.6518  0.9557 -0.5868
10690TIP3   OH253484   5.917   3.821   1.775  0.2481 -0.0086 -0.1906
10690TIP3    H153485   5.925   3.917   1.774 -0.1502  0.0230 -1.6152
10690TIP3    H253486   5.989   3.791   1.720  0.1090 -0.5087 -0.0987
10691TIP3   OH253487   4.740   0.765  11.727 -0.4785  0.0491 -0.3735
10691TIP3    H153488   4.828   0.743  11.696 -0.5671 -0.7844 -0.0244
10691TIP3    H253489   4.706   0.826  11.661  0.3398  0.3265 -0.5363
10692TIP3   OH253490   6.697   6.277  14.076 -0.0595 -0.2173 -0.0236
10692TIP3    H153491   6.785   6.314  14.075 -0.6871  1.3263  0.4991
10692TIP3    H253492   6.700   6.209  14.143  0.7055 -0.1062  0.0577
10693TIP3   OH253493   0.520   3.797   0.712  0.3501 -0.6739  0.1452
10693TIP3    H153494   0.425   3.785   0.716  0.2856  0.0028  0.8937
10693TIP3    H253495   0.544   3.771   0.623 -0.3982 -1.7773  0.2514
10694TIP3   OH253496   4.152   2.664   1.644  0.1936 -0.1112 -0.3637
10694TIP3    H153497   4.096   2.727   1.689 -0.3778  0.3298 -1.6508
10694TIP3    H253498   4.239   2.703   1.644 -0.1439  0.6696 -1.0918
10695TIP3   OH253499   1.497   3.691  17.157 -0.0430 -0.1353  0.4983
10695TIP3    H153500   1.409   3.683  17.121  0.0320  0.9624  0.0636
10695TIP3    H253501   1.553   3.704  17.080  0.4318 -0.2524  0.8222
10696TIP3   OH253502   3.785   5.967  16.997  0.2130  0.2389 -0.2934
10696TIP3    H153503   3.779   6.059  16.971 -1.8706  0.9810  2.5218
10696TIP3    H253504   3.696   5.945  17.026  0.8629 -2.4521 -0.2583
10697TIP3   OH253505   5.074   1.915  11.203 -0.1434 -0.7022 -0.2821
10697TIP3    H153506   5.013   1.978  11.165 -0.3603 -0.3214  0.6903
10697TIP3    H253507   5.080   1.939  11.295 -1.7173 -3.2444  0.5475
10698TIP3   OH253508   1.484   6.283  16.919  0.0132 -0.6796 -0.5002
10698TIP3    H153509   1.575   6.311  16.911  0.0291 -1.2802 -2.5673
10698TIP3    H253510   1.435   6.344  16.863 -0.5400 -1.8634 -1.3194
10699TIP3   OH253511   4.779   1.715  12.228  0.1594  0.3293 -0.0675
10699TIP3    H153512   4.838   1.789  12.248 -0.3462  0.6726  0.1536
10699TIP3    H253513   4.751   1.684  12.314 -0.2199  0.3547 -0.1851
10700TIP3   OH253514   5.152   5.438   6.141 -0.4974  0.4516  0.0770
10700TIP3    H153515   5.244   5.429   6.114 -0.0649 -0.5241  1.8174
10700TIP3    H253516   5.103   5.394   6.072  0.5026 -0.8702  0.1839
10701TIP3   OH253517   0.853   0.905   5.362 -0.2385  0.2213 -0.2481
10701TIP3    H153518   0.887   0.890   5.450 -1.0581 -1.5848 -0.2241
10701TIP3    H253519   0.763   0.934   5.376 -0.1825  0.5047 -0.4743
10702TIP3   OH253520   2.855   1.732   3.084  0.1859 -0.0735  0.6082
10702TIP3    H153521   2.925   1.789   3.053  0.9811 -1.6876 -0.6271
10702TIP3    H253522   2.900   1.659   3.126 -0.8028 -0.2075  1.4544
10703TIP3   OH253523   6.382   5.431   1.922  0.1609  0.1080 -0.1722
10703TIP3    H153524   6.335   5.410   1.841 -2.1017  0.7817  0.8971
10703TIP3    H253525   6.371   5.354   1.977 -0.4278  0.5791  0.3871
10704TIP3   OH253526   3.484   1.925   3.229 -0.1780 -0.5271 -0.1256
10704TIP3    H153527   3.539   2.004   3.227  1.0996 -1.2768  2.6556
10704TIP3    H253528   3.405   1.953   3.275 -0.5850 -0.3811 -0.9044
10705TIP3   OH253529   4.685   1.897  12.565 -0.5826 -0.0659  0.2186
10705TIP3    H153530   4.620   1.846  12.613 -0.6024 -1.3409 -1.1141
10705TIP3    H253531   4.768   1.851  12.582 -0.5564 -0.3861 -0.7567
10706TIP3   OH253532   1.874   0.405   1.932  0.0441 -0.6564  0.6215
10706TIP3    H153533   1.879   0.337   1.865  1.4036 -1.5817  1.6512
10706TIP3    H253534   1.785   0.399   1.966 -0.0480 -1.4872  0.2449
10707TIP3   OH253535   1.367   6.093  12.304 -0.0945 -0.0364 -0.0470
10707TIP3    H153536   1.287   6.139  12.330  0.3832  1.5261 -1.3267
10707TIP3    H253537   1.385   6.123  12.216  0.3912 -2.4891 -0.8327
10708TIP3   OH253538   5.815   1.702  14.056  0.1904  0.4695  0.2334
10708TIP3    H153539   5.766   1.686  13.975 -1.8986  1.0259  1.3314
10708TIP3    H253540   5.747   1.715  14.122  1.8612 -0.3247  2.1551
10709TIP3   OH253541   1.328   2.219  13.392  0.4635 -0.0021 -0.4725
10709TIP3    H153542   1.417   2.187  13.403  0.7483  0.0609 -2.3147
10709TIP3    H253543   1.286   2.152  13.337 -0.9956 -0.6501  1.3946
10710TIP3   OH253544   5.829   6.278  12.292  0.0199 -0.4738  0.1721
10710TIP3    H153545   5.767   6.211  12.262  1.7073 -1.9609 -0.0382
10710TIP3    H253546   5.829   6.344  12.223 -0.9728 -0.6793 -0.0362
10711TIP3   OH253547   5.438   1.235   1.719 -0.0539  0.5808 -0.3509
10711TIP3    H153548   5.394   1.165   1.670 -0.5394  0.6467 -0.0018
10711TIP3    H253549   5.503   1.189   1.772 -1.3219  0.2538  0.9363
10712TIP3   OH253550   1.156   3.737   6.575 -0.1795  0.2649 -0.0475
10712TIP3    H153551   1.236   3.708   6.531 -0.1931  1.0547 -0.5979
10712TIP3    H253552   1.086   3.708   6.518 -0.2084  1.0828 -0.4287
10713TIP3   OH253553   5.722   0.751   2.996  0.4759 -0.2913  0.1376
10713TIP3    H153554   5.634   0.780   3.021  0.2918  1.2671 -2.1423
10713TIP3    H253555   5.763   0.726   3.079 -1.6155  0.3581  1.4150
10714TIP3   OH253556   2.424   1.119   0.943  0.0329 -0.0129  0.4591
10714TIP3    H153557   2.380   1.201   0.923  1.1329  0.5933  0.4517
10714TIP3    H253558   2.506   1.124   0.893  0.6883 -0.5516  1.4715
10715TIP3   OH253559   2.553   1.592  16.354  0.2279 -0.0839  0.5406
10715TIP3    H153560   2.567   1.544  16.273 -1.7197 -0.0620  0.1729
10715TIP3    H253561   2.519   1.527  16.416 -0.6477  0.4003  0.5902
10716TIP3   OH253562   3.058   1.418   4.030 -0.2786 -0.1509  0.0268
10716TIP3    H153563   3.106   1.417   4.113  1.3463 -0.1390 -0.9020
10716TIP3    H253564   2.991   1.486   4.043  0.5849  0.5398  0.9935
10717TIP3   OH253565   5.918   1.245   1.987  0.6104  0.6352 -0.1777
10717TIP3    H153566   5.912   1.208   2.075  1.3556  0.8735 -0.0308
10717TIP3    H253567   5.853   1.315   1.986  0.2960  0.3493  0.0445
10718TIP3   OH253568   3.678   2.999   4.781  0.3109 -0.2188 -0.1581
10718TIP3    H153569   3.748   3.016   4.844  2.8269 -3.0400 -2.0374
10718TIP3    H253570   3.688   3.068   4.715 -0.1219  0.6812  0.7012
10719TIP3   OH253571   6.384   2.727   4.004 -0.2527 -0.2199 -0.1894
10719TIP3    H153572   6.322   2.720   4.076 -1.5085 -0.1730 -1.2600
10719TIP3    H253573   6.396   2.637   3.973 -0.1839 -0.1682 -0.3167
10720TIP3   OH253574   0.276   2.001   1.748  0.0916 -0.2412  0.1836
10720TIP3    H153575   0.367   1.972   1.742  0.6588  1.6117 -0.3426
10720TIP3    H253576   0.229   1.925   1.783  1.9955 -0.8906  1.4030
10721TIP3   OH253577   4.464   2.451  13.856  0.4139 -0.2498 -0.2691
10721TIP3    H153578   4.507   2.466  13.772  0.3237  4.0675  0.3519
10721TIP3    H253579   4.531   2.472  13.921 -0.4859 -0.5110  0.7479
10722TIP3   OH253580   3.302   1.922  13.032  0.5780 -0.4319 -0.5148
10722TIP3    H153581   3.381   1.919  13.086  1.6210  0.9391 -1.9104
10722TIP3    H253582   3.241   1.977  13.081 -0.3356 -3.2037  1.5702
10723TIP3   OH253583   5.220   5.994   1.746 -0.4597  0.2113 -0.0150
10723TIP3    H153584   5.220   6.006   1.841  0.9170 -1.5171  0.2257
10723TIP3    H253585   5.265   6.071   1.713 -0.9460  0.8285  0.7229
10724TIP3   OH253586   1.333   5.122  12.584  0.2659  0.0372 -0.0882
10724TIP3    H153587   1.264   5.144  12.521 -1.5337  0.0437  1.8196
10724TIP3    H253588   1.323   5.187  12.654  0.2410 -1.8060  1.6595
10725TIP3   OH253589   3.511   1.096  15.288  0.8567 -0.3729 -0.6268
10725TIP3    H153590   3.463   1.034  15.343 -1.3077  0.1717 -1.8410
10725TIP3    H253591   3.601   1.090  15.318  0.1094 -1.7445  1.4384
10726TIP3   OH253592   6.476   4.635  14.597 -0.2708 -0.6193  0.0514
10726TIP3    H153593   6.518   4.712  14.636  1.7586 -1.5397 -0.2600
10726TIP3    H253594   6.391   4.667  14.567 -0.0742  1.1444  1.2743
10727TIP3   OH253595   5.266   1.570   2.153 -0.4245  0.1092  0.2895
10727TIP3    H153596   5.268   1.498   2.090  0.0623  0.6996 -0.3768
10727TIP3    H253597   5.216   1.639   2.109  0.0988  0.6027  0.4521
10728TIP3   OH253598   3.965   1.548  11.595 -0.2586  0.2456  0.6563
10728TIP3    H153599   3.993   1.506  11.676  3.4639  1.3300 -0.0082
10728TIP3    H253600   3.968   1.479  11.530  1.3275  0.4482  0.5069
10729TIP3   OH253601   2.589   5.762   5.613  0.1088  0.2841  0.5064
10729TIP3    H153602   2.547   5.839   5.652 -0.5515  0.3915 -0.4065
10729TIP3    H253603   2.553   5.688   5.662  1.3441  0.5977  1.9156
10730TIP3   OH253604   3.916   4.683  14.849 -0.4597  0.3043  0.1932
10730TIP3    H153605   3.859   4.625  14.799  0.9070  1.3068 -2.6666
10730TIP3    H253606   3.864   4.763  14.861 -0.9715 -0.1189  0.8233
10731TIP3   OH253607   5.816   6.068  14.961  0.2716  0.0355 -0.3146
10731TIP3    H153608   5.756   6.127  15.006 -0.4554 -1.2315  0.4271
10731TIP3    H253609   5.775   6.053  14.875 -0.4143 -0.7228  0.1391
10732TIP3   OH253610   5.999   1.259  16.031 -0.2792 -0.0450  0.0306
10732TIP3    H153611   5.970   1.169  16.019  0.7677 -0.6615  1.9118
10732TIP3    H253612   6.046   1.259  16.114 -2.4026  2.7648  1.3194
10733TIP3   OH253613   2.518   0.490   0.611 -0.2456 -0.1254  0.6081
10733TIP3    H153614   2.564   0.495   0.527 -0.6189  0.2722  0.4316
10733TIP3    H253615   2.474   0.405   0.610 -0.6538  0.0921  0.1971
10734TIP3   OH253616   5.265   0.523  15.977  0.2629  0.3161 -0.1451
10734TIP3    H153617   5.197   0.590  15.986  1.4721  1.5941 -0.3894
10734TIP3    H253618   5.332   0.548  16.041  1.4593  0.2670 -1.3612
10735TIP3   OH253619   6.724   6.118  16.193 -0.5023  0.1615  0.4271
10735TIP3    H153620   6.760   6.128  16.105  2.1100 -1.3818  1.2720
10735TIP3    H253621   6.630   6.129  16.182 -0.0972  1.1209 -2.3698
10736TIP3   OH253622   5.420   2.484   1.648  0.6094  0.2491  0.3364
10736TIP3    H153623   5.387   2.413   1.594  2.0797 -0.7049  0.6663
10736TIP3    H253624   5.377   2.563   1.614 -1.1161 -0.8015  0.0468
10737TIP3   OH253625   3.295   2.617   6.733  0.7943 -0.3513  0.1593
10737TIP3    H153626   3.292   2.663   6.649  0.3423  1.5533  1.1757
10737TIP3    H253627   3.386   2.625   6.761  0.5419  0.6621  0.7149
10738TIP3   OH253628   5.591   4.866   2.285 -0.3005  0.1938 -0.2995
10738TIP3    H153629   5.618   4.777   2.265 -0.3648  0.0551  0.2202
10738TIP3    H253630   5.657   4.898   2.347 -0.5371  0.3468 -0.1245
10739TIP3   OH253631   2.577   6.218   3.669 -0.1671  0.3412 -0.0568
10739TIP3    H153632   2.625   6.184   3.594 -0.4141 -0.4706  0.1537
10739TIP3    H253633   2.644   6.236   3.735  0.0508  1.0537 -0.4572
10740TIP3   OH253634   1.658   1.085  16.683 -0.4936  0.2132 -0.5311
10740TIP3    H153635   1.698   1.011  16.637 -2.8395 -0.2716 -1.8391
10740TIP3    H253636   1.731   1.126  16.730  1.0031 -2.3114 -0.5998
10741TIP3   OH253637   2.171   3.025  12.843 -0.0583  0.3986 -0.4428
10741TIP3    H153638   2.148   2.967  12.915  1.7922 -0.2221 -0.3138
10741TIP3    H253639   2.121   2.993  12.768 -1.1634  0.3730  0.3100
10742TIP3   OH253640   4.857   6.182  16.400  0.2248  0.2659  0.2991
10742TIP3    H153641   4.888   6.093  16.383 -1.0208 -0.2746  0.8613
10742TIP3    H253642   4.853   6.223  16.313  0.2477 -0.4045 -0.0195
10743TIP3   OH253643   0.553   0.658   3.805 -0.4824  0.3859 -0.0044
10743TIP3    H153644   0.630   0.651   3.861 -2.1786 -0.3632  2.3408
10743TIP3    H253645   0.587   0.686   3.720  2.2079  1.2316  1.2996
10744TIP3   OH253646   6.711   0.989   1.179 -0.4825 -0.6437  0.5508
10744TIP3    H153647   6.763   0.977   1.100  1.3695  0.1371  1.6131
10744TIP3    H253648   6.737   0.916   1.236 -0.5674 -0.2833  1.0606
10745TIP3   OH253649   5.575   3.309  14.130  0.7605 -0.3187 -0.1406
10745TIP3    H153650   5.576   3.400  14.101  2.5702 -0.3265 -0.1632
10745TIP3    H253651   5.492   3.300  14.178 -0.5492  0.6707 -2.1510
10746TIP3   OH253652   1.310   0.100  13.785 -0.0778  0.1471 -0.5203
10746TIP3    H153653   1.273   0.181  13.820  0.9472 -0.2368  1.5322
10746TIP3    H253654   1.234   0.047  13.760 -0.8296  0.6687  0.6330
10747TIP3   OH253655   0.518   2.771  15.275  0.1105 -0.1338  0.0697
10747TIP3    H153656   0.502   2.679  15.296  2.1574 -0.4383  0.4552
10747TIP3    H253657   0.524   2.815  15.360 -2.7060  0.7406 -0.1260
10748TIP3   OH253658   1.048   6.505  15.989  0.6909 -0.3933 -0.8493
10748TIP3    H153659   1.098   6.547  16.059  1.1698 -0.5950 -1.0684
10748TIP3    H253660   1.073   6.413  15.994 -0.4016 -0.6700 -0.3363
10749TIP3   OH253661   5.186   5.305  11.941 -0.3698  0.2669  0.8471
10749TIP3    H153662   5.264   5.347  11.904 -1.1908  1.0787  0.0028
10749TIP3    H253663   5.219   5.253  12.014  0.9231  0.8401  0.6857
10750TIP3   OH253664   1.239   4.166   3.908 -0.5843  0.1204 -0.1614
10750TIP3    H153665   1.178   4.174   3.835 -0.1262  1.6072 -0.3984
10750TIP3    H253666   1.184   4.177   3.986 -0.7762  0.3979 -0.3367
10751TIP3   OH253667   5.466   2.374  12.431  0.5662 -0.1061 -0.6641
10751TIP3    H153668   5.453   2.454  12.381  0.9464 -0.4102 -1.2658
10751TIP3    H253669   5.400   2.377  12.500  0.4133  0.5985 -0.8366
10752TIP3   OH253670   4.552   1.680  16.350 -0.4168 -0.1173  0.1160
10752TIP3    H153671   4.476   1.653  16.401 -1.8510  1.3481 -1.2265
10752TIP3    H253672   4.537   1.642  16.263  1.5751 -1.8487  0.4754
10753TIP3   OH253673   4.250   3.700   6.619  0.1203 -0.1719 -0.4657
10753TIP3    H153674   4.325   3.759   6.627 -0.0701  0.1670 -1.1594
10753TIP3    H253675   4.182   3.739   6.675  0.0249  0.2145 -0.8515
10754TIP3   OH253676   3.470   4.516  12.562  0.8374 -0.0073 -0.5072
10754TIP3    H153677   3.408   4.553  12.499  0.9943 -0.0942 -0.7121
10754TIP3    H253678   3.509   4.442  12.517  1.4680  0.3535 -0.5589
10755TIP3   OH253679   3.930   4.526  11.755  0.3515  0.4040  0.1491
10755TIP3    H153680   3.843   4.562  11.738  0.1903 -0.1953 -0.3519
10755TIP3    H253681   3.913   4.434  11.776  0.8115  0.4499  0.7275
10756TIP3   OH253682   1.602   1.322  14.009 -0.3102 -0.1280  0.4827
10756TIP3    H153683   1.558   1.254  14.062 -0.3104  0.4362  1.2170
10756TIP3    H253684   1.695   1.304  14.023 -0.3101 -0.1524  0.4500
10757TIP3   OH253685   4.873   3.366  13.554  1.1991 -0.2411  0.8223
10757TIP3    H153686   4.896   3.280  13.587 -0.6210 -0.6711  0.9940
10757TIP3    H253687   4.782   3.358  13.526  1.4822  1.1928 -0.6113
10758TIP3   OH253688   2.234   0.328  14.068  0.2347 -0.3803 -0.5424
10758TIP3    H153689   2.311   0.274  14.052  0.6071 -0.2526  0.7402
10758TIP3    H253690   2.179   0.275  14.126  1.0353  0.9611  1.4977
10759TIP3   OH253691   4.925   6.471  11.415  0.3684  0.0213 -0.0696
10759TIP3    H153692   4.995   6.474  11.480 -0.4352 -1.7011  0.9026
10759TIP3    H253693   4.896   6.562  11.407  0.1968  0.1796  2.2745
10760TIP3   OH253694   4.795   2.616  16.179  0.5015 -0.2018 -0.1972
10760TIP3    H153695   4.725   2.636  16.241  1.4735  0.6623  0.6498
10760TIP3    H253696   4.815   2.700  16.137  2.4253 -0.0076  1.0576
10761TIP3   OH253697   4.548   3.797  16.410 -0.3117  0.7125 -0.0835
10761TIP3    H153698   4.640   3.780  16.391 -0.0088  1.5775  0.5222
10761TIP3    H253699   4.517   3.719  16.456  0.3696  0.7877  0.5001
10762TIP3   OH253700   0.319   1.849   3.686 -0.2907  0.2545  0.4143
10762TIP3    H153701   0.387   1.907   3.722  0.1342  2.1418 -3.2216
10762TIP3    H253702   0.239   1.901   3.691 -0.7141 -0.4268  0.8688
10763TIP3   OH253703   6.031   4.981   1.541  0.2777  0.5393 -0.1829
10763TIP3    H153704   5.997   4.905   1.494  0.2814  1.6912 -2.1125
10763TIP3    H253705   5.955   5.038   1.553  0.5798  0.9446 -0.1773
10764TIP3   OH253706   5.213   0.097   0.139  0.5099  0.9168  0.2131
10764TIP3    H153707   5.119   0.111   0.148  0.1131  0.0952 -2.2612
10764TIP3    H253708   5.222   0.046   0.058  2.9948 -0.0009  1.0315
10765TIP3   OH253709   2.760   4.412   5.140  0.5939 -0.0135  0.0630
10765TIP3    H153710   2.815   4.382   5.212  1.0104 -0.3981 -0.4124
10765TIP3    H253711   2.756   4.507   5.150 -1.3866 -0.2476  2.0578
10766TIP3   OH253712   1.554   2.112   4.274  0.8006 -0.0213 -0.1865
10766TIP3    H153713   1.566   2.095   4.181 -0.0621  1.4158 -0.5788
10766TIP3    H253714   1.592   2.199   4.288 -1.0836  0.7478  0.3236
10767TIP3   OH253715   4.428   6.226  16.806 -0.1921 -0.2230  0.6638
10767TIP3    H153716   4.398   6.309  16.843 -0.0305  1.3310 -2.5325
10767TIP3    H253717   4.513   6.211  16.848 -0.3861  1.0170  1.5308
10768TIP3   OH253718   2.611   3.967   1.801 -0.4227 -0.1742  0.1928
10768TIP3    H153719   2.659   3.931   1.727 -1.0626  0.1096 -0.3700
10768TIP3    H253720   2.528   3.997   1.764 -0.3223  0.9272  0.8439
10769TIP3   OH253721   6.166   2.445  11.111 -0.0431 -0.0117 -0.0137
10769TIP3    H153722   6.194   2.354  11.115 -1.8360 -0.6668 -1.4409
10769TIP3    H253723   6.244   2.493  11.083  0.4566 -1.3691 -1.0197
10770TIP3   OH253724   4.273   2.549  17.026  0.2611 -0.0142  0.4019
10770TIP3    H153725   4.318   2.615  16.972 -0.1540  0.2762  0.4078
10770TIP3    H253726   4.338   2.480  17.038  1.0402  0.8609  1.2615
10771TIP3   OH253727   0.113   1.919   5.471  0.1109  0.7009 -0.0808
10771TIP3    H153728   0.033   1.930   5.419 -0.1910  1.0113  0.4394
10771TIP3    H253729   0.093   1.846   5.529  0.9590 -0.5603 -1.3549
10772TIP3   OH253730   1.076   3.410  13.649 -0.6292  0.4327 -0.3280
10772TIP3    H153731   1.124   3.462  13.585 -0.5762 -0.5692 -1.1165
10772TIP3    H253732   1.140   3.390  13.717 -0.0023 -0.6037 -1.2042
10773TIP3   OH253733   5.032   2.229   4.353 -0.1073  0.5859  0.1180
10773TIP3    H153734   4.984   2.148   4.336 -0.9046  0.8896  0.8936
10773TIP3    H253735   5.108   2.224   4.295  0.9194 -1.6562  1.5744
10774TIP3   OH253736   6.456   2.282  16.179  0.0173 -0.2456  0.1272
10774TIP3    H153737   6.471   2.294  16.085 -1.4361  0.6828  0.0024
10774TIP3    H253738   6.365   2.253  16.185  0.1184 -0.3473  1.2575
10775TIP3   OH253739   1.293   0.787   0.229 -0.0953 -0.7251  0.3519
10775TIP3    H153740   1.278   0.873   0.268 -0.1962 -0.7392  0.3450
10775TIP3    H253741   1.387   0.785   0.210 -0.4799  0.3366 -1.8625
10776TIP3   OH253742   5.071   3.442   5.077  0.1462 -0.1553 -0.2962
10776TIP3    H153743   5.006   3.493   5.030  1.1957  0.2526 -1.3294
10776TIP3    H253744   5.041   3.442   5.168 -1.1993  0.1558 -0.7319
10777TIP3   OH253745   4.791   3.332  16.993 -0.2099 -0.0175 -0.0453
10777TIP3    H153746   4.853   3.346  16.922 -0.4665  4.9055  0.5701
10777TIP3    H253747   4.705   3.341  16.952 -0.4324 -0.2622  0.3576
10778TIP3   OH253748   1.459   5.407  16.261  0.2189 -0.0307  0.1955
10778TIP3    H153749   1.542   5.376  16.296 -0.4355 -1.3842  0.5996
10778TIP3    H253750   1.481   5.446  16.176  1.1413 -1.1707 -0.1027
10779TIP3   OH253751   2.570   4.639  11.617 -0.4078 -0.1796  0.6846
10779TIP3    H153752   2.650   4.674  11.658 -1.3393  1.1234  1.4168
10779TIP3    H253753   2.547   4.703  11.550  0.1071 -1.4190 -0.7126
10780TIP3   OH253754   1.246   6.455   2.189  0.0485  0.1960 -0.4212
10780TIP3    H153755   1.204   6.377   2.227 -0.1110 -0.2797 -1.5497
10780TIP3    H253756   1.239   6.442   2.094 -1.1415  2.2196 -0.6270
10781TIP3   OH253757   5.745   0.807   0.003 -0.9771  0.0573 -0.5469
10781TIP3    H153758   5.770   0.717   0.025  0.4093  0.6321  0.3197
10781TIP3    H253759   5.653   0.813   0.029 -0.3191 -0.3058  2.0686
10782TIP3   OH253760   0.858   0.577  13.679 -0.3542 -0.0763  0.3080
10782TIP3    H153761   0.853   0.670  13.699 -0.8765 -0.4487  1.9549
10782TIP3    H253762   0.779   0.539  13.718 -0.7993 -1.0169 -1.4544
10783TIP3   OH253763   2.628   3.533  11.459  0.0445  0.4312  0.1465
10783TIP3    H153764   2.559   3.558  11.398 -0.9931 -0.9809  0.7041
10783TIP3    H253765   2.691   3.606  11.456 -1.4828  1.7540 -0.3448
10784TIP3   OH253766   2.267   4.445   4.299  0.6414  0.5233  0.0743
10784TIP3    H153767   2.247   4.398   4.380  0.9209 -1.2026 -0.8261
10784TIP3    H253768   2.199   4.416   4.237  0.6260  1.5625 -0.4039
10785TIP3   OH253769   0.076   6.164  16.410 -0.2153 -0.2738  0.0110
10785TIP3    H153770   0.019   6.199  16.479 -1.1952 -1.7606 -0.0011
10785TIP3    H253771   0.016   6.132  16.344  0.7196  0.5846 -1.2711
10786TIP3   OH253772   3.132   6.046   2.094  0.7289  0.0243  0.4856
10786TIP3    H153773   3.206   6.098   2.062  1.2093 -0.8133  0.2270
10786TIP3    H253774   3.172   5.968   2.132 -0.0596 -0.8965 -0.5346
10787TIP3   OH253775   2.713   2.038  16.781 -0.0912 -0.3409  0.6682
10787TIP3    H153776   2.672   2.122  16.801 -1.3646 -1.0060  0.9013
10787TIP3    H253777   2.756   2.012  16.862  1.2468  0.5972  0.2793
10788TIP3   OH253778   2.784   0.565   5.008  0.2521  0.0559 -0.1612
10788TIP3    H153779   2.706   0.519   4.977 -0.4818 -0.1622  1.9179
10788TIP3    H253780   2.818   0.611   4.931 -3.6929  2.7174 -0.4295
10789TIP3   OH253781   4.028   2.143   4.422 -0.2621  0.3582 -0.4844
10789TIP3    H153782   4.035   2.239   4.428 -0.6363  0.3544 -0.0140
10789TIP3    H253783   4.113   2.111   4.449 -1.2400  0.4143  2.8088
10790TIP3   OH253784   2.908   4.806  15.063  0.0225 -0.4981 -0.2410
10790TIP3    H153785   2.961   4.877  15.100 -0.5270 -0.8052  1.1599
10790TIP3    H253786   2.857   4.849  14.994 -1.2540  0.7825  1.4309
10791TIP3   OH253787   0.646   6.319   2.389 -0.3272  0.4048 -0.3299
10791TIP3    H153788   0.647   6.357   2.301 -0.0497  0.7022 -0.1999
10791TIP3    H253789   0.556   6.334   2.420  0.8962  5.2063  1.5123
10792TIP3   OH253790   4.487   1.828  13.218 -0.8188  0.1047  0.0294
10792TIP3    H153791   4.430   1.894  13.257  0.4659  0.4674  1.3328
10792TIP3    H253792   4.575   1.865  13.225 -0.0725 -1.7796  0.8737
10793TIP3   OH253793   3.901   3.874   1.921  0.3450  0.5951  0.3097
10793TIP3    H153794   3.839   3.809   1.954  0.3758  0.5699  0.3189
10793TIP3    H253795   3.968   3.879   1.989  1.0628 -0.3717 -0.3057
10794TIP3   OH253796   5.899   0.591   5.512 -0.3445 -1.0548  0.1261
10794TIP3    H153797   5.846   0.548   5.578 -0.6994 -0.3870  0.2864
10794TIP3    H253798   5.864   0.561   5.428 -1.1728 -0.3896  0.2303
10795TIP3   OH253799   4.150   4.272   2.098  0.0136 -0.0549 -0.2735
10795TIP3    H153800   4.230   4.234   2.062 -0.0275 -1.3069  0.9220
10795TIP3    H253801   4.128   4.217   2.173 -4.0150 -2.0537 -2.7215
10796TIP3   OH253802   1.645   4.237   0.354 -0.1377  0.2254 -1.1780
10796TIP3    H153803   1.615   4.158   0.399  2.9832 -0.1443  0.3776
10796TIP3    H253804   1.608   4.309   0.405  0.0931 -0.2153 -0.3852
10797TIP3   OH253805   6.502   4.700  14.276 -0.4988 -0.4531 -0.1058
10797TIP3    H153806   6.465   4.784  14.304 -1.4876 -0.8252 -0.2882
10797TIP3    H253807   6.500   4.645  14.355 -1.9229 -1.0256 -0.5327
10798TIP3   OH253808   3.420   1.809   4.122 -0.2364  0.8220 -0.0061
10798TIP3    H153809   3.514   1.800   4.136 -0.9052 -2.0897  3.4216
10798TIP3    H253810   3.399   1.742   4.056 -0.0491  0.6486  0.1094
10799TIP3   OH253811   4.328   2.289  12.073 -0.1637  0.8078  0.0374
10799TIP3    H153812   4.390   2.228  12.032 -0.5313  2.5144 -3.2360
10799TIP3    H253813   4.296   2.242  12.150  0.8731 -2.4622 -1.4118
10800TIP3   OH253814   0.915   1.969  15.812  0.4522  0.6136  0.4970
10800TIP3    H153815   0.912   1.997  15.904 -0.3874 -1.3748  1.0900
10800TIP3    H253816   0.824   1.972  15.783  0.3698 -1.2255  0.5065
10801TIP3   OH253817   6.730   0.092   5.863 -0.7441 -0.2369 -0.1402
10801TIP3    H153818   6.713   0.073   5.771  0.9029  1.3575 -0.7981
10801TIP3    H253819   6.726   0.006   5.906 -1.9878 -0.9288 -1.5999
10802TIP3   OH253820   6.554   4.057   5.184 -0.1927 -0.3645  0.0876
10802TIP3    H153821   6.582   4.011   5.263  0.8414  0.0722 -0.0233
10802TIP3    H253822   6.582   4.000   5.112 -0.7652 -0.5605  0.0153
10803TIP3   OH253823   3.223   2.542   3.194 -0.0875 -0.1635 -0.7046
10803TIP3    H153824   3.185   2.562   3.280  2.1024 -1.1748  0.5655
10803TIP3    H253825   3.195   2.452   3.176  0.8737 -0.5821 -0.1916
10804TIP3   OH253826   4.317   4.572  13.915  0.0936 -0.0682 -0.4574
10804TIP3    H153827   4.270   4.641  13.867 -0.2841  0.7014  1.0079
10804TIP3    H253828   4.284   4.578  14.004  1.3599 -0.9870  0.0847
10805TIP3   OH253829   2.901   2.203  14.557  0.1756 -0.5377 -0.0000
10805TIP3    H153830   2.818   2.164  14.530 -1.2095  1.5546  1.0835
10805TIP3    H253831   2.887   2.297  14.546  2.7399 -0.2031 -0.6734
10806TIP3   OH253832   6.650   2.766  15.439  0.2606 -0.3439  0.4602
10806TIP3    H153833   6.683   2.770  15.528  0.0102  0.9761  0.4933
10806TIP3    H253834   6.673   2.678  15.409  2.5001  0.0407  0.9771
10807TIP3   OH253835   3.077   4.632  15.637  0.2674 -0.2663  0.1711
10807TIP3    H153836   3.159   4.583  15.647 -0.3650 -1.4902 -0.5935
10807TIP3    H253837   3.047   4.647  15.727  0.2970 -1.5750  0.4021
10808TIP3   OH253838   4.350   2.254  14.024 -0.4869 -0.0021  0.8646
10808TIP3    H153839   4.417   2.193  14.054  0.3288 -0.1307 -1.1337
10808TIP3    H253840   4.399   2.331  13.995 -1.1969 -0.0465 -0.5009
10809TIP3   OH253841   1.078   2.970  13.171 -0.1810  0.1039  0.5271
10809TIP3    H153842   1.025   2.910  13.223 -0.4898 -0.2916 -0.2376
10809TIP3    H253843   1.060   3.056  13.209 -0.7444 -0.1273  0.7904
10810TIP3   OH253844   0.509   2.523   2.076 -0.3512 -0.5106 -0.2780
10810TIP3    H153845   0.548   2.563   2.153 -0.3597  1.3393 -1.2112
10810TIP3    H253846   0.424   2.490   2.107 -0.6935  0.8994  0.3333
10811TIP3   OH253847   3.652   6.682   2.558 -0.3312  0.4458  0.5193
10811TIP3    H153848   3.734   6.668   2.605 -0.1461  1.0071  0.3673
10811TIP3    H253849   3.678   6.698   2.467 -0.6345  0.1979  0.3871
10812TIP3   OH253850   2.898   5.914  11.624  0.6773 -0.3568  0.2047
10812TIP3    H153851   2.928   5.826  11.599 -0.7216 -0.5079 -1.0287
10812TIP3    H253852   2.968   5.972  11.597  0.7223 -0.8927 -0.8459
10813TIP3   OH253853   2.445   5.916   1.329 -0.2472 -0.1957 -0.2244
10813TIP3    H153854   2.522   5.942   1.279 -0.2386  0.2713  0.0264
10813TIP3    H253855   2.398   5.855   1.272  1.4372 -2.1854  0.4619
10814TIP3   OH253856   2.615   6.176  13.147  0.2829 -0.1185 -0.0905
10814TIP3    H153857   2.584   6.118  13.078  1.4053  0.2610 -0.9191
10814TIP3    H253858   2.597   6.129  13.228 -1.2760 -0.4560 -0.6174
10815TIP3   OH253859   6.324   1.843   1.100 -0.3962  0.2021  0.0883
10815TIP3    H153860   6.266   1.847   1.176 -1.0436 -0.5542 -0.3512
10815TIP3    H253861   6.412   1.834   1.136 -0.7511 -0.6726  0.7358
10816TIP3   OH253862   6.146   4.735   0.981 -0.1410  0.2424  0.3782
10816TIP3    H153863   6.174   4.654   0.940 -1.1042  0.6213 -1.0973
10816TIP3    H253864   6.068   4.761   0.931 -1.2501  0.8208  2.3542
10817TIP3   OH253865   1.882   5.541  14.643 -0.8443  0.1834  0.2785
10817TIP3    H153866   1.914   5.626  14.613  0.1275 -0.3099 -0.1236
10817TIP3    H253867   1.961   5.497  14.676 -1.3775 -0.4732  0.6754
10818TIP3   OH253868   1.736   2.753   4.321  0.0721  0.2190 -0.2785
10818TIP3    H153869   1.811   2.812   4.329 -0.2298  0.5271  0.4262
10818TIP3    H253870   1.704   2.766   4.232  0.6091  0.3912 -0.4462
10819TIP3   OH253871   0.308   0.679  15.950  0.3648  0.4820  0.3542
10819TIP3    H153872   0.213   0.674  15.957  0.3119 -0.3961 -0.8024
10819TIP3    H253873   0.324   0.701  15.858  1.3058 -0.9694  0.1602
10820TIP3   OH253874   0.763   5.269   1.653 -0.0468  0.4969 -0.1111
10820TIP3    H153875   0.741   5.201   1.589 -1.4111  1.3005 -0.5203
10820TIP3    H253876   0.797   5.342   1.601 -0.4821  0.8838  0.1420
10821TIP3   OH253877   5.544   5.548  13.994 -0.4026  0.6080  0.0895
10821TIP3    H153878   5.543   5.506  13.907  3.6828  1.0048 -0.2258
10821TIP3    H253879   5.454   5.539  14.025 -1.7083 -0.5686 -3.6976
10822TIP3   OH253880   4.532   6.396  15.036 -0.1594  0.1526 -0.0664
10822TIP3    H153881   4.560   6.409  15.126  2.2146 -1.2438 -0.5643
10822TIP3    H253882   4.476   6.471  15.017  0.3911  1.1487  2.1340
10823TIP3   OH253883   1.595   1.827  13.270 -0.5273 -0.4208  0.5478
10823TIP3    H153884   1.683   1.792  13.256 -1.6347 -2.4903 -1.6901
10823TIP3    H253885   1.575   1.805  13.361  0.3975 -2.0411  0.3870
10824TIP3   OH253886   4.874   0.326  15.085  0.3245  0.0709 -0.8566
10824TIP3    H153887   4.880   0.409  15.132 -1.7868  1.0625 -2.2865
10824TIP3    H253888   4.965   0.299  15.073  0.9585  0.1387  3.1053
10825TIP3   OH253889   5.227   2.297   5.792 -0.4593 -0.0942  0.0547
10825TIP3    H153890   5.148   2.307   5.739 -0.1770  0.9272 -0.1913
10825TIP3    H253891   5.196   2.298   5.882 -0.5937  1.7849  0.0026
10826TIP3   OH253892   2.372   1.235   3.317  0.9133  0.3534  0.4787
10826TIP3    H153893   2.405   1.263   3.232  2.4034 -0.9201  0.6146
10826TIP3    H253894   2.362   1.317   3.366  2.4747  0.9060 -0.0818
10827TIP3   OH253895   1.032   5.250   2.655 -0.0404 -0.8112 -0.8230
10827TIP3    H153896   1.047   5.185   2.724 -0.8823  0.0628  0.2066
10827TIP3    H253897   1.085   5.325   2.682  0.1918 -0.7244 -1.5205
10828TIP3   OH253898   0.000   2.333  14.608  0.2710  0.1828  0.1664
10828TIP3    H153899   0.081   2.359  14.563 -2.3409  2.6133 -3.3346
10828TIP3    H253900  -0.030   2.255  14.561 -1.1278  1.2395 -0.7314
10829TIP3   OH253901   6.140   0.864  13.857  0.1443 -0.2793 -0.1768
10829TIP3    H153902   6.070   0.814  13.816  0.7531 -0.4515 -1.0253
10829TIP3    H253903   6.095   0.934  13.905 -0.6590 -1.0609  0.2195
10830TIP3   OH253904   3.669   1.397   0.279  0.2372  0.0245 -0.1574
10830TIP3    H153905   3.596   1.335   0.279  0.3599 -0.1186  0.8844
10830TIP3    H253906   3.628   1.483   0.270  0.0006 -0.1253 -0.5179
10831TIP3   OH253907   4.818   6.775   3.158  0.2796  0.0403  0.1545
10831TIP3    H153908   4.779   6.689   3.143  0.1856  0.1758 -0.3933
10831TIP3    H253909   4.906   6.757   3.192  0.6146 -0.2740 -0.8728
10832TIP3   OH253910   6.692   3.082  11.600 -0.0891  0.1737 -0.6318
10832TIP3    H153911   6.736   3.001  11.577  1.4910  0.5849  0.8066
10832TIP3    H253912   6.757   3.151  11.584 -0.7664  0.9592 -0.0813
10833TIP3   OH253913   6.169   0.330   0.190  0.1474  0.1614 -0.3058
10833TIP3    H153914   6.167   0.235   0.182  1.3991  0.2124 -1.4848
10833TIP3    H253915   6.112   0.350   0.264  0.2116 -1.5280  0.2081
10834TIP3   OH253916   2.940   0.837   3.626  0.3223  0.2138  0.3844
10834TIP3    H153917   2.854   0.843   3.584  0.6217  1.4007 -0.0824
10834TIP3    H253918   2.993   0.788   3.564 -0.5895 -2.4738  1.6531
10835TIP3   OH253919   1.189   1.877   4.466 -0.1450 -0.5370  0.4291
10835TIP3    H153920   1.116   1.899   4.524 -1.4035 -1.2493 -0.8536
10835TIP3    H253921   1.225   1.961   4.439 -1.2005 -0.1571  0.1943
10836TIP3   OH253922   1.850   5.711   2.498  0.6783  0.4102 -0.3058
10836TIP3    H153923   1.944   5.725   2.505  0.8687 -1.5476  1.8962
10836TIP3    H253924   1.811   5.772   2.560  0.6663 -0.3259  0.4187
10837TIP3   OH253925   0.220   3.057  11.896 -0.3880 -0.0232 -0.1152
10837TIP3    H153926   0.311   3.047  11.867  0.4819  3.9394  1.0432
10837TIP3    H253927   0.226   3.073  11.990 -2.3807 -0.6731  0.1507
10838TIP3   OH253928   6.548   0.421   5.771  0.3740 -0.3534 -0.4764
10838TIP3    H153929   6.614   0.443   5.705  0.1921  2.6974  0.3055
10838TIP3    H253930   6.587   0.447   5.854 -1.0174 -0.4021  0.2128
10839TIP3   OH253931   3.957   6.055  13.703 -0.2625  0.1061 -0.5987
10839TIP3    H153932   3.893   6.122  13.679  1.9546  2.3604 -0.3755
10839TIP3    H253933   3.967   6.063  13.798  1.6246  0.9918 -0.8430
10840TIP3   OH253934   4.371   3.216   0.629  0.1871  0.2926  0.5431
10840TIP3    H153935   4.330   3.129   0.634 -0.0681  0.5634  4.8756
10840TIP3    H253936   4.324   3.261   0.560 -0.6140 -2.5289 -0.8326
10841TIP3   OH253937   3.605   0.111  13.989  0.5634  0.4988 -0.4176
10841TIP3    H153938   3.579   0.196  13.953 -0.5578 -0.9692 -3.1370
10841TIP3    H253939   3.658   0.070  13.921 -0.2567 -1.6857  0.2101
10842TIP3   OH253940   3.711   6.287  10.612  0.2351  0.0970  0.0509
10842TIP3    H153941   3.773   6.359  10.616  0.2652  0.2693 -2.5362
10842TIP3    H253942   3.626   6.329  10.599  0.2225 -0.2922 -1.2186
10843TIP3   OH253943   0.910   0.785   4.727  0.6225 -0.1857 -0.2821
10843TIP3    H153944   0.852   0.848   4.682  0.6100 -0.4751 -0.6692
10843TIP3    H253945   0.854   0.710   4.745  1.0223 -0.7161 -1.1959
10844TIP3   OH253946   5.808   0.611  15.658 -0.4482 -0.1402  0.5062
10844TIP3    H153947   5.749   0.578  15.590  0.3984 -0.3458 -0.1328
10844TIP3    H253948   5.750   0.648  15.724 -1.3114 -0.6829  0.0587
10845TIP3   OH253949   2.624   2.798  15.210  0.2505 -0.0229 -0.3330
10845TIP3    H153950   2.601   2.714  15.251 -0.7586  1.2924  1.8688
10845TIP3    H253951   2.677   2.843  15.275  1.7291  0.6430 -1.9383
10846TIP3   OH253952   2.525   5.646   3.207  0.1795 -0.4082 -0.0761
10846TIP3    H153953   2.449   5.590   3.220 -0.1056  0.0068  0.0600
10846TIP3    H253954   2.596   5.602   3.254 -0.1131 -0.4969  0.2843
10847TIP3   OH253955   1.445   5.446   0.593 -0.2598 -0.4621 -0.1616
10847TIP3    H153956   1.509   5.494   0.542  0.0932 -0.3537  0.3825
10847TIP3    H253957   1.369   5.439   0.535 -0.3421  0.8123 -0.2266
10848TIP3   OH253958   1.915   4.341   0.330 -0.1612 -0.6166  0.5946
10848TIP3    H153959   1.945   4.394   0.404 -0.8090 -0.6683  0.9011
10848TIP3    H253960   1.828   4.309   0.357 -1.0857  0.6376 -0.8143
10849TIP3   OH253961   3.395   2.498  13.050  0.0781  0.1248  0.4691
10849TIP3    H153962   3.463   2.510  12.984  0.3432  0.1846  0.7494
10849TIP3    H253963   3.431   2.432  13.109 -1.0254 -1.4488 -0.5999
10850TIP3   OH253964   6.115   2.063  15.551 -0.1125  0.2247 -0.0218
10850TIP3    H153965   6.130   2.024  15.465  1.2771  0.9092 -0.1160
10850TIP3    H253966   6.176   2.137  15.554 -0.0564  0.1327  1.5915
10851TIP3   OH253967   5.798   4.428   4.782  0.0866  0.1423 -0.1443
10851TIP3    H153968   5.891   4.430   4.757 -0.0165  1.7294 -0.4380
10851TIP3    H253969   5.781   4.336   4.802  1.5256 -0.2958 -0.8426
10852TIP3   OH253970   5.737   5.197  16.215 -0.2755 -0.2753 -0.3795
10852TIP3    H153971   5.647   5.229  16.214 -0.3522 -0.2909  2.3456
10852TIP3    H253972   5.784   5.259  16.271  0.7801 -1.8336  0.5039
10853TIP3   OH253973   0.436   2.987   5.783 -0.7961  0.7777 -0.0485
10853TIP3    H153974   0.462   2.964   5.694  1.1621 -1.6226  1.0818
10853TIP3    H253975   0.406   2.905   5.822  0.8097  1.2358  2.2826
10854TIP3   OH253976   6.605   3.919   1.169 -0.1048 -0.0056 -0.1272
10854TIP3    H153977   6.617   3.871   1.252  1.1818  1.6742  0.6803
10854TIP3    H253978   6.576   3.852   1.107 -1.6825 -1.1881  1.8223
10855TIP3   OH253979   4.625   5.979   5.879 -0.2050  0.1967 -0.0710
10855TIP3    H153980   4.557   5.968   5.813 -0.1892  0.7412 -0.1796
10855TIP3    H253981   4.705   5.999   5.829 -0.2145  0.7101  0.1136
10856TIP3   OH253982   2.172   1.322   4.686  0.3460 -0.9388  0.2524
10856TIP3    H153983   2.217   1.398   4.649 -1.2391 -0.1773 -0.1534
10856TIP3    H253984   2.141   1.273   4.610 -2.1910  0.1821  0.5284
10857TIP3   OH253985   2.691   4.368  17.080 -0.1422  0.2761 -0.6849
10857TIP3    H153986   2.714   4.282  17.112 -1.5064  0.0432 -0.3078
10857TIP3    H253987   2.619   4.353  17.018 -2.6540  1.3994  1.8288
10858TIP3   OH253988   5.577   0.107  13.206 -0.0363  0.1063  0.2796
10858TIP3    H153989   5.630   0.100  13.285 -0.7762  1.4872  0.9251
10858TIP3    H253990   5.498   0.155  13.234 -1.3549 -1.3813 -0.7857
10859TIP3   OH253991   4.661   2.749   1.035 -0.0839  0.4623  0.4851
10859TIP3    H153992   4.677   2.664   0.994 -1.4446  0.4369  0.0023
10859TIP3    H253993   4.693   2.812   0.971  0.4281  0.3352  0.6126
10860TIP3   OH253994   2.014   6.549  11.490  0.4102 -0.1828 -0.1420
10860TIP3    H153995   2.108   6.569  11.490  0.5723 -0.7990 -1.7652
10860TIP3    H253996   1.980   6.597  11.414 -0.3844 -0.7923 -0.1769
10861TIP3   OH253997   1.379   6.617  13.201 -0.1892 -0.0514  0.2106
10861TIP3    H153998   1.287   6.593  13.213 -0.5144  1.2073  0.2854
10861TIP3    H253999   1.376   6.700  13.154  0.9492 -0.9268 -1.4522
10862TIP3   OH254000   5.735   1.602   5.490  0.3815 -0.2864  0.5740
10862TIP3    H154001   5.653   1.599   5.442  1.3376 -1.6517 -0.9986
10862TIP3    H254002   5.709   1.599   5.582 -1.3451 -0.0934  0.1075
10863TIP3   OH254003   1.594   3.101  17.172 -0.3743 -0.5344 -0.4490
10863TIP3    H154004   1.499   3.114  17.167 -0.3124  0.2282  0.1850
10863TIP3    H254005   1.627   3.183  17.208  0.2261 -1.8166  2.0171
10864TIP3   OH254006   6.764   2.103   1.077  0.6267 -0.5350 -1.1298
10864TIP3    H154007   6.787   2.148   0.996 -0.2206  3.4514  0.7236
10864TIP3    H254008   6.833   2.127   1.138  0.0560 -1.6566 -0.0200
10865TIP3   OH254009   5.044   5.735  14.601  0.3185 -0.0420 -0.0359
10865TIP3    H154010   5.047   5.653  14.551  0.2569 -0.4830  0.6756
10865TIP3    H254011   4.964   5.729  14.653  0.1134  0.6466 -0.2649
10866TIP3   OH254012   6.362   2.681   2.644  0.1454  0.0274 -0.0617
10866TIP3    H154013   6.288   2.641   2.691  0.4469  0.8992  1.1700
10866TIP3    H254014   6.321   2.743   2.584 -0.1482  0.5654  0.6745
10867TIP3   OH254015   3.664   0.150  13.540  0.7813  0.5704  0.2207
10867TIP3    H154016   3.587   0.095  13.554  0.4949 -0.6133 -5.0580
10867TIP3    H254017   3.663   0.211  13.613 -4.0388 -0.6673  1.3719
10868TIP3   OH254018   5.688   1.555   6.507  0.0794  0.1895 -0.0938
10868TIP3    H154019   5.664   1.640   6.470 -0.6420 -0.0112 -0.0913
10868TIP3    H254020   5.631   1.493   6.464 -2.1993  0.1798  2.7654
10869TIP3   OH254021   4.972   4.123   5.684  0.0900  0.1860 -0.0684
10869TIP3    H154022   5.043   4.084   5.736 -0.6746 -2.0568 -0.6342
10869TIP3    H254023   4.895   4.118   5.742  0.4758  3.2048  0.7924
10870TIP3   OH254024   1.721   4.738   1.562  0.3515  0.1479  0.5146
10870TIP3    H154025   1.684   4.821   1.533 -1.2296 -0.1403  1.6233
10870TIP3    H254026   1.699   4.676   1.492 -1.4271 -0.0426  1.2054
10871TIP3   OH254027   3.303   4.702  11.983  0.1033  0.1829 -0.4170
10871TIP3    H154028   3.396   4.724  11.976 -0.4048  2.4045 -0.4572
10871TIP3    H254029   3.298   4.644  12.059  1.8076 -1.7687 -1.7455
10872TIP3   OH254030   0.455   6.165   2.089 -0.0770  0.3274  0.3757
10872TIP3    H154031   0.479   6.257   2.104  0.3486  0.2192  0.3691
10872TIP3    H254032   0.416   6.164   2.002 -0.7009  0.6151  0.6451
10873TIP3   OH254033   3.696   4.243   1.075  0.2386 -0.0419  0.4156
10873TIP3    H154034   3.635   4.177   1.107  0.7190  0.0426  1.5307
10873TIP3    H254035   3.647   4.325   1.080  0.0936 -0.1200  0.2989
10874TIP3   OH254036   4.285   1.569   5.547 -0.0435  0.4965  0.6087
10874TIP3    H154037   4.232   1.521   5.483 -0.8169 -1.1037  2.4150
10874TIP3    H254038   4.266   1.661   5.528 -0.4406  0.0547 -1.2981
10875TIP3   OH254039   2.931   5.446  15.975 -0.2153  0.1485  0.3584
10875TIP3    H154040   2.998   5.434  16.043 -0.6377  1.6326  1.0573
10875TIP3    H254041   2.980   5.477  15.898  0.5074 -3.1978 -0.6243
10876TIP3   OH254042   3.012   5.627   5.189 -0.2176  0.7273 -0.2028
10876TIP3    H154043   3.083   5.608   5.127 -0.5947  0.0772 -0.4353
10876TIP3    H254044   2.932   5.621   5.136 -0.5867 -0.4163  0.4709
10877TIP3   OH254045   3.340   1.131  15.080 -0.5180 -0.0554  0.5103
10877TIP3    H154046   3.416   1.127  15.138  0.6909 -0.9617 -1.0999
10877TIP3    H254047   3.335   1.223  15.054  1.4203 -0.3739 -1.1303
10878TIP3   OH254048   0.096   3.564  15.218 -0.1369  0.4522 -0.5173
10878TIP3    H154049   0.174   3.533  15.265 -0.9955  1.0196  1.3053
10878TIP3    H254050   0.078   3.495  15.154  0.2949 -0.9598  0.8492
10879TIP3   OH254051   1.270   1.488   3.133  0.4123 -0.2176  0.0795
10879TIP3    H154052   1.257   1.399   3.100 -1.8373  0.1862 -0.2332
10879TIP3    H254053   1.243   1.483   3.225  2.2072 -0.2984  0.6074
10880TIP3   OH254054   3.946   4.883   2.917  0.1886  0.1340 -0.3259
10880TIP3    H154055   3.943   4.973   2.884 -2.1376 -0.4384 -1.7986
10880TIP3    H254056   3.930   4.829   2.839  1.5280 -1.5565  0.5484
10881TIP3   OH254057   6.296   0.384  13.615  0.8370 -0.0291 -0.2400
10881TIP3    H154058   6.311   0.290  13.622 -0.0816 -0.1414  0.2903
10881TIP3    H254059   6.267   0.411  13.702  1.3472  0.7990 -0.3174
10882TIP3   OH254060   2.781   2.435   4.213  0.2684 -0.4205  0.6016
10882TIP3    H154061   2.774   2.389   4.297 -0.1167 -0.3524  0.6081
10882TIP3    H254062   2.763   2.367   4.147 -2.0038  0.0681  0.6714
10883TIP3   OH254063   3.122   6.510  13.041 -0.2060 -0.4601  0.5650
10883TIP3    H154064   3.095   6.418  13.036  2.0384 -1.0433 -1.3720
10883TIP3    H254065   3.213   6.510  13.010 -0.5012  2.5615 -0.4112
10884TIP3   OH254066   4.022   2.711   4.174 -0.8043  0.2064  0.4346
10884TIP3    H154067   4.068   2.706   4.090 -0.1232 -2.8534  0.9153
10884TIP3    H254068   4.092   2.730   4.237 -0.6549 -1.3867  0.7721
10885TIP3   OH254069   4.447   3.379  16.585 -0.1296  0.0626 -0.2647
10885TIP3    H154070   4.440   3.460  16.635 -0.3215 -0.5083  0.6422
10885TIP3    H254071   4.478   3.407  16.499 -1.2628  1.2342 -0.3221
10886TIP3   OH254072   6.740   6.117   5.334 -0.5643  0.6250  0.1129
10886TIP3    H154073   6.756   6.201   5.291  0.5544  0.4682  0.2126
10886TIP3    H254074   6.697   6.063   5.267  0.4825  0.6325 -0.5702
10887TIP3   OH254075   0.263   0.360   3.473 -0.0868 -0.3236  0.1509
10887TIP3    H154076   0.251   0.265   3.481 -2.5290  0.0385  1.2084
10887TIP3    H254077   0.174   0.395   3.464  0.8916  1.7014 -2.4474
10888TIP3   OH254078   0.596   3.668   4.208  0.0459 -0.4373 -0.3911
10888TIP3    H154079   0.658   3.727   4.166  0.2071 -0.8761 -0.7642
10888TIP3    H254080   0.596   3.590   4.154 -0.2808 -0.7268  0.0238
10889TIP3   OH254081   5.596   0.366  16.332 -0.2532 -0.1240 -0.1263
10889TIP3    H154082   5.629   0.436  16.275  0.0811 -0.3486 -0.2080
10889TIP3    H254083   5.635   0.384  16.417  1.1823 -1.1617 -0.5437
10890TIP3   OH254084   4.718   0.906   2.968 -0.4703  0.0399  0.3113
10890TIP3    H154085   4.743   0.990   2.929 -1.3407 -1.0962 -2.8801
10890TIP3    H254086   4.801   0.858   2.975 -0.0789  0.8552  1.4471
10891TIP3   OH254087   2.646   1.195  13.057  0.3075 -0.8015 -0.1182
10891TIP3    H154088   2.606   1.283  13.057 -0.8910 -1.3273  0.5302
10891TIP3    H254089   2.718   1.202  13.119  0.0048 -0.3545  0.1935
10892TIP3   OH254090   2.443   3.447   3.012  0.6253 -0.5055 -0.0453
10892TIP3    H154091   2.365   3.500   2.996  1.8266  1.4090  0.2182
10892TIP3    H254092   2.440   3.429   3.106  0.2471 -0.8601 -0.1235
10893TIP3   OH254093   1.290   1.822   3.826  0.2196  0.6152 -0.4413
10893TIP3    H154094   1.300   1.915   3.809  0.2352  0.2643 -2.3895
10893TIP3    H254095   1.195   1.807   3.825  0.1843  0.7138  0.5295
10894TIP3   OH254096   4.796   4.503  16.919  0.2362  0.4522 -0.6782
10894TIP3    H154097   4.733   4.467  16.857  2.1490 -2.0269 -1.2674
10894TIP3    H254098   4.808   4.433  16.983 -1.3029  2.7485  2.2626
10895TIP3   OH254099   4.819   1.681   1.464  0.2409  0.3336 -0.0983
10895TIP3    H154100   4.819   1.765   1.417 -0.5321 -0.6442 -1.8898
10895TIP3    H254101   4.771   1.621   1.406 -1.3529 -0.7405  2.2395
10896TIP3   OH254102   6.261   3.113  14.293 -0.0419  0.3223  0.3057
10896TIP3    H154103   6.218   3.042  14.245  0.1716  0.0851  0.4595
10896TIP3    H254104   6.327   3.147  14.233  0.8843 -0.6138  0.7667
10897TIP3   OH254105   0.934   3.348   0.309  0.0159 -0.4221  0.4275
10897TIP3    H154106   0.956   3.288   0.380 -0.7197 -3.2934 -1.6307
10897TIP3    H254107   1.018   3.370   0.268  0.3508  0.4903  1.5965
10898TIP3   OH254108   3.709   3.347  15.596  0.0546  0.1126  0.1241
10898TIP3    H154109   3.636   3.285  15.590  0.3032 -0.1509 -0.1836
10898TIP3    H254110   3.669   3.433  15.584 -0.1863 -0.0403 -0.1698
10899TIP3   OH254111   5.336   2.962   2.182  0.1022 -0.4006 -0.5492
10899TIP3    H154112   5.312   2.872   2.161  1.0145 -0.3269 -1.9234
10899TIP3    H254113   5.376   2.997   2.102  1.7498  0.5304  0.6380
10900TIP3   OH254114   4.659   3.772  16.895 -0.2425  0.5231  0.2815
10900TIP3    H154115   4.566   3.772  16.915 -0.3589 -0.1986 -0.2016
10900TIP3    H254116   4.703   3.780  16.979 -0.7213 -1.6332  0.7612
10901TIP3   OH254117   1.278   3.612   0.835 -0.1023  0.1661  0.0951
10901TIP3    H154118   1.199   3.602   0.888 -0.9691  0.9913 -1.0167
10901TIP3    H254119   1.330   3.535   0.856 -0.5708  0.3177  1.8950
10902TIP3   OH254120   2.232   5.743   4.979  0.1071  0.2540  0.5082
10902TIP3    H154121   2.304   5.806   4.981  0.4121 -0.0825  0.0559
10902TIP3    H254122   2.243   5.692   5.060 -0.4400  1.1072  1.1307
10903TIP3   OH254123   6.417   2.969   3.912  0.0545  0.1008  0.3135
10903TIP3    H154124   6.510   2.961   3.892 -0.2512  1.5707 -1.9124
10903TIP3    H254125   6.389   2.881   3.934  0.8652 -1.3754 -4.1313
10904TIP3   OH254126   1.814   3.565  13.147 -0.5795  0.3097 -0.5909
10904TIP3    H154127   1.863   3.625  13.203 -0.5237  0.2385 -0.5624
10904TIP3    H254128   1.851   3.577  13.060 -0.0510 -0.2330 -0.4474
10905TIP3   OH254129   3.172   3.133  16.014 -0.3169 -0.1362 -0.0481
10905TIP3    H154130   3.242   3.197  16.025 -1.9085  1.6279  0.1019
10905TIP3    H254131   3.127   3.132  16.098 -0.1961 -1.6004  0.0083
10906TIP3   OH254132   5.994   4.762  11.628  0.0515 -0.1669  0.0318
10906TIP3    H154133   5.981   4.758  11.723  1.3020 -0.5331  0.2068
10906TIP3    H254134   6.031   4.677  11.606  1.0702  0.4200 -0.5674
10907TIP3   OH254135   4.601   3.128   2.110  0.3659  0.3369  0.2524
10907TIP3    H154136   4.517   3.166   2.133 -0.7863 -1.9039 -0.0952
10907TIP3    H254137   4.650   3.127   2.192 -1.1858 -1.3525  1.2005
10908TIP3   OH254138   3.015   5.675  15.255  0.0247  0.8346  0.0606
10908TIP3    H154139   3.016   5.585  15.287  1.4052  1.0553  0.6747
10908TIP3    H254140   3.096   5.713  15.288 -1.0689  2.6439  0.7628
10909TIP3   OH254141   5.931   1.481   3.622 -0.0902 -0.2346  0.2736
10909TIP3    H154142   5.864   1.509   3.686  0.2662  0.2706  0.4317
10909TIP3    H254143   5.903   1.394   3.595 -1.0797  0.1640 -0.0202
10910TIP3   OH254144   5.658   2.114   2.236  0.1515 -0.3741  0.4854
10910TIP3    H154145   5.621   2.109   2.148  0.3992 -0.1325  0.3644
10910TIP3    H254146   5.735   2.171   2.226  1.1676 -1.7210  0.5285
10911TIP3   OH254147   0.755   5.029  14.905 -0.2386 -0.4941 -0.1790
10911TIP3    H154148   0.740   5.098  14.841  0.1232 -0.1092  0.1542
10911TIP3    H254149   0.832   4.983  14.873  0.7004  0.4808  0.6434
10912TIP3   OH254150   1.260   4.246   4.518 -0.7530  0.0978 -0.1374
10912TIP3    H154151   1.307   4.227   4.600  0.0829 -0.5677 -0.7672
10912TIP3    H254152   1.180   4.195   4.524 -1.6540  1.5959  1.1587
10913TIP3   OH254153   1.580   3.463  13.257 -0.5450  0.0561  0.0984
10913TIP3    H154154   1.572   3.370  13.281 -1.4151 -0.0029 -0.4076
10913TIP3    H254155   1.646   3.464  13.187 -1.5178 -0.3598 -0.8493
10914TIP3   OH254156   4.913   0.935  15.306  0.3714  0.1637 -0.4294
10914TIP3    H154157   4.908   0.993  15.230 -1.8701  0.2155 -0.2822
10914TIP3    H254158   4.988   0.878  15.288 -1.0832 -0.9055 -3.4801
10915TIP3   OH254159   2.284   3.091  15.065 -0.0705 -0.6760 -0.9907
10915TIP3    H154160   2.213   3.148  15.038  0.0851 -1.5585 -3.3572
10915TIP3    H254161   2.364   3.141  15.045  0.0251  0.2521  1.5172
10916TIP3   OH254162   5.348   6.551   4.393  0.3717  0.5798  0.3178
10916TIP3    H154163   5.337   6.519   4.304  1.4271 -0.0432  0.4001
10916TIP3    H254164   5.288   6.498   4.446  0.8393 -0.0822  0.1935
10917TIP3   OH254165   3.126   6.622   6.068  0.0008 -0.3760  0.3277
10917TIP3    H154166   3.097   6.549   6.123 -0.0879 -0.7966 -0.2798
10917TIP3    H254167   3.198   6.587   6.016 -1.4603 -0.6637 -1.5365
10918TIP3   OH254168   2.472   2.958  12.035  0.2664  0.0412  0.1475
10918TIP3    H154169   2.476   2.989  11.945  0.2710  0.3429  0.2518
10918TIP3    H254170   2.559   2.977  12.072  0.3393 -0.2880  0.1478
10919TIP3   OH254171   4.339   5.998  16.973 -0.5589  0.2425  0.3630
10919TIP3    H154172   4.412   6.041  17.018 -0.0820  0.4236 -0.5767
10919TIP3    H254173   4.274   5.981  17.042  0.2865  0.2606  1.1601
10920TIP3   OH254174   3.993   5.702   2.713 -0.3607  0.0263  0.7151
10920TIP3    H154175   3.909   5.744   2.698 -0.4522 -0.0077  1.1323
10920TIP3    H254176   3.986   5.663   2.801 -0.7104 -1.8783 -0.1307
10921TIP3   OH254177   1.989   4.195  14.005 -0.2440  0.0323  0.0270
10921TIP3    H154178   1.943   4.124  14.050 -0.7618  1.4308  1.7519
10921TIP3    H254179   2.077   4.195  14.042 -0.1790  0.1552 -0.1227
10922TIP3   OH254180   3.925   3.610  11.130 -0.3351  0.4231 -0.3255
10922TIP3    H154181   3.846   3.602  11.077 -0.0673  0.1233 -0.6863
10922TIP3    H254182   3.967   3.524  11.123  0.8081  1.0529 -1.3953
10923TIP3   OH254183   3.157   0.009   4.982  0.0083  0.4322  0.0106
10923TIP3    H154184   3.119   0.095   4.997  2.8281  2.1802 -2.2672
10923TIP3    H254185   3.226   0.002   5.049  0.6120  0.4861 -0.6051
10924TIP3   OH254186   5.197   4.256  11.764 -0.2516 -0.1797  0.6031
10924TIP3    H154187   5.202   4.352  11.760 -0.6202 -0.1773  0.2147
10924TIP3    H254188   5.152   4.238  11.847 -1.2720  0.0198  0.1031
10925TIP3   OH254189   5.973   5.065   4.870  0.2861 -0.4029  0.3655
10925TIP3    H154190   6.019   4.988   4.903 -0.7404 -1.1372  0.1351
10925TIP3    H254191   5.894   5.030   4.829  0.6217  0.6450 -1.2284
10926TIP3   OH254192   3.876   0.826  14.659 -0.3933  0.2717  0.7732
10926TIP3    H154193   3.958   0.875  14.655  0.2481 -0.5119  3.5440
10926TIP3    H254194   3.817   0.882  14.709 -1.3491  0.5254 -0.6188
10927TIP3   OH254195   0.093   4.464   5.025 -0.2289  0.7990  0.0383
10927TIP3    H154196   0.090   4.490   5.117  1.2441  0.0001  0.3152
10927TIP3    H254197   0.005   4.430   5.008 -0.7320  1.6022  0.9433
10928TIP3   OH254198   2.503   3.272   5.147  0.3508  0.1833  0.7372
10928TIP3    H154199   2.410   3.281   5.171 -0.5983 -1.0828 -2.3251
10928TIP3    H254200   2.538   3.210   5.211 -0.6517  1.3687  2.4948
10929TIP3   OH254201   5.035   6.723   1.140  0.0794  0.2888  0.1962
10929TIP3    H154202   4.944   6.749   1.153  0.6427  1.7925  1.2448
10929TIP3    H254203   5.045   6.717   1.045 -1.3717 -0.8740  0.1022
10930TIP3   OH254204   4.566   4.846   2.886 -0.6559  0.3478  0.1918
10930TIP3    H154205   4.643   4.903   2.883 -1.8579  1.9684 -0.1022
10930TIP3    H254206   4.521   4.871   2.967 -1.1302 -0.2823  0.1254
10931TIP3   OH254207   2.194   1.891  15.554  0.3731 -0.2625  0.0247
10931TIP3    H154208   2.250   1.911  15.479 -0.3492  0.2988 -0.3680
10931TIP3    H254209   2.133   1.965  15.560 -1.0579 -1.3830 -0.2574
10932TIP3   OH254210   0.973   5.262   5.956  0.1520  0.9291 -0.1666
10932TIP3    H154211   0.940   5.351   5.943 -0.4230  0.6121 -0.8591
10932TIP3    H254212   0.979   5.253   6.051 -0.5170  1.4354 -0.0727
10933TIP3   OH254213   4.947   2.784  14.384 -0.6964 -0.2179  0.6604
10933TIP3    H154214   5.035   2.799  14.352  0.1532 -3.7296  1.2017
10933TIP3    H254215   4.959   2.740  14.468 -2.9706 -0.1848  1.0380
10934TIP3   OH254216   4.405   3.924   0.483 -0.3459  0.1185 -0.1117
10934TIP3    H154217   4.315   3.955   0.494 -1.2238 -2.7385  1.1338
10934TIP3    H254218   4.422   3.870   0.560  1.8267 -0.8427 -1.2087
10935TIP3   OH254219   5.592   6.329  14.200  0.2245 -0.3811  0.0106
10935TIP3    H154220   5.535   6.404  14.217 -0.2850 -1.0155  1.1332
10935TIP3    H254221   5.562   6.261  14.261 -0.3273 -2.0362 -2.0336
10936TIP3   OH254222   2.035   2.786  16.117 -0.1656 -0.3392  0.2959
10936TIP3    H154223   2.006   2.850  16.181  0.1167 -0.5982  0.6852
10936TIP3    H254224   1.955   2.755  16.075 -0.1067  2.8173 -2.3578
10937TIP3   OH254225   6.380   4.947  12.973 -0.3063 -0.1119  0.0241
10937TIP3    H154226   6.329   4.895  12.911  0.4628 -0.0985 -0.6376
10937TIP3    H254227   6.324   5.022  12.994 -0.0709  0.5655 -1.6670
10938TIP3   OH254228   0.492   4.901  16.272 -0.0937 -0.1627 -0.2547
10938TIP3    H154229   0.545   4.960  16.218  1.3642 -0.4445  0.8204
10938TIP3    H254230   0.505   4.814  16.233  1.4840 -0.4711  0.8827
10939TIP3   OH254231   5.303   6.655  12.539 -0.2230  0.6083  0.1321
10939TIP3    H154232   5.316   6.561  12.550 -0.6580  0.3889 -1.0429
10939TIP3    H254233   5.310   6.691  12.627  0.0840 -0.5081  0.5789
10940TIP3   OH254234   5.872   0.134  11.217  0.7394  0.2651  0.5210
10940TIP3    H154235   5.898   0.207  11.160 -0.3326  1.0942  1.0763
10940TIP3    H254236   5.893   0.056  11.166 -2.9573  0.9728 -2.3173
10941TIP3   OH254237   1.793   1.723   2.868 -0.2102 -0.2583 -0.5346
10941TIP3    H154238   1.699   1.707   2.859 -0.1153  0.3576 -3.1435
10941TIP3    H254239   1.835   1.647   2.829  0.3388  0.6103 -1.6706
10942TIP3   OH254240   0.403   1.139   5.279 -0.1227  0.4353  0.6896
10942TIP3    H154241   0.380   1.110   5.191 -1.8665  0.1918  1.2134
10942TIP3    H254242   0.498   1.124   5.285 -0.1692 -0.5245 -0.7628
10943TIP3   OH254243   0.415   5.086   3.940 -0.4331  0.3052  0.1267
10943TIP3    H154244   0.420   5.177   3.968  0.6784  0.3711 -0.2583
10943TIP3    H254245   0.445   5.036   4.015  0.1780  0.3353 -0.0948
10944TIP3   OH254246   5.452   0.673   0.935  0.1153 -0.3592  0.6232
10944TIP3    H154247   5.396   0.708   1.004  0.7785 -0.6684  1.3236
10944TIP3    H254248   5.419   0.713   0.854 -0.7254 -0.0758  1.1054
10945TIP3   OH254249   6.378   0.062   0.162  0.4425 -0.3212 -0.3325
10945TIP3    H154250   6.406   0.100   0.079 -0.9128 -0.3999 -0.8520
10945TIP3    H254251   6.292   0.024   0.143  1.3302 -2.8011  0.4281
10946TIP3   OH254252   2.826   0.097   2.011  0.1720  0.4320  0.7945
10946TIP3    H154253   2.891   0.080   2.080 -0.6599 -3.4410  0.7246
10946TIP3    H254254   2.876   0.093   1.930  0.4166  0.8531  0.9210
10947TIP3   OH254255   6.101   6.110   0.470  0.1466  0.2497  0.3323
10947TIP3    H154256   6.087   6.016   0.483  0.0288  0.4409  1.6373
10947TIP3    H254257   6.051   6.152   0.540 -2.5825  1.4555 -2.2454
10948TIP3   OH254258   4.037   5.655   3.257 -0.0417 -0.1871 -0.1935
10948TIP3    H154259   4.098   5.596   3.302 -0.2466 -0.7413 -0.6322
10948TIP3    H254260   4.090   5.729   3.230  0.2265 -0.1853  0.3308
10949TIP3   OH254261   4.522   5.614   4.213 -0.3918 -1.0712 -0.0420
10949TIP3    H154262   4.581   5.539   4.228  2.8460  1.3065 -0.3407
10949TIP3    H254263   4.549   5.679   4.278 -2.0069  0.4851 -0.8876
10950TIP3   OH254264   5.171   1.959  15.336  0.5467  0.4531 -0.6791
10950TIP3    H154265   5.181   1.879  15.387  0.7575  0.6038 -0.4809
10950TIP3    H254266   5.243   1.957  15.274  0.3122  0.2887 -0.9452
10951TIP3   OH254267   4.459   4.997  11.350  0.2424 -0.0835 -0.1286
10951TIP3    H154268   4.388   4.965  11.405  0.5312 -0.4939  0.0110
10951TIP3    H254269   4.538   4.989  11.404  0.6493 -1.2410 -0.8503
10952TIP3   OH254270   4.556   5.045  15.505  0.1591  0.0883  0.5729
10952TIP3    H154271   4.565   5.035  15.410  0.5059  0.7703  0.5275
10952TIP3    H254272   4.462   5.051  15.520  0.0786 -0.5427  0.3239
10953TIP3   OH254273   3.329   0.966   3.852 -0.2079 -0.3249 -0.4727
10953TIP3    H154274   3.295   1.020   3.924  0.4007 -1.4118  0.6499
10953TIP3    H254275   3.255   0.910   3.828 -0.3293 -0.1461 -0.5198
10954TIP3   OH254276   1.858   4.663   5.605  0.6121  0.6778 -0.5083
10954TIP3    H154277   1.926   4.720   5.643  0.8275  1.3272 -1.8456
10954TIP3    H254278   1.790   4.724   5.575 -0.1236  0.0900 -0.0437
10955TIP3   OH254279   6.481   2.225   1.471  0.4582 -0.6812 -0.1195
10955TIP3    H154280   6.514   2.308   1.436  1.4025 -1.1528 -0.3722
10955TIP3    H254281   6.387   2.239   1.482  0.7576  0.7251  0.7228
10956TIP3   OH254282   3.278   4.303   5.487 -0.1041 -0.5337  0.0191
10956TIP3    H154283   3.334   4.293   5.410 -0.3579 -1.9547  0.0242
10956TIP3    H254284   3.193   4.330   5.452  0.2922  0.6622 -0.0560
10957TIP3   OH254285   2.104   1.011   3.984 -0.1174  0.2353 -0.4178
10957TIP3    H154286   2.072   0.958   3.911 -0.5634  0.3782 -0.3272
10957TIP3    H254287   2.085   1.101   3.960 -0.9191  0.2381  0.1848
10958TIP3   OH254288   5.959   6.258  12.521 -0.3932 -0.3045 -0.0163
10958TIP3    H154289   5.900   6.294  12.587  1.9557  0.9880  1.4461
10958TIP3    H254290   5.913   6.271  12.438 -2.8108 -0.7661  1.2096
10959TIP3   OH254291   3.756   2.529   3.147 -0.2131 -0.0039  0.2643
10959TIP3    H154292   3.751   2.614   3.192 -0.5455 -0.0077  0.2374
10959TIP3    H254293   3.759   2.465   3.218  1.7394  0.1119  0.3018
10960TIP3   OH254294   3.275   5.819   2.211  0.4488  0.5807  0.3893
10960TIP3    H154295   3.237   5.843   2.295 -0.0126 -0.7161  0.5561
10960TIP3    H254296   3.368   5.842   2.219  0.6121 -0.4896  1.6241
10961TIP3   OH254297   3.041   4.259   3.294  0.1631 -0.5824 -0.2241
10961TIP3    H154298   2.952   4.289   3.278  0.8818  0.2053 -2.8934
10961TIP3    H254299   3.096   4.314   3.238  2.4630 -0.2454  2.2835
10962TIP3   OH254300   0.101   1.093  16.857 -0.3532  0.0700  0.1574
10962TIP3    H154301   0.016   1.109  16.898 -1.0027  0.4136 -1.2597
10962TIP3    H254302   0.080   1.071  16.766  0.9742 -1.8347  0.2840
10963TIP3   OH254303   2.535   1.050   5.186  0.2497  0.4800  1.1630
10963TIP3    H154304   2.449   1.093   5.183  0.1527  0.3167  1.5825
10963TIP3    H254305   2.570   1.073   5.272  0.2100 -0.2681  1.3817
10964TIP3   OH254306   3.471   4.055  15.901 -0.5924 -0.0872  0.5622
10964TIP3    H154307   3.504   3.978  15.947 -0.0158 -0.7695 -0.9508
10964TIP3    H254308   3.510   4.129  15.947  0.8322 -0.7951  0.5264
10965TIP3   OH254309   5.885   3.854   2.853 -0.4919 -0.0339  0.2736
10965TIP3    H154310   5.938   3.867   2.931 -1.4660  0.2222  0.9061
10965TIP3    H254311   5.858   3.763   2.857 -1.7636  0.3533  1.0411
10966TIP3   OH254312   5.283   5.579  14.076 -0.3658  0.9015  0.2417
10966TIP3    H154313   5.258   5.489  14.094 -3.9595  1.5342 -1.2731
10966TIP3    H254314   5.262   5.626  14.156 -2.1860  1.0570 -0.3104
10967TIP3   OH254315   4.392   4.080  16.776 -0.1054  0.6796  0.1339
10967TIP3    H154316   4.460   4.084  16.844  0.1219 -1.4736  0.0665
10967TIP3    H254317   4.440   4.083  16.694 -0.2004  0.7730  0.0819
10968TIP3   OH254318   0.853   0.141  15.075 -0.2251  0.6036 -0.0950
10968TIP3    H154319   0.921   0.188  15.028  0.4234 -0.7533 -0.5524
10968TIP3    H254320   0.777   0.198  15.071  0.2913  1.2199 -1.4045
10969TIP3   OH254321   4.429   0.353  13.639 -0.3023  0.5609 -0.2475
10969TIP3    H154322   4.378   0.408  13.699  0.8299  0.4417  0.8446
10969TIP3    H254323   4.466   0.415  13.575 -2.4874  0.5477 -1.5676
10970TIP3   OH254324   1.020   4.115   1.147  0.0393 -0.1538 -0.2533
10970TIP3    H154325   1.070   4.141   1.224  0.5931  0.5666 -0.8455
10970TIP3    H254326   0.983   4.030   1.170 -0.5346  0.4574  1.1341
10971TIP3   OH254327   4.805   3.556  15.809 -0.1831  0.1784 -0.1343
10971TIP3    H154328   4.897   3.568  15.784 -0.8292 -0.0111 -2.7278
10971TIP3    H254329   4.787   3.629  15.867  1.5923  0.2416  0.3857
10972TIP3   OH254330   6.580   2.730  10.533 -0.4922  0.2718  0.2619
10972TIP3    H154331   6.508   2.710  10.592 -1.6850  1.3826 -0.7954
10972TIP3    H254332   6.552   2.696  10.448  0.8901 -0.6526  0.1534
10973TIP3   OH254333   4.577   1.029  11.180 -0.5694  0.2393 -0.5550
10973TIP3    H154334   4.592   1.037  11.086 -0.8226 -0.2241 -0.6342
10973TIP3    H254335   4.546   0.939  11.192  0.5329 -0.0612  0.1156
10974TIP3   OH254336   3.693   5.359  12.938  0.1577 -0.1454 -0.2268
10974TIP3    H154337   3.782   5.323  12.938 -0.4758 -1.7822 -0.4660
10974TIP3    H254338   3.642   5.296  12.989 -0.6801  1.2846  0.7468
10975TIP3   OH254339   2.969   3.757   4.727  0.6697 -0.2107 -0.2221
10975TIP3    H154340   2.942   3.669   4.753 -2.2497  0.5286 -0.5767
10975TIP3    H254341   2.911   3.779   4.655  1.0681  2.2077  0.1731
10976TIP3   OH254342   3.172   3.206   3.994  0.6120  0.0375 -0.1871
10976TIP3    H154343   3.230   3.148   4.043  1.9663  0.9018 -0.7403
10976TIP3    H254344   3.218   3.221   3.911 -0.1927  1.1034 -0.4446
10977TIP3   OH254345   5.869   6.372   4.655  0.1473 -0.4554  0.8172
10977TIP3    H154346   5.831   6.450   4.695 -0.9580 -1.6150  2.0665
10977TIP3    H254347   5.843   6.377   4.563 -0.4317  0.3283  1.0189
10978TIP3   OH254348   3.860   5.887   3.453  0.1225 -0.2530  0.5388
10978TIP3    H154349   3.837   5.931   3.371 -2.2341 -2.2343  0.0801
10978TIP3    H254350   3.923   5.946   3.495  0.7053  1.2009 -2.2764
10979TIP3   OH254351   3.703   1.317  13.104 -0.0396  0.4019  0.5690
10979TIP3    H154352   3.752   1.357  13.176 -0.5509  1.6506  0.2404
10979TIP3    H254353   3.613   1.313  13.136 -0.5550  2.3837 -0.5679
10980TIP3   OH254354   0.958   5.020  15.394 -0.5995 -0.3107  0.4714
10980TIP3    H154355   0.944   4.996  15.302 -1.5651 -1.6272  0.9515
10980TIP3    H254356   1.009   5.101  15.390 -0.6985 -0.3157 -1.2265
10981TIP3   OH254357   0.884   3.961   3.984 -0.0370  0.1726  0.4236
10981TIP3    H154358   0.794   3.950   4.016 -0.8944  3.1108 -0.7790
10981TIP3    H254359   0.873   3.991   3.893  2.2044 -0.7392 -0.1683
10982TIP3   OH254360   1.179   4.591  13.956 -0.1663  0.1212  0.1374
10982TIP3    H154361   1.169   4.686  13.944 -0.4008  0.1834  0.8254
10982TIP3    H254362   1.152   4.554  13.871  0.4940  0.6971 -0.3313
10983TIP3   OH254363   2.423   4.840  15.585  0.1134 -0.5195  0.6095
10983TIP3    H154364   2.439   4.884  15.502  1.4202 -0.2151  1.0057
10983TIP3    H254365   2.402   4.911  15.646 -0.3147 -0.6890  0.6614
10984TIP3   OH254366   4.294   2.201  15.311 -0.0836 -0.4100  0.3162
10984TIP3    H154367   4.304   2.126  15.370 -3.3102 -1.5409 -0.4744
10984TIP3    H254368   4.357   2.184  15.241  0.1829 -1.7040  0.8468
10985TIP3   OH254369   1.110   4.752   3.710  0.0323  0.4496  0.5184
10985TIP3    H154370   1.026   4.764   3.666 -0.1951  1.4548  1.2114
10985TIP3    H254371   1.173   4.802   3.658  0.4196 -1.1616 -0.6058
10986TIP3   OH254372   0.915   2.693  12.287  0.1299 -0.2243 -0.0619
10986TIP3    H154373   0.917   2.655  12.375  1.5333 -0.3954 -0.1574
10986TIP3    H254374   0.824   2.681  12.258 -0.1519 -0.8794  1.0489
10987TIP3   OH254375   4.904   1.862  14.855  0.0259 -0.6391  0.1204
10987TIP3    H154376   4.904   1.906  14.940 -0.7869  1.2598 -0.8274
10987TIP3    H254377   4.921   1.932  14.791  0.0194 -1.9218 -1.3265
10988TIP3   OH254378   4.196   2.172   3.783  0.2305  0.5080 -0.6074
10988TIP3    H154379   4.210   2.091   3.734  1.2799  0.2031  0.1691
10988TIP3    H254380   4.139   2.147   3.855  2.5173 -0.0953  1.0335
10989TIP3   OH254381   5.379   5.157  13.712  0.0507 -0.0568  0.0029
10989TIP3    H154382   5.298   5.118  13.679 -0.0254  1.1122 -1.2518
10989TIP3    H254383   5.361   5.178  13.803 -0.9967 -0.0035 -0.2118
10990TIP3   OH254384   1.870   1.944  11.490 -0.5591  0.1286  0.1188
10990TIP3    H154385   1.937   1.940  11.421 -0.2161 -1.6432  0.5210
10990TIP3    H254386   1.851   2.037  11.499  1.7138  0.6548 -0.1576
10991TIP3   OH254387   5.032   2.726  11.774 -0.0899  0.7859 -0.4212
10991TIP3    H154388   5.096   2.745  11.706  0.8291  2.4308  0.8445
10991TIP3    H254389   5.062   2.646  11.815  0.5372  0.9484 -0.5651
10992TIP3   OH254390   3.937   0.355  12.656  0.1783  0.1691 -0.1115
10992TIP3    H154391   4.019   0.341  12.704  0.1869  0.8866  0.0772
10992TIP3    H254392   3.965   0.373  12.567  0.1630 -1.1527 -0.3998
10993TIP3   OH254393   0.564   4.358  15.912  0.3698  0.5979 -0.2043
10993TIP3    H154394   0.498   4.313  15.858 -0.9311  1.3433  0.7514
10993TIP3    H254395   0.548   4.326  16.000  0.9241  1.2169  0.1228
10994TIP3   OH254396   0.088   0.753   3.322 -0.1453 -0.1786  0.0780
10994TIP3    H154397  -0.004   0.735   3.342  0.0322  0.1311  1.2561
10994TIP3    H254398   0.087   0.838   3.279 -0.4971 -0.5950 -0.7319
10995TIP3   OH254399   0.741   3.338   3.833 -0.2851  0.3187 -0.2575
10995TIP3    H154400   0.733   3.351   3.739 -0.6070  0.8779 -0.1489
10995TIP3    H254401   0.743   3.242   3.844  1.5256  0.2518 -0.9789
10996TIP3   OH254402   4.336   3.287   1.270  0.4249  0.2521 -0.4915
10996TIP3    H154403   4.356   3.213   1.213  0.2418  0.2534 -0.5569
10996TIP3    H254404   4.407   3.349   1.253  0.3330  0.2840 -0.7756
10997TIP3   OH254405   4.179   6.209  12.239 -0.3230  0.2843  0.2114
10997TIP3    H154406   4.261   6.232  12.194 -0.9999  1.5422 -0.4019
10997TIP3    H254407   4.181   6.258  12.320  0.8574 -1.9243  1.5623
10998TIP3   OH254408   3.153   0.115   1.810  0.3246  0.2936  0.1837
10998TIP3    H154409   3.087   0.056   1.773  1.3945 -0.8756  0.0979
10998TIP3    H254410   3.155   0.093   1.903 -1.3507  2.2477  0.7238
10999TIP3   OH254411   4.719   0.480   1.877 -0.0987  0.2245  0.3586
10999TIP3    H154412   4.722   0.401   1.932 -0.2092 -0.0942 -0.0925
10999TIP3    H254413   4.768   0.456   1.798 -2.1674 -0.1901 -0.8252
11000TIP3   OH254414   6.292   0.535  16.409  0.7577 -0.0436 -0.0748
11000TIP3    H154415   6.365   0.505  16.462 -0.8354 -0.6095  1.8983
11000TIP3    H254416   6.323   0.530  16.319  3.1098 -0.2930  0.7258
11001TIP3   OH254417   5.664   5.359   4.863  0.0422  0.1639  0.1830
11001TIP3    H154418   5.619   5.351   4.779 -0.1614  1.7934  0.1162
11001TIP3    H254419   5.756   5.374   4.839  0.0188  0.4198  0.2519
11002TIP3   OH254420   1.866   3.208   2.783  0.0052 -0.0024 -0.2881
11002TIP3    H154421   1.814   3.202   2.863 -1.2309  0.3633 -1.0380
11002TIP3    H254422   1.862   3.120   2.745 -1.8067  0.5061 -1.3729
11003TIP3   OH254423   1.359   1.645   3.425 -0.2963 -0.4468 -0.2337
11003TIP3    H154424   1.432   1.652   3.486  0.8130 -0.9222 -1.4765
11003TIP3    H254425   1.375   1.715   3.361  0.0560 -1.6855 -1.5231
11004TIP3   OH254426   6.694   1.474   6.462 -0.0532 -0.2171 -0.1288
11004TIP3    H154427   6.682   1.395   6.409  2.6833 -1.4059  0.9507
11004TIP3    H254428   6.615   1.479   6.516 -1.5409 -0.6050 -2.2440
11005TIP3   OH254429   4.145   4.058   1.856 -0.4238  0.2705  0.4592
11005TIP3    H154430   4.124   4.042   1.764  3.2024 -1.4646 -0.1602
11005TIP3    H254431   4.115   3.980   1.902  1.9703 -1.0051 -0.0316
11006TIP3   OH254432   5.294   6.286   3.145  0.5832  0.2310 -0.1274
11006TIP3    H154433   5.238   6.229   3.199 -0.4046  1.7192  0.4680
11006TIP3    H254434   5.294   6.369   3.192  4.4388 -0.1079  0.5749
11007TIP3   OH254435   1.401   0.234  11.006  0.5184  0.1600 -0.0436
11007TIP3    H154436   1.309   0.208  11.013  0.6897 -0.2447  0.8801
11007TIP3    H254437   1.403   0.300  10.938 -0.9037  2.2349  1.8760
11008TIP3   OH254438   0.212   4.645   4.224 -0.1699 -0.3659 -0.1070
11008TIP3    H154439   0.194   4.555   4.197 -1.2303 -0.1077 -0.3061
11008TIP3    H254440   0.259   4.636   4.307 -2.1665 -1.1022  0.9960
11009TIP3   OH254441   3.260   4.314   1.853 -0.7701 -0.3864 -0.3822
11009TIP3    H154442   3.187   4.364   1.888  0.1216  0.4662  0.2666
11009TIP3    H254443   3.265   4.340   1.761  1.1703  2.5583  0.4847
11010TIP3   OH254444   6.744   6.126   3.758 -0.0435 -0.1208  0.2921
11010TIP3    H154445   6.702   6.092   3.679  1.5257 -0.6695 -0.3258
11010TIP3    H254446   6.791   6.051   3.794  0.5037  0.5138  0.9102
11011TIP3   OH254447   3.880   5.159  15.996  0.1290 -0.0773  0.0515
11011TIP3    H154448   3.836   5.170  15.912  0.2792 -1.9588 -0.2986
11011TIP3    H254449   3.876   5.246  16.037 -1.9118  0.3160 -0.9243
11012TIP3   OH254450   6.055   6.714  14.083  0.0224 -0.7023 -0.0883
11012TIP3    H154451   6.077   6.807  14.089 -2.3755 -0.1155  0.0630
11012TIP3    H254452   6.140   6.670  14.079  1.1780  1.5674 -1.5153
11013TIP3   OH254453   4.276   2.886   0.936 -0.4800  0.2958 -0.6051
11013TIP3    H154454   4.326   2.817   0.979 -0.4987  0.3611 -0.4793
11013TIP3    H254455   4.225   2.926   1.006 -0.0312  0.8176 -0.5728
11014TIP3   OH254456   0.583   6.422   5.082 -0.2523  0.0777  0.3978
11014TIP3    H154457   0.507   6.449   5.134  1.1570 -1.0357  3.1508
11014TIP3    H254458   0.648   6.491   5.098 -0.1254  0.2021 -0.6454
11015TIP3   OH254459   0.800   6.119  16.724  0.0318  0.3768 -0.7660
11015TIP3    H154460   0.772   6.093  16.636 -0.6091  1.0940 -0.7787
11015TIP3    H254461   0.896   6.114  16.722 -0.0371 -1.1227 -1.0335
11016TIP3   OH254462   0.431   0.997   0.869  0.4200 -0.5562 -0.0088
11016TIP3    H154463   0.457   0.930   0.932 -0.4453 -0.2188  0.7087
11016TIP3    H254464   0.497   1.066   0.878  0.5953 -0.7441  0.1419
11017TIP3   OH254465   6.422   5.646   6.334  0.0388  0.0512  0.6429
11017TIP3    H154466   6.453   5.725   6.378 -1.3875  1.1626 -0.2823
11017TIP3    H254467   6.462   5.649   6.247  0.3772 -0.5162  0.7739
11018TIP3   OH254468   3.006   6.184   6.263  0.6997  0.2277  0.4672
11018TIP3    H154469   3.069   6.134   6.314 -0.2056 -0.7646  0.6475
11018TIP3    H254470   2.982   6.124   6.191 -0.7392  0.2141  0.9424
11019TIP3   OH254471   1.281   5.334   3.235  0.3746 -0.0272 -0.5215
11019TIP3    H154472   1.202   5.341   3.182  0.5951 -0.2341 -0.8758
11019TIP3    H254473   1.261   5.265   3.299 -0.9942  2.2360  1.5795
11020TIP3   OH254474   3.313   4.925  14.251 -0.0940 -0.1719 -0.1079
11020TIP3    H154475   3.298   4.831  14.252  0.1848 -0.2195 -0.3004
11020TIP3    H254476   3.365   4.943  14.329 -2.8417  0.2840  1.6727
11021TIP3   OH254477   4.138   2.568   4.531  0.0324 -0.2460  0.3194
11021TIP3    H154478   4.182   2.485   4.548  0.4592 -0.0433  0.2101
11021TIP3    H254479   4.133   2.610   4.617  3.2029  1.2816 -0.1483
11022TIP3   OH254480   2.540   1.687  15.371  0.1211 -0.4308  0.2303
11022TIP3    H154481   2.579   1.603  15.348 -1.7509 -0.7661 -1.9108
11022TIP3    H254482   2.486   1.710  15.295 -1.0743  1.6790  1.6639
11023TIP3   OH254483   3.053   3.861  15.163  0.1443  0.1731  0.2532
11023TIP3    H154484   3.147   3.854  15.175  0.3599  0.2362 -1.3543
11023TIP3    H254485   3.028   3.779  15.120 -0.5197  0.2213  0.5391
11024TIP3   OH254486   2.199   4.231   1.418 -0.1808 -0.0713 -0.7450
11024TIP3    H154487   2.290   4.227   1.447 -0.7252 -2.5546  0.7994
11024TIP3    H254488   2.194   4.310   1.365  2.7054  0.4773 -0.2837
11025TIP3   OH254489   1.449   6.131   5.693 -0.0396  0.1236 -0.3705
11025TIP3    H154490   1.538   6.110   5.663 -0.5896 -0.5789 -1.5022
11025TIP3    H254491   1.463   6.181   5.774  1.3520 -1.7264  0.5759
11026TIP3   OH254492   4.946   3.020  11.600  0.2755  0.1939  0.2489
11026TIP3    H154493   5.024   2.990  11.553  0.8454 -0.8026  1.7659
11026TIP3    H254494   4.880   3.034  11.533  1.7458  0.9955 -1.0611
11027TIP3   OH254495   3.987   0.862  12.198  0.0341 -0.5738 -0.3697
11027TIP3    H154496   3.980   0.772  12.229  0.7064  0.0206  1.6066
11027TIP3    H254497   3.901   0.900  12.214 -0.5464 -1.1327 -2.1183
11028TIP3   OH254498   2.106   4.249   6.593 -0.1524  0.2873  0.0536
11028TIP3    H154499   2.039   4.199   6.639  0.1238 -0.4678 -0.3479
11028TIP3    H254500   2.152   4.297   6.662  0.7480 -1.4182  0.6722
11029TIP3   OH254501   2.474   5.975   4.410  0.2027  0.2709  0.0590
11029TIP3    H154502   2.531   6.047   4.436  1.5396 -0.3594 -1.0472
11029TIP3    H254503   2.459   5.926   4.491 -0.7782  1.8114  0.8256
11030TIP3   OH254504   6.039   3.669   3.587 -0.1297  0.3237 -0.6929
11030TIP3    H154505   6.047   3.752   3.540 -0.0050  1.5595  1.4596
11030TIP3    H254506   5.945   3.650   3.587 -0.6614  2.5741  2.2589
11031TIP3   OH254507   0.189   0.024   5.531 -0.2694  0.1584  0.7499
11031TIP3    H154508   0.094   0.018   5.543 -0.4212 -0.5174 -0.7051
11031TIP3    H254509   0.199   0.093   5.464  0.2947  0.6163  1.3078
11032TIP3   OH254510   0.751   0.230   1.101  0.0208 -0.1820  0.1554
11032TIP3    H154511   0.847   0.230   1.103  0.0315 -0.5963 -0.3361
11032TIP3    H254512   0.726   0.282   1.178  0.6193 -2.0501  1.6798
11033TIP3   OH254513   1.588   5.952  10.947 -0.2611  0.1934  0.5362
11033TIP3    H154514   1.659   5.911  10.996  0.1563  0.6213  0.3031
11033TIP3    H254515   1.528   5.881  10.927  1.4631 -0.7355 -1.6411
11034TIP3   OH254516   4.174   1.657   1.106 -0.5315  0.9146 -0.0698
11034TIP3    H154517   4.203   1.722   1.170  0.3165  0.9516 -0.4905
11034TIP3    H254518   4.227   1.579   1.125  0.4472  1.2416 -1.3644
11035TIP3   OH254519   4.560   4.571   5.242  0.3623 -0.2574 -0.6329
11035TIP3    H154520   4.641   4.622   5.250 -1.5419  2.7968 -0.2518
11035TIP3    H254521   4.541   4.571   5.148  0.4270 -0.3567 -0.6460
11036TIP3   OH254522   2.899   1.960   2.195  0.8972 -0.5686  0.1270
11036TIP3    H154523   2.946   1.883   2.225 -0.6734 -0.6129  2.5899
11036TIP3    H254524   2.911   2.025   2.264 -1.0926  0.0420 -0.0674
11037TIP3   OH254525   5.129   4.196   2.827  0.3074  0.1057  0.4382
11037TIP3    H154526   5.120   4.123   2.765 -1.4409  1.7627 -1.3281
11037TIP3    H254527   5.059   4.183   2.890 -0.5699  0.7116 -0.3916
11038TIP3   OH254528   4.687   3.060  16.414  0.2530  0.6412  0.4928
11038TIP3    H154529   4.742   3.137  16.429 -0.7614  1.4648  0.0023
11038TIP3    H254530   4.636   3.081  16.336  0.3454 -0.7457  0.0427
11039TIP3   OH254531   0.404   3.856   6.120  0.5567 -0.1815 -0.4639
11039TIP3    H154532   0.495   3.825   6.125  0.3269 -0.7461  0.3021
11039TIP3    H254533   0.394   3.888   6.030  1.2862 -0.8144 -0.7715
11040TIP3   OH254534   1.741   2.678   5.671  0.5597  0.1911  0.0839
11040TIP3    H154535   1.812   2.618   5.648  0.8781  0.5874  0.0352
11040TIP3    H254536   1.721   2.724   5.590 -1.1008 -1.3176 -0.3982
11041TIP3   OH254537   0.607   5.862  15.387  0.2538 -0.2969  0.6907
11041TIP3    H154538   0.569   5.795  15.444 -1.3547  0.1434  0.1652
11041TIP3    H254539   0.641   5.813  15.312 -0.5927 -0.5766  0.4800
11042TIP3   OH254540   4.393   3.053  15.488 -0.2546 -0.5972 -0.6428
11042TIP3    H154541   4.352   3.139  15.476 -0.5957 -0.7639 -0.6715
11042TIP3    H254542   4.440   3.061  15.571 -0.6188 -0.5113 -0.4425
11043TIP3   OH254543   3.968   6.576  15.595 -0.2750 -0.0212 -0.3212
11043TIP3    H154544   3.913   6.631  15.540 -0.7450  1.8343  1.9449
11043TIP3    H254545   3.906   6.529  15.652  0.3687  1.5868  1.7841
11044TIP3   OH254546   5.115   1.846   5.939  0.1719 -0.0358  0.3433
11044TIP3    H154547   5.203   1.843   5.978  0.6066 -2.0306 -0.6824
11044TIP3    H254548   5.085   1.755   5.941 -0.3928  0.0228 -2.5851
11045TIP3   OH254549   3.047   6.326  14.083 -0.0269 -0.2619 -0.7079
11045TIP3    H154550   2.995   6.341  14.162  1.6980  0.6960  0.2804
11045TIP3    H254551   2.984   6.294  14.019 -1.9822  1.6559  0.1976
11046TIP3   OH254552   4.941   2.341  12.944  0.4655 -0.4602  0.0830
11046TIP3    H154553   4.964   2.429  12.972  0.7605 -0.1983 -0.9426
11046TIP3    H254554   5.025   2.300  12.921  0.4367 -1.3715  1.5695
11047TIP3   OH254555   0.724   2.274  14.180 -0.0247  0.1811 -0.0728
11047TIP3    H154556   0.758   2.237  14.099  0.9287  1.9642 -0.5094
11047TIP3    H254557   0.637   2.307  14.158  0.0401  0.2317 -0.2475
11048TIP3   OH254558   0.271   0.478  16.765 -0.6805  0.2127  0.2243
11048TIP3    H154559   0.322   0.525  16.699 -0.4120 -0.5087 -0.0953
11048TIP3    H254560   0.262   0.539  16.837 -1.8662  1.3923 -0.9018
11049TIP3   OH254561   6.379   0.498   4.945  0.3263  0.5503 -0.5041
11049TIP3    H154562   6.316   0.426   4.956 -0.1230  0.9535 -0.4634
11049TIP3    H254563   6.440   0.487   5.017  0.2110  0.2553 -0.4481
11050TIP3   OH254564   3.220   1.401   4.248 -0.2563  0.5479 -0.4486
11050TIP3    H154565   3.296   1.351   4.217 -0.9378 -0.0111 -1.2424
11050TIP3    H254566   3.257   1.485   4.277  0.5907  0.5083 -1.3755
11051TIP3   OH254567   1.502   5.594  17.215  0.0988  0.4854  0.4296
11051TIP3    H154568   1.434   5.571  17.279  0.5654  0.0199  0.7646
11051TIP3    H254569   1.564   5.522  17.219  1.2586  1.4947  1.0231
11052TIP3   OH254570   1.523   5.114  14.421 -0.4741 -0.1802 -0.0187
11052TIP3    H154571   1.504   5.086  14.510 -0.0510  0.0693  0.1550
11052TIP3    H254572   1.617   5.101  14.412 -0.3547  0.6968 -0.1035
11053TIP3   OH254573   2.098   0.703  11.697 -0.3879  0.4839 -0.0611
11053TIP3    H154574   2.190   0.726  11.698 -0.1558 -0.4669  1.5287
11053TIP3    H254575   2.058   0.767  11.638  1.2415  1.0238 -0.6002
11054TIP3   OH254576   5.483   1.783  13.051  0.0327 -0.1395 -0.5011
11054TIP3    H154577   5.531   1.856  13.012 -0.6737 -0.1896 -1.4816
11054TIP3    H254578   5.518   1.705  13.007 -0.4319 -0.2327 -0.7172
11055TIP3   OH254579   0.144   0.276  16.986  0.3946 -0.2254 -0.4671
11055TIP3    H154580   0.175   0.320  16.907  0.9723 -0.4312 -0.3514
11055TIP3    H254581   0.209   0.208  17.004  1.9254  1.7518  1.8918
11056TIP3   OH254582   0.506   2.076   3.754 -0.1530 -0.3976  0.5320
11056TIP3    H154583   0.437   2.141   3.752 -0.2915 -0.5696 -0.7071
11056TIP3    H254584   0.563   2.102   3.826  0.2325  1.5515 -0.4535
11057TIP3   OH254585   5.226   4.439   0.370  0.3364 -0.3589  0.1435
11057TIP3    H154586   5.219   4.477   0.283 -0.3874  0.7915  0.7012
11057TIP3    H254587   5.136   4.425   0.399  0.5305  0.9597  1.4377
11058TIP3   OH254588   5.611   0.517   2.834  0.7705  0.2881 -0.0348
11058TIP3    H154589   5.630   0.609   2.851 -0.8713  0.6736 -0.1227
11058TIP3    H254590   5.517   0.516   2.812  0.8513 -1.3518 -0.3855
11059TIP3   OH254591   2.979   5.062   5.324  0.0248 -0.2777 -0.0751
11059TIP3    H154592   3.056   5.118   5.334  2.3927 -3.6822  1.6955
11059TIP3    H254593   3.003   4.999   5.256 -1.8770 -0.3307 -0.7324
11060TIP3   OH254594   1.680   0.821  11.012  0.4202 -0.0902  0.5561
11060TIP3    H154595   1.656   0.739  10.969 -0.5092  0.1085  0.6710
11060TIP3    H254596   1.712   0.878  10.942  2.1307 -0.9366  0.6462
11061TIP3   OH254597   4.963   5.456   4.674  0.5067  0.2818  0.0053
11061TIP3    H154598   4.922   5.542   4.679 -0.1165 -0.0334  0.4896
11061TIP3    H254599   4.903   5.399   4.722  1.1796 -0.3200  0.1374
11062TIP3   OH254600   6.458   5.048  16.471 -0.2346  0.1096  0.3012
11062TIP3    H154601   6.391   5.092  16.523 -1.2926  0.9594 -1.7424
11062TIP3    H254602   6.411   4.980  16.423  0.8491 -1.1328  0.9613
11063TIP3   OH254603   2.302   4.807   5.239 -0.3679 -0.0968 -0.0353
11063TIP3    H154604   2.273   4.898   5.237  1.8224  0.6266  0.2338
11063TIP3    H254605   2.380   4.805   5.183 -0.5551 -1.8784 -0.2832
11064TIP3   OH254606   2.570   4.490   1.261 -0.3366  0.4088  0.2434
11064TIP3    H154607   2.639   4.440   1.217  0.1866 -0.2492  1.7641
11064TIP3    H254608   2.570   4.574   1.216  1.7615  0.5668  0.4528
11065TIP3   OH254609   2.751   0.400  16.351  0.5256 -0.1544  0.1245
11065TIP3    H154610   2.747   0.362  16.439 -0.1579 -2.5702 -0.9112
11065TIP3    H254611   2.837   0.373  16.318  0.5133  0.1961 -0.1933
11066TIP3   OH254612   5.615   1.127   4.398  0.0087  0.2570  0.0532
11066TIP3    H154613   5.674   1.113   4.323  0.6213  1.5170  0.2997
11066TIP3    H254614   5.674   1.139   4.472 -0.6016 -0.9557  0.7512
11067TIP3   OH254615   3.831   1.691   0.781 -0.1320 -0.0244  0.1384
11067TIP3    H154616   3.845   1.754   0.851 -1.6007  0.9229 -0.3952
11067TIP3    H254617   3.780   1.739   0.715  2.2746 -0.4822 -2.1597
11068TIP3   OH254618   4.759   1.346   3.521 -0.1067 -0.1677  0.2876
11068TIP3    H154619   4.789   1.296   3.446  0.4885 -1.6218  1.4715
11068TIP3    H254620   4.783   1.437   3.501  2.2515 -0.8613 -0.2122
11069TIP3   OH254621   4.844   2.822   2.732  0.6232 -0.2224 -0.6594
11069TIP3    H154622   4.752   2.797   2.736  0.6668 -0.4084 -0.8203
11069TIP3    H254623   4.882   2.766   2.664  1.2127 -1.3059  0.5399
11070TIP3   OH254624   2.277   2.068   4.139  0.0166 -0.1127 -0.2770
11070TIP3    H154625   2.303   2.072   4.047 -1.6915 -1.6358 -0.8466
11070TIP3    H254626   2.265   2.160   4.164  1.9005  0.3991 -1.1300
11071TIP3   OH254627   0.266   4.306   4.855 -0.9507  0.2245  0.5091
11071TIP3    H154628   0.341   4.358   4.825 -2.2956  1.5191 -0.6980
11071TIP3    H254629   0.218   4.365   4.913 -1.4014 -0.3654  0.7364
11072TIP3   OH254630   0.406   1.997  12.182  0.2045 -0.4046  0.7376
11072TIP3    H154631   0.320   1.957  12.193 -0.7904  1.7496  1.0724
11072TIP3    H254632   0.403   2.038  12.096  0.3884  0.8432  1.3101
11073TIP3   OH254633   1.504   3.134   3.633 -0.0288  0.6103 -0.3226
11073TIP3    H154634   1.485   3.050   3.674 -1.1432  0.9966 -0.0288
11073TIP3    H254635   1.547   3.185   3.702  1.7360 -0.1074 -0.8533
11074TIP3   OH254636   2.555   0.100   3.756  0.5265  0.1467  0.2254
11074TIP3    H154637   2.594   0.182   3.787 -1.2234  0.9957  0.2843
11074TIP3    H254638   2.461   0.119   3.751  0.2153 -1.5418 -0.7691
11075TIP3   OH254639   3.614   1.278  12.120 -0.4768 -0.1024  0.1829
11075TIP3    H154640   3.523   1.304  12.137 -0.5240  1.0168 -1.6440
11075TIP3    H254641   3.666   1.348  12.161 -0.5106  0.6156 -0.9774
11076TIP3   OH254642   0.194   1.526  14.309 -0.3850  0.3100 -0.3950
11076TIP3    H154643   0.216   1.458  14.245 -0.9136 -1.7939  1.5846
11076TIP3    H254644   0.250   1.600  14.285  2.1511 -1.7200 -1.0396
11077TIP3   OH254645   4.492   0.864   1.691 -0.9790  0.0685 -0.3484
11077TIP3    H154646   4.427   0.800   1.659 -1.8046  0.8021 -0.1690
11077TIP3    H254647   4.446   0.948   1.689  0.6354  0.9350 -2.1373
11078TIP3   OH254648   5.558   4.109  15.826  0.6569 -0.1590 -0.3151
11078TIP3    H154649   5.572   4.031  15.771  0.6514 -0.3422 -0.0540
11078TIP3    H254650   5.463   4.114  15.837  0.7168 -0.6257  0.4128
11079TIP3   OH254651   6.235   1.705  14.668  0.3578 -0.3625  0.0417
11079TIP3    H154652   6.302   1.643  14.637  0.2690 -2.1541  3.1670
11079TIP3    H254653   6.153   1.671  14.633  0.6318 -0.3136 -0.6693
11080TIP3   OH254654   1.998   0.461  11.514 -0.0090  0.2270  0.1668
11080TIP3    H154655   2.029   0.549  11.538  0.1459  0.7673 -1.9691
11080TIP3    H254656   2.076   0.406  11.517 -0.0255  0.2419  1.0643
11081TIP3   OH254657   1.764   1.187  15.405  0.0666 -0.2219  0.1557
11081TIP3    H154658   1.809   1.164  15.486 -2.0882 -0.7197  1.2393
11081TIP3    H254659   1.728   1.275  15.421  0.0320 -0.1284 -0.4189
11082TIP3   OH254660   3.849   4.351  15.910 -0.4091 -0.9378  0.4738
11082TIP3    H154661   3.874   4.268  15.949  1.0242 -1.5492 -1.6213
11082TIP3    H254662   3.877   4.344  15.818  0.1028  1.9717  0.3444
11083TIP3   OH254663   2.130   3.919   3.711 -0.2188 -0.0059 -0.3693
11083TIP3    H154664   2.188   3.991   3.685 -0.7664  1.1032  1.4303
11083TIP3    H254665   2.057   3.924   3.649  0.2588  0.3318 -0.9101
11084TIP3   OH254666   2.811   0.766  11.818 -0.1575 -0.0578 -0.1494
11084TIP3    H154667   2.793   0.768  11.912 -1.8948 -2.3815 -0.3738
11084TIP3    H254668   2.751   0.830  11.780 -0.2952  0.0135  0.1935
11085TIP3   OH254669   1.499   5.881  12.403  0.2900  0.7117 -0.1353
11085TIP3    H154670   1.442   5.857  12.476  1.8560 -1.8892  0.2994
11085TIP3    H254671   1.446   5.940  12.349 -2.5249 -1.0594  0.6229
11086TIP3   OH254672   1.952   5.318  12.120  0.7586  0.0373  0.3137
11086TIP3    H154673   1.904   5.259  12.177  0.0074  0.2489 -0.1039
11086TIP3    H254674   1.892   5.392  12.105  1.8562  1.1425  1.2376
11087TIP3   OH254675   3.321   4.960   2.399 -0.5636  0.1951  0.7552
11087TIP3    H154676   3.271   5.024   2.450 -2.6081  1.3644 -2.5329
11087TIP3    H254677   3.278   4.959   2.314  3.9930 -0.0673 -1.7118
11088TIP3   OH254678   5.543   5.050  11.673 -0.3448 -0.2181 -0.1194
11088TIP3    H154679   5.532   5.010  11.759  1.4998  2.3211  1.3406
11088TIP3    H254680   5.469   5.111  11.665  1.5187  2.3328  1.3409
11089TIP3   OH254681   2.092   0.410   5.234 -0.3154  0.6680 -0.0275
11089TIP3    H154682   2.033   0.483   5.254  0.8678  1.5802  0.1147
11089TIP3    H254683   2.058   0.337   5.287 -0.5739  1.5293  1.0104
11090TIP3   OH254684   1.848   0.003   2.686 -0.1858 -0.5181 -0.3475
11090TIP3    H154685   1.770  -0.050   2.669 -1.5382  1.2357  0.2530
11090TIP3    H254686   1.814   0.084   2.723  2.1368 -0.9681  2.9941
11091TIP3   OH254687   5.359   2.655   6.133 -0.0649 -0.2285  0.1921
11091TIP3    H154688   5.400   2.678   6.050 -1.5048 -1.5384 -0.9180
11091TIP3    H254689   5.427   2.669   6.199  0.5222  2.6009 -0.9672
11092TIP3   OH254690   5.625   0.490   0.255  0.0548  0.7591  0.1165
11092TIP3    H154691   5.562   0.562   0.252  0.0752  1.0253  4.1118
11092TIP3    H254692   5.587   0.428   0.317  2.3120 -0.4819  0.3077
11093TIP3   OH254693   3.024   4.556  15.000 -0.2733 -0.0135  0.2053
11093TIP3    H154694   2.970   4.498  15.053 -1.0572 -0.9332 -1.5334
11093TIP3    H254695   2.980   4.640  15.002 -1.2655 -0.5098 -0.4218
11094TIP3   OH254696   3.102   5.415  13.148  0.4944  0.0615 -0.3821
11094TIP3    H154697   3.091   5.354  13.075  1.9924 -0.5482 -0.1098
11094TIP3    H254698   3.116   5.359  13.224 -0.3082  0.7117  0.2580
11095TIP3   OH254699   3.582   5.717   6.585 -0.1879  0.0093  0.2333
11095TIP3    H154700   3.623   5.778   6.525  0.3349 -1.1469 -0.6114
11095TIP3    H254701   3.599   5.631   6.547 -1.6381 -0.6135  0.9484
11096TIP3   OH254702   6.269   1.667   0.207 -0.0303  0.1032 -0.0853
11096TIP3    H154703   6.205   1.737   0.217 -1.0011 -0.8771  0.8078
11096TIP3    H254704   6.343   1.707   0.162 -2.0606  0.7829 -2.9554
11097TIP3   OH254705   0.975   4.983  12.438 -0.2142  0.0243 -0.0942
11097TIP3    H154706   0.898   4.925  12.438 -0.2554  0.0731 -1.4372
11097TIP3    H254707   0.984   5.011  12.347  1.0436  0.5052  0.1756
11098TIP3   OH254708   1.332   5.757  14.948 -0.0250  0.1719  0.6025
11098TIP3    H154709   1.298   5.847  14.953  1.1280  0.6558 -0.0376
11098TIP3    H254710   1.400   5.754  15.016  0.4104 -0.0071  0.1581
11099TIP3   OH254711   5.525   4.819   5.004 -0.0445 -0.4776  0.0593
11099TIP3    H154712   5.613   4.782   5.002  0.1191 -0.1485  0.7845
11099TIP3    H254713   5.467   4.746   4.982  0.3297 -0.9799  0.7194
11100TIP3   OH254714   5.310   6.063   0.204  0.3380  0.3450 -0.2608
11100TIP3    H154715   5.393   6.109   0.218 -0.8494  2.2509  0.6712
11100TIP3    H254716   5.277   6.045   0.292 -0.2028 -0.5083 -0.6254
11101TIP3   OH254717   6.715   3.906   4.473  0.1445  0.1663 -0.2920
11101TIP3    H154718   6.647   3.951   4.423  0.7622  2.0615  0.5396
11101TIP3    H254719   6.735   3.965   4.545  2.2258 -0.6474 -0.1737
11102TIP3   OH254720   1.922   2.480   1.573 -0.3801  0.8133  0.1902
11102TIP3    H154721   1.875   2.475   1.490  0.1223 -1.5969  0.0166
11102TIP3    H254722   1.867   2.430   1.634  1.0418 -0.5206  0.4102
11103TIP3   OH254723   2.407   5.183   0.011  0.5100  0.5263  0.1800
11103TIP3    H154724   2.330   5.236  -0.012 -1.6784 -3.2687 -1.7205
11103TIP3    H254725   2.445   5.158  -0.073  0.1836 -2.6408  0.9184
11104TIP3   OH254726   2.464   3.546   6.063  0.2656  0.4653 -0.3077
11104TIP3    H154727   2.472   3.640   6.077  0.1380  0.4223  0.0625
11104TIP3    H254728   2.403   3.517   6.131  1.1629 -0.0625  0.2852
11105TIP3   OH254729   4.956   3.614   6.173 -0.3955  0.3235  0.1907
11105TIP3    H154730   4.956   3.566   6.091  0.3165  1.1783 -0.3106
11105TIP3    H254731   4.865   3.609   6.204 -0.9602  1.1035 -1.2943
11106TIP3   OH254732   3.274   0.744  12.857 -0.3811 -0.1246  0.2009
11106TIP3    H154733   3.324   0.799  12.918  0.3914 -1.0091  0.3859
11106TIP3    H254734   3.318   0.659  12.861  0.6429  0.1957 -2.7028
11107TIP3   OH254735   2.076   4.843   2.786 -0.4191  0.1087 -0.1196
11107TIP3    H154736   2.166   4.835   2.819 -0.1662  1.0764 -0.5698
11107TIP3    H254737   2.069   4.934   2.758 -1.3873 -0.0967 -0.5425
11108TIP3   OH254738   5.399   1.000  17.201 -0.0701 -0.1736  0.1290
11108TIP3    H154739   5.378   1.039  17.286 -0.4145 -0.0731  0.0005
11108TIP3    H254740   5.452   1.066  17.156  0.7759 -0.5519  0.5715
11109TIP3   OH254741   0.298   5.456  13.421 -0.4717  0.0205  0.1629
11109TIP3    H154742   0.269   5.539  13.460 -0.8442 -0.8482  1.7572
11109TIP3    H254743   0.394   5.464  13.418 -0.5430  0.8102 -0.4142
11110TIP3   OH254744   5.885   6.451  12.850  0.0291 -0.4788 -0.4098
11110TIP3    H154745   5.880   6.408  12.764  0.7465  0.4202 -0.9160
11110TIP3    H254746   5.978   6.445  12.874 -0.0570 -0.1560 -0.0025
11111TIP3   OH254747   2.480   4.193  12.634  0.1786 -0.1807 -0.3156
11111TIP3    H154748   2.433   4.213  12.714  1.9130  2.1053  0.1723
11111TIP3    H254749   2.412   4.178  12.569 -1.2260  0.7540  0.9187
11112TIP3   OH254750   1.594   3.956  14.885  0.7984  0.0477 -0.2835
11112TIP3    H154751   1.586   3.942  14.979  0.5950  0.9071 -0.1632
11112TIP3    H254752   1.643   4.038  14.877 -1.4906  1.4060 -0.8881
11113TIP3   OH254753   6.211   0.116   5.048  0.4815  0.3615 -0.3121
11113TIP3    H154754   6.207   0.209   5.072  0.7737 -0.3026  2.4355
11113TIP3    H254755   6.136   0.103   4.990  0.5522  2.3445 -0.8923
11114TIP3   OH254756   4.019   6.760  16.952 -0.4802  0.1583 -0.2183
11114TIP3    H154757   3.981   6.672  16.950  0.2315 -0.1485 -0.3018
11114TIP3    H254758   4.077   6.763  16.877  0.6921  0.1556  0.6800
11115TIP3   OH254759   4.792   1.878   2.328 -0.0332  0.6056  0.4994
11115TIP3    H154760   4.698   1.891   2.337 -0.1048 -0.6576  1.7263
11115TIP3    H254761   4.801   1.815   2.256 -0.1118  0.9047  0.2278
11116TIP3   OH254762   4.355   4.430   2.357  0.9317 -0.2022 -0.1353
11116TIP3    H154763   4.319   4.497   2.414 -0.4032 -0.3898 -0.7312
11116TIP3    H254764   4.426   4.474   2.310  0.7766  0.4824  0.2620
11117TIP3   OH254765   2.018   6.177  13.898  0.0828 -0.2631  0.4063
11117TIP3    H154766   1.943   6.195  13.842 -0.1881  0.3302  0.9516
11117TIP3    H254767   2.076   6.252  13.885 -0.3131  0.2336  1.4585
11118TIP3   OH254768   1.504   3.582  12.957  0.0567  0.0748 -0.0149
11118TIP3    H154769   1.522   3.490  12.942  1.3606  0.1026  1.2178
11118TIP3    H254770   1.537   3.599  13.046 -1.6594  1.3405  0.4210
11119TIP3   OH254771   0.289   5.497  10.675  0.1019  0.5461  0.2725
11119TIP3    H154772   0.245   5.468  10.595  0.5305  1.6991 -0.3945
11119TIP3    H254773   0.303   5.417  10.725 -0.7124 -0.1095 -0.5410
11120TIP3   OH254774   1.692   4.523   5.407 -0.2207 -0.6363  0.2948
11120TIP3    H154775   1.752   4.461   5.449  1.4991  2.4382  2.5720
11120TIP3    H254776   1.617   4.527   5.467  0.4356  0.6912  1.0683
11121TIP3   OH254777   2.108   3.380  12.450 -0.4429  0.5481 -0.3607
11121TIP3    H154778   2.097   3.286  12.436 -0.8223  0.3401  1.2958
11121TIP3    H254779   2.029   3.407  12.498  0.7976  1.2464  1.3268
11122TIP3   OH254780   0.284   3.556   6.439  0.3444  0.6398 -0.1731
11122TIP3    H154781   0.288   3.484   6.377 -1.2567  0.8574 -0.5464
11122TIP3    H254782   0.303   3.516   6.524 -0.2117 -0.1668 -0.4277
11123TIP3   OH254783   2.780   5.730  12.218  0.0054 -0.1081 -0.0901
11123TIP3    H154784   2.858   5.741  12.272 -1.1529  1.7985  1.2611
11123TIP3    H254785   2.720   5.679  12.273 -0.1929 -0.4627 -0.6297
11124TIP3   OH254786   4.095   0.018   3.493 -0.2700 -0.0303  0.1339
11124TIP3    H154787   4.100  -0.059   3.435 -0.3633  0.3692 -0.4073
11124TIP3    H254788   4.087   0.092   3.433 -1.3740  0.3075  0.6786
11125TIP3   OH254789   6.745   6.517   0.993 -0.0783 -0.0478 -0.3915
11125TIP3    H154790   6.664   6.489   1.036  0.2953 -1.3456 -0.5000
11125TIP3    H254791   6.750   6.611   1.009 -1.3020 -0.0660  0.1228
11126TIP3   OH254792   5.177   2.170   1.107 -0.1901 -0.1003  0.3055
11126TIP3    H154793   5.091   2.149   1.070 -0.0091  0.2130 -0.2937
11126TIP3    H254794   5.166   2.158   1.202 -0.8688 -0.1416  0.2213
11127TIP3   OH254795   6.323   6.737   3.432 -0.1576  0.1586  0.2385
11127TIP3    H154796   6.292   6.786   3.356 -0.9998  1.8883  1.6574
11127TIP3    H254797   6.251   6.679   3.455  0.4015 -0.9512 -0.7404
11128TIP3   OH254798   2.495   6.393  15.091  0.5709 -0.6455  0.6482
11128TIP3    H154799   2.435   6.344  15.034 -0.5618  2.5907 -1.0795
11128TIP3    H254800   2.437   6.436  15.155  1.2346  0.6064  0.4319
11129TIP3   OH254801   1.466   4.629   5.283 -0.6211 -0.7095 -0.5992
11129TIP3    H154802   1.551   4.598   5.314 -0.1087  0.1631 -1.1269
11129TIP3    H254803   1.443   4.700   5.343 -0.6090 -0.4182 -0.9403
11130TIP3   OH254804   6.735   6.504  15.158  0.7065 -0.4384  0.4836
11130TIP3    H154805   6.721   6.599  15.154  0.7943 -0.4116  0.8313
11130TIP3    H254806   6.817   6.491  15.110  0.4155 -0.4025 -0.0322
11131TIP3   OH254807   1.457   1.162   2.401 -0.4226 -0.6942 -0.2570
11131TIP3    H154808   1.434   1.143   2.310 -0.7466  0.1251 -0.3497
11131TIP3    H254809   1.374   1.155   2.449 -0.5387  0.4088 -0.2847
11132TIP3   OH254810   4.233   5.170  10.764 -0.3599 -0.5462  0.2740
11132TIP3    H154811   4.155   5.131  10.723 -0.9576 -0.5647  1.3984
11132TIP3    H254812   4.296   5.098  10.768 -0.4120 -0.6306 -0.2964
11133TIP3   OH254813   0.161   2.891  14.291  0.1423 -0.1052 -0.4340
11133TIP3    H154814   0.173   2.955  14.221 -0.5671 -0.1640 -0.6167
11133TIP3    H254815   0.090   2.835  14.260 -2.1391  1.5623  1.5466
11134TIP3   OH254816   2.872   4.784  16.321  0.1053  0.4616 -0.5656
11134TIP3    H154817   2.849   4.692  16.332  1.0799  0.1686 -0.8817
11134TIP3    H254818   2.789   4.828  16.302 -0.1718 -0.5627 -1.7628
11135TIP3   OH254819   3.219   5.237   2.233  0.5143 -0.2273 -0.0452
11135TIP3    H154820   3.170   5.304   2.282 -0.9776 -2.0201  0.9780
11135TIP3    H254821   3.157   5.166   2.221  1.5463 -0.7201 -2.6940
11136TIP3   OH254822   2.144   0.905  12.761 -0.2814  0.1768  0.0719
11136TIP3    H154823   2.152   0.958  12.841  1.5371  3.5191 -2.1578
11136TIP3    H254824   2.064   0.937  12.719 -0.0718  0.0112 -0.4650
11137TIP3   OH254825   2.615   2.078  15.008  0.4974 -0.7483  0.0131
11137TIP3    H154826   2.604   2.157  14.955  2.4956 -0.8738 -0.6244
11137TIP3    H254827   2.674   2.105  15.079  0.6487 -1.5002  0.1713
11138TIP3   OH254828   2.983   4.092  15.324  0.2249  1.1030  0.0940
11138TIP3    H154829   3.039   4.101  15.401 -1.0074  2.5419  0.8526
11138TIP3    H254830   3.032   4.035  15.264  1.9771  1.4325  1.1975
11139TIP3   OH254831   1.629   5.051   4.966  0.2263  0.3536  0.7807
11139TIP3    H154832   1.550   4.997   4.971 -1.6888  2.6709 -2.2964
11139TIP3    H254833   1.700   4.988   4.951 -1.5965 -1.4993 -0.3525
11140TIP3   OH254834   1.571   1.480  10.980  0.4647  0.5969 -0.0718
11140TIP3    H154835   1.632   1.435  10.923 -0.1580 -0.5237  0.1409
11140TIP3    H254836   1.511   1.526  10.921  1.1181  1.1834 -0.2821
11141TIP3   OH254837   6.084   5.444   4.128 -0.2123  0.5154  0.2484
11141TIP3    H154838   6.166   5.396   4.113 -0.9001 -0.6283  0.1124
11141TIP3    H254839   6.101   5.494   4.208  0.7218  0.5131  0.0623
11142TIP3   OH254840   1.864   1.679  13.671 -0.5490 -0.0460  0.0438
11142TIP3    H154841   1.831   1.650  13.756 -1.2118  0.5026 -0.0189
11142TIP3    H254842   1.883   1.772  13.683 -2.4194  0.4933 -0.9039
11143TIP3   OH254843   0.770   4.384   2.810 -0.0759  0.3109 -0.1353
11143TIP3    H154844   0.797   4.354   2.896 -2.8838  3.2983  1.9431
11143TIP3    H254845   0.706   4.319   2.781 -0.9487  0.5386  1.2020
11144TIP3   OH254846   4.344   5.502   4.017 -0.4006  0.3977  0.1644
11144TIP3    H154847   4.399   5.552   4.076  0.1078  0.5470 -0.4300
11144TIP3    H254848   4.399   5.430   3.987 -0.6772  0.2814 -0.0711
11145TIP3   OH254849   0.358   0.863   0.650 -0.1666 -0.1147  0.8617
11145TIP3    H154850   0.404   0.899   0.726 -0.0381 -1.2025  1.2984
11145TIP3    H254851   0.323   0.779   0.680 -1.0447 -0.0486  0.0436
11146TIP3   OH254852   6.529   6.427  13.925 -0.4053  0.0227  0.5187
11146TIP3    H154853   6.570   6.500  13.879 -3.4275  2.3353  1.2765
11146TIP3    H254854   6.597   6.393  13.983  1.1660  2.0323 -0.1089
11147TIP3   OH254855   1.911   6.143   3.277  0.0254  0.2683  0.2484
11147TIP3    H154856   1.872   6.168   3.193 -0.1029 -1.2063 -0.1449
11147TIP3    H254857   1.956   6.060   3.259 -1.1017 -0.7390  1.9183
11148TIP3   OH254858   6.451   2.175  12.342  0.7493  0.0164  0.0373
11148TIP3    H154859   6.367   2.159  12.298  0.4262  1.2681  0.1902
11148TIP3    H254860   6.507   2.213  12.274  1.0302 -0.3290  0.0730
11149TIP3   OH254861   6.734   0.708  13.281  0.2647 -0.2901  0.5267
11149TIP3    H154862   6.687   0.630  13.311 -0.9765  1.0912  2.2678
11149TIP3    H254863   6.818   0.705  13.327  1.5521 -2.2089 -1.8002
11150TIP3   OH254864   5.450   3.013   3.900  0.1061  0.0059  0.4597
11150TIP3    H154865   5.374   3.026   3.844  0.3716  0.4476  0.1989
11150TIP3    H254866   5.499   2.942   3.859  0.8794  1.0773 -0.4860
11151TIP3   OH254867   3.979   0.450   6.342 -0.1274  0.6299 -0.7315
11151TIP3    H154868   3.912   0.517   6.326 -0.1261  0.6000 -0.8663
11151TIP3    H254869   3.935   0.386   6.398  0.4009  1.5990  0.8243
11152TIP3   OH254870   4.806   6.652  11.115  0.5258  0.0766 -0.0066
11152TIP3    H154871   4.757   6.586  11.065 -3.1117  2.0410  0.7830
11152TIP3    H254872   4.790   6.734  11.069  2.5965  0.9087  0.6884
11153TIP3   OH254873   3.899   5.702  14.621  0.3937  0.6027 -0.5037
11153TIP3    H154874   3.974   5.691  14.563 -0.2823 -3.9830 -0.6961
11153TIP3    H254875   3.861   5.614  14.627 -2.4835  1.9954  2.9308
11154TIP3   OH254876   1.959   5.681  14.067 -0.4035  0.6463  0.3910
11154TIP3    H154877   2.052   5.663  14.055 -0.4733 -0.8506  1.8597
11154TIP3    H254878   1.922   5.598  14.098 -2.3638  1.0188 -0.8716
11155TIP3   OH254879   1.475   5.075  17.154 -0.1130 -0.1467 -0.1152
11155TIP3    H154880   1.506   4.991  17.188  0.5459  0.3387  0.5138
11155TIP3    H254881   1.439   5.120  17.231  0.7783  0.6866 -0.1753
11156TIP3   OH254882   5.063   5.890  12.961  0.1498 -0.5320  0.2496
11156TIP3    H154883   5.058   5.965  12.901 -1.0742 -0.8732 -0.0886
11156TIP3    H254884   5.094   5.928  13.044  0.0643  0.2571 -0.0749
11157TIP3   OH254885   6.428   6.726   5.829 -1.1021  0.0248  0.3119
11157TIP3    H154886   6.443   6.811   5.787 -2.5649  0.3510  0.4327
11157TIP3    H254887   6.500   6.718   5.892  0.3239  0.1613 -1.2340
11158TIP3   OH254888   0.535   1.282  15.288 -0.4095 -0.5327  0.0475
11158TIP3    H154889   0.501   1.344  15.353 -0.6077 -1.4450  0.8224
11158TIP3    H254890   0.621   1.256  15.321  1.4231  2.2533 -2.2273
11159TIP3   OH254891   5.172   1.028   1.045 -0.2886  0.3159 -0.5719
11159TIP3    H154892   5.165   0.933   1.037 -1.1835  0.0762  2.6249
11159TIP3    H254893   5.096   1.061   0.997  0.5229 -0.4832 -2.4981
11160TIP3   OH254894   4.244   5.014  16.683 -0.0293  0.2723  0.5466
11160TIP3    H154895   4.156   5.050  16.693 -0.1607 -0.2782  1.4678
11160TIP3    H254896   4.296   5.087  16.651 -1.0038  0.3798 -0.8276
11161TIP3   OH254897   0.102   2.723   1.290  0.2856 -0.1506  0.6833
11161TIP3    H154898   0.178   2.680   1.330  1.0783 -0.0679 -0.7074
11161TIP3    H254899   0.125   2.732   1.197  0.0413  2.9730  0.8552
11162TIP3   OH254900   0.300   5.173  14.030  0.1612  0.3125 -0.0099
11162TIP3    H154901   0.252   5.247  14.067  0.7694  1.5683 -1.6161
11162TIP3    H254902   0.251   5.149  13.951  1.5741  0.9560 -1.1141
11163TIP3   OH254903   1.213   6.081   2.663  0.8991 -0.2780  0.5151
11163TIP3    H154904   1.154   6.015   2.628 -0.0899  0.3558  0.9364
11163TIP3    H254905   1.284   6.032   2.704  0.5948 -1.0555  0.1134
11164TIP3   OH254906   1.334   2.934   6.575 -0.1056 -0.0494 -0.1196
11164TIP3    H154907   1.253   2.965   6.535 -0.0582  0.6864  0.3519
11164TIP3    H254908   1.395   3.007   6.564  0.0882 -0.0851  0.7456
11165TIP3   OH254909   4.511   1.341   0.057 -0.2547  0.4949  0.6833
11165TIP3    H154910   4.458   1.414   0.088 -0.1040  1.9386 -2.3001
11165TIP3    H254911   4.592   1.382   0.025  0.5710 -1.1638  0.5752
11166TIP3   OH254912   4.043   4.280   3.922  0.2840 -0.0475  0.2355
11166TIP3    H154913   4.070   4.243   3.838  0.2837 -1.3750  0.8197
11166TIP3    H254914   4.046   4.375   3.907 -1.6927 -0.2807 -1.8705
11167TIP3   OH254915   0.943   1.742  12.740  0.1172 -0.0390 -0.2963
11167TIP3    H154916   0.924   1.743  12.834 -1.3930  1.0703 -0.5898
11167TIP3    H254917   0.905   1.660  12.709 -0.7408  0.3220 -0.2033
11168TIP3   OH254918   1.138   2.206   2.036 -0.0102 -0.0635 -0.6266
11168TIP3    H154919   1.101   2.261   2.106  0.6359 -1.0371  0.4903
11168TIP3    H254920   1.149   2.267   1.962  0.1804  1.1920  0.4119
11169TIP3   OH254921   4.994   6.532   1.400 -0.2247  0.2235 -0.4257
11169TIP3    H154922   4.948   6.504   1.321 -1.4011 -0.4376  0.4849
11169TIP3    H254923   4.994   6.455   1.457  1.3074  0.4612 -0.0857
11170TIP3   OH254924   3.424   5.113  13.832 -0.2024  0.1129 -0.3399
11170TIP3    H154925   3.379   5.029  13.834  1.8572 -1.0753 -1.6854
11170TIP3    H254926   3.502   5.100  13.885 -0.2909  1.4597  0.1529
11171TIP3   OH254927   4.271   2.805  15.530  0.3006 -0.3121 -0.2542
11171TIP3    H154928   4.312   2.891  15.518  0.8953 -0.4743  0.5435
11171TIP3    H254929   4.310   2.750  15.462  1.3004 -0.4255  0.4087
11172TIP3   OH254930   5.455   1.997   3.642 -0.3090 -0.5505  0.2186
11172TIP3    H154931   5.477   2.057   3.570  0.5139 -0.9751  0.1103
11172TIP3    H254932   5.360   1.986   3.635 -0.3556  0.0818 -0.2765
11173TIP3   OH254933   4.821   5.635   4.192 -0.2676 -0.1356 -0.2444
11173TIP3    H154934   4.794   5.589   4.272 -3.0386  1.6792 -0.0837
11173TIP3    H254935   4.833   5.725   4.220  0.4285  0.1733 -1.5476
11174TIP3   OH254936   1.573   4.467  13.904  0.1473  0.0291  0.2746
11174TIP3    H154937   1.656   4.426  13.879  0.7612  0.5510  1.4318
11174TIP3    H254938   1.506   4.413  13.862  1.1453  1.1692 -2.9352
11175TIP3   OH254939   5.782   5.593  11.493  0.3672 -0.0216 -0.1341
11175TIP3    H154940   5.767   5.547  11.410 -1.2242  0.1094  0.0674
11175TIP3    H254941   5.864   5.556  11.527  0.3237 -1.0226 -1.1103
11176TIP3   OH254942   4.190   3.439   3.867  0.5061  0.2820  0.9216
11176TIP3    H154943   4.110   3.491   3.878  1.2059  1.4939  0.4529
11176TIP3    H254944   4.209   3.445   3.773  1.2217  0.1229  1.0579
11177TIP3   OH254945   3.992   0.297   5.367  0.3067 -0.2682 -0.1251
11177TIP3    H154946   4.004   0.286   5.461  3.0302 -0.2261 -0.4288
11177TIP3    H254947   3.950   0.382   5.357 -3.1488 -1.7147  1.1842
11178TIP3   OH254948   6.331   2.680   5.690 -0.4280  0.2008 -0.0307
11178TIP3    H154949   6.284   2.758   5.661 -0.6667 -0.4761 -1.4846
11178TIP3    H254950   6.410   2.714   5.732 -0.9638  1.2483  0.1542
11179TIP3   OH254951   2.909   1.070  11.157 -0.2583 -0.0964  0.0055
11179TIP3    H154952   2.813   1.068  11.154 -0.2224 -0.7428 -1.1737
11179TIP3    H254953   2.931   1.159  11.185 -1.1773  0.9733 -2.5065
11180TIP3   OH254954   0.142   6.270   4.692  0.8058  0.3097  0.0643
11180TIP3    H154955   0.169   6.361   4.705 -1.2036  0.9577 -0.1476
11180TIP3    H254956   0.134   6.235   4.781  1.4270  0.3993  0.1522
11181TIP3   OH254957   0.423   0.791  16.357  0.0560 -0.1868  0.0026
11181TIP3    H154958   0.500   0.806  16.301 -1.0898  1.9394 -1.0435
11181TIP3    H254959   0.386   0.709  16.324  0.0568  0.4378 -1.6037
11182TIP3   OH254960   4.859   6.068  12.424 -0.0398  0.3278 -0.2163
11182TIP3    H154961   4.952   6.091  12.432  0.6370 -2.2754 -0.3210
11182TIP3    H254962   4.845   6.054  12.331  0.0998 -1.8364  0.0792
11183TIP3   OH254963   1.992   3.036   3.052 -0.3342  0.2713 -0.4761
11183TIP3    H154964   2.035   2.953   3.029  0.0591  1.3266 -3.9302
11183TIP3    H254965   1.901   3.011   3.068 -0.0272 -0.9787 -0.5552
11184TIP3   OH254966   2.236   5.865  11.149  0.1295  0.3605 -0.3041
11184TIP3    H154967   2.228   5.912  11.066  1.2668  1.0759 -0.0258
11184TIP3    H254968   2.328   5.878  11.174 -0.2895  0.4051  1.2118
11185TIP3   OH254969   5.135   1.522  16.817 -0.6079  0.3547  0.3595
11185TIP3    H154970   5.216   1.551  16.776 -0.9502 -0.7917 -1.1736
11185TIP3    H254971   5.077   1.598  16.811 -0.0924  0.7411  0.2489
11186TIP3   OH254972   4.525   1.710   2.880 -0.4845 -0.4944  0.1087
11186TIP3    H154973   4.604   1.656   2.882  1.3107  2.0354  1.1357
11186TIP3    H254974   4.483   1.689   2.797  1.5725 -1.4937 -0.7233
11187TIP3   OH254975   3.974   2.292   4.744  0.2521  0.5635 -0.1567
11187TIP3    H154976   3.993   2.386   4.750  0.7773  0.4019  0.8363
11187TIP3    H254977   4.018   2.254   4.820  0.2122 -0.5158 -0.6626
11188TIP3   OH254978   2.860   5.672   1.074 -0.6841 -0.1913  0.2938
11188TIP3    H154979   2.792   5.640   1.016 -0.1035 -0.2979 -0.3264
11188TIP3    H254980   2.902   5.743   1.025  1.4099 -1.8822 -0.4160
11189TIP3   OH254981   5.175   3.984   0.374  0.3869 -0.2206  0.5947
11189TIP3    H154982   5.251   4.033   0.405 -1.1009  2.4452  0.1556
11189TIP3    H254983   5.172   3.906   0.430  2.3040  0.6085  1.8949
11190TIP3   OH254984   3.569   4.689   1.206  0.0899 -0.2552 -0.3441
11190TIP3    H154985   3.625   4.655   1.276 -1.2059 -2.3575 -0.2751
11190TIP3    H254986   3.508   4.747   1.250  0.0905 -0.5753  0.0838
11191TIP3   OH254987   2.931   5.880   2.628 -0.2875 -0.2916 -0.3551
11191TIP3    H154988   2.849   5.911   2.588 -0.8156  0.8473  1.5510
11191TIP3    H254989   2.911   5.875   2.721  1.7599 -0.1951  0.1010
11192TIP3   OH254990   5.620   4.915   1.994 -0.1913  0.1372  0.1785
11192TIP3    H154991   5.543   4.863   1.969  0.0044 -0.5612  0.9919
11192TIP3    H254992   5.614   4.921   2.089  0.5097  0.4776  0.2023
11193TIP3   OH254993   4.332   4.322  12.140  0.4498 -0.9643 -0.4699
11193TIP3    H154994   4.337   4.339  12.234  1.3585  0.8980 -0.8295
11193TIP3    H254995   4.276   4.245  12.133 -0.7722 -0.3111  1.5094
11194TIP3   OH254996   1.010   3.189   2.122  0.4895  0.1756  0.0646
11194TIP3    H154997   0.970   3.251   2.061 -1.7760 -0.4939  0.8194
11194TIP3    H254998   1.038   3.116   2.067  1.3790  0.9954 -0.5766
11195TIP3   OH254999   0.406   4.107  13.409  0.2595 -0.3400  0.3588
11195TIP3    H155000   0.431   4.152  13.489 -2.2128  1.7124  0.0359
11195TIP3    H255001   0.428   4.168  13.339 -2.2008  0.0237 -0.1537
11196TIP3   OH255002   2.088   0.928  14.114  0.1205  0.0918  0.8978
11196TIP3    H155003   2.035   0.853  14.141 -0.1682  0.2947  0.8998
11196TIP3    H255004   2.149   0.892  14.049  0.9814 -0.4503  1.9802
11197TIP3   OH255005   2.790   5.238   5.197 -0.3698 -0.1490  0.0337
11197TIP3    H155006   2.831   5.176   5.257 -0.4932 -0.0437  0.2254
11197TIP3    H255007   2.749   5.303   5.254 -1.6242 -0.7749 -0.1313
11198TIP3   OH255008   2.055   5.905   3.253 -0.9351 -0.5005 -0.2530
11198TIP3    H155009   2.099   5.905   3.168 -0.3846 -1.7250  0.0212
11198TIP3    H255010   1.970   5.865   3.235 -0.7507 -0.9185 -0.1882
11199TIP3   OH255011   0.187   2.101   1.514  0.0885 -0.2887 -0.3283
11199TIP3    H155012   0.214   2.050   1.591 -0.3184 -0.2422 -0.1549
11199TIP3    H255013   0.231   2.186   1.526  0.2673 -0.3858 -0.2988
11200TIP3   OH255014   3.197   3.859  14.015  0.0051  0.0181  0.0019
11200TIP3    H155015   3.135   3.911  14.067  0.4835  0.4983  0.0977
11200TIP3    H255016   3.142   3.814  13.951 -0.5910 -0.5648  0.9046
11201TIP3   OH255017   1.017   5.745   4.636 -0.0136 -0.1008  0.2509
11201TIP3    H155018   1.002   5.799   4.713  1.1361 -0.5198  0.7828
11201TIP3    H255019   1.010   5.805   4.562  1.7901  0.8877  0.8663
11202TIP3   OH255020   5.238   5.857   1.437 -0.5936  0.4226 -0.1116
11202TIP3    H155021   5.227   5.931   1.377 -0.6804  1.9948  1.7939
11202TIP3    H255022   5.246   5.897   1.524  0.4099 -1.7600  0.8425
11203TIP3   OH255023   1.365   2.114   0.710 -0.1975 -0.2442 -0.5325
11203TIP3    H155024   1.323   2.034   0.740 -0.2898 -0.6130 -1.6244
11203TIP3    H255025   1.410   2.148   0.787 -0.9636 -0.8262  0.1826
11204TIP3   OH255026   1.807   1.492  14.190  0.0978  0.2234 -0.0494
11204TIP3    H155027   1.726   1.543  14.196 -1.8655 -2.7246 -0.0293
11204TIP3    H255028   1.800   1.428  14.261  2.4360 -0.1436 -0.1008
11205TIP3   OH255029   5.159   4.871  15.560 -1.0126  0.0667 -0.1193
11205TIP3    H155030   5.238   4.909  15.520 -1.7167 -1.6284 -3.2873
11205TIP3    H255031   5.168   4.890  15.653  2.1325  1.6960 -0.6777
11206TIP3   OH255032   2.528   0.194   1.275 -0.8232 -0.2210 -0.0568
11206TIP3    H155033   2.590   0.266   1.285 -0.8226 -0.3209  0.6751
11206TIP3    H255034   2.444   0.231   1.304 -0.7279 -0.6512  0.8067
11207TIP3   OH255035   1.270   5.603  13.945  0.9585 -0.2601 -1.0823
11207TIP3    H155036   1.356   5.566  13.924  0.2554 -0.7886 -3.1833
11207TIP3    H255037   1.263   5.680  13.889  0.1962 -0.0366 -0.6847
11208TIP3   OH255038   1.219   6.093  17.127 -0.2076  0.4836  0.0874
11208TIP3    H155039   1.249   6.130  17.044  1.0663  0.3317  0.4846
11208TIP3    H255040   1.190   6.004  17.105 -0.5511  0.6892 -0.3150
11209TIP3   OH255041   5.379   4.771   1.931 -0.9314 -0.0906 -0.4954
11209TIP3    H155042   5.318   4.741   1.998 -0.1283 -1.9177 -0.5573
11209TIP3    H255043   5.326   4.824   1.873 -1.6399  1.5801  1.5964
11210TIP3   OH255044   2.298   0.192   0.308 -0.1443  0.0040  0.0696
11210TIP3    H155045   2.246   0.271   0.324 -0.1956  0.0725 -0.4354
11210TIP3    H255046   2.277   0.167   0.218 -1.2298 -1.4237  0.7177
11211TIP3   OH255047   6.425   1.246  16.982 -0.4478 -0.2093  0.4826
11211TIP3    H155048   6.443   1.193  17.060  0.1172 -2.5425 -1.1915
11211TIP3    H255049   6.509   1.287  16.961 -0.2018 -0.9295  0.0885
11212TIP3   OH255050   2.499   6.282   2.795  0.2350 -0.5812 -0.0315
11212TIP3    H155051   2.421   6.239   2.760 -1.2778  1.8450  0.2494
11212TIP3    H255052   2.472   6.373   2.810  2.8359  0.0730  0.9954
11213TIP3   OH255053   4.418   3.508  15.010 -0.1228 -0.1171  0.2364
11213TIP3    H155054   4.371   3.589  14.989 -0.1687 -0.3192 -0.4652
11213TIP3    H255055   4.475   3.531  15.083 -0.6738  0.3574  0.5211
11214TIP3   OH255056   1.198   2.965  11.240  0.2803  0.1013  0.1974
11214TIP3    H155057   1.210   2.934  11.330 -1.9985  1.5153  1.0446
11214TIP3    H255058   1.124   2.913  11.207  1.3379 -0.6658 -1.0153
11215TIP3   OH255059   0.258   0.052   4.772  0.0145 -0.3906 -0.1495
11215TIP3    H155060   0.240   0.087   4.684  0.4102  0.2339  0.0145
11215TIP3    H255061   0.341   0.092   4.796  0.5347 -1.5570 -0.0069
11216TIP3   OH255062   1.914   2.232  11.973  0.1673  0.1912  0.3967
11216TIP3    H155063   1.882   2.151  11.934  0.1849 -0.0406  0.8539
11216TIP3    H255064   2.001   2.245  11.934 -0.3170  0.6271 -0.5665
11217TIP3   OH255065   5.914   5.358  13.086  0.5731 -0.4523  0.0907
11217TIP3    H155066   5.987   5.297  13.074  1.4333  0.4044  0.8362
11217TIP3    H255067   5.947   5.442  13.054 -0.0395 -0.0297  0.5467
11218TIP3   OH255068   2.624   5.090  16.633 -0.0186  0.8161  0.0268
11218TIP3    H155069   2.700   5.110  16.687  0.7723 -1.8944 -0.0348
11218TIP3    H255070   2.646   5.126  16.547  0.7756  0.9071  0.2648
11219TIP3   OH255071   1.334   1.414  14.107 -0.5453  0.2090  0.0406
11219TIP3    H155072   1.369   1.361  14.179 -0.8818  1.1685  0.9107
11219TIP3    H255073   1.339   1.356  14.031  1.7389 -0.1080  0.4093
11220TIP3   OH255074   3.011   5.706   3.733  0.8020  0.1073 -0.5039
11220TIP3    H155075   3.106   5.714   3.740  1.0807 -2.9348 -0.3764
11220TIP3    H255076   2.997   5.677   3.642  0.0735 -0.3458 -0.2465
11221TIP3   OH255077   1.908   1.410  11.375 -0.2153  0.3835 -0.3003
11221TIP3    H155078   1.949   1.480  11.426  1.0813 -0.5393 -0.0338
11221TIP3    H255079   1.963   1.333  11.393 -2.7295 -1.1847  0.9710
11222TIP3   OH255080   3.490   5.181  13.083  0.8813 -0.0320 -0.4107
11222TIP3    H155081   3.517   5.118  13.150  1.9330 -0.5732 -1.3216
11222TIP3    H255082   3.435   5.130  13.024  1.0063  0.1235 -0.6608
11223TIP3   OH255083   6.549   6.328  15.277  0.7091  0.2088 -0.0420
11223TIP3    H155084   6.591   6.245  15.299  1.9486  0.3500 -1.7347
11223TIP3    H255085   6.620   6.384  15.247 -0.6684  0.3955 -3.1718
11224TIP3   OH255086   1.724   3.154  11.880 -0.1792 -0.2256  0.2678
11224TIP3    H155087   1.746   3.071  11.922  0.1761 -1.0592 -1.5215
11224TIP3    H255088   1.772   3.153  11.797 -1.3629  1.0860 -0.4618
11225TIP3   OH255089   0.410   0.326   6.341 -0.2397  0.1910  0.4626
11225TIP3    H155090   0.489   0.275   6.358 -1.0200 -0.9158  0.8389
11225TIP3    H255091   0.370   0.337   6.427 -0.5639  0.6369  0.2566
11226TIP3   OH255092   0.179   6.359   1.283 -0.0399 -0.4458  0.0379
11226TIP3    H155093   0.187   6.411   1.203 -0.7332 -1.5089 -0.7409
11226TIP3    H255094   0.180   6.423   1.354 -1.0086  0.6331 -0.9078
11227TIP3   OH255095   4.639   4.920   0.443 -0.3589 -0.4729  0.3456
11227TIP3    H155096   4.641   4.890   0.353  0.6556  0.6703 -0.0256
11227TIP3    H255097   4.693   4.999   0.444  0.6880 -1.1805  2.2203
11228TIP3   OH255098   2.850   4.176  12.135 -0.1483 -0.3066 -0.3236
11228TIP3    H155099   2.825   4.199  12.046  0.3373  0.5932 -0.2268
11228TIP3    H255100   2.823   4.251  12.188 -1.2355 -1.2014  0.4218
11229TIP3   OH255101   6.138   2.652  15.121 -0.7758  0.2365  0.4312
11229TIP3    H155102   6.111   2.562  15.108 -1.4496  0.5227 -0.2206
11229TIP3    H255103   6.213   2.647  15.180 -1.0048 -0.7185  0.6430
11230TIP3   OH255104   3.451   0.137  15.778 -0.0135 -0.2812 -0.4204
11230TIP3    H155105   3.385   0.163  15.841 -0.8738 -1.0069 -1.0167
11230TIP3    H255106   3.403   0.124  15.696  1.1608  1.2361 -1.4012
11231TIP3   OH255107   1.623   1.859   4.335 -0.8887  0.4814 -0.2613
11231TIP3    H155108   1.573   1.814   4.403  1.5856 -0.3538  1.0707
11231TIP3    H255109   1.603   1.952   4.348 -3.4562  0.0568 -0.9227
11232TIP3   OH255110   3.771   0.660   5.127 -0.3299  0.7046  0.3376
11232TIP3    H155111   3.691   0.629   5.084 -0.4978  0.6677  0.6737
11232TIP3    H255112   3.803   0.583   5.174  0.4132  0.4611 -0.5548
11233TIP3   OH255113   2.537   6.657  12.029 -0.4097  0.2101  0.5203
11233TIP3    H155114   2.534   6.722  12.099 -0.0480 -1.5238  2.1881
11233TIP3    H255115   2.446   6.628  12.020 -0.7207  1.5554 -0.8368
11234TIP3   OH255116   0.077   1.997  12.749  0.5442 -0.1801  0.0880
11234TIP3    H155117   0.048   1.988  12.658  2.1205 -0.2077 -0.4286
11234TIP3    H255118   0.173   2.000  12.743  0.6629 -0.3796  1.7669
11235TIP3   OH255119   3.223   1.949   3.724  0.0733 -0.7591 -0.3030
11235TIP3    H155120   3.132   1.929   3.703  0.0872 -1.0197 -0.1212
11235TIP3    H255121   3.223   1.962   3.819 -0.2822  1.9231 -0.6386
11236TIP3   OH255122   1.770   1.755  10.826  0.2936 -0.5406  0.6158
11236TIP3    H155123   1.840   1.698  10.793 -0.3865 -1.3833  0.6241
11236TIP3    H255124   1.727   1.789  10.748  1.5696  1.0839  0.5778
11237TIP3   OH255125   5.937   1.430  12.152  0.0024  0.2337  0.0941
11237TIP3    H155126   5.876   1.363  12.184  0.7672 -1.5649 -2.0594
11237TIP3    H255127   6.005   1.435  12.220 -0.9737  0.0728  1.0917
11238TIP3   OH255128   6.053   2.118  14.804 -0.1410 -0.2601  0.3547
11238TIP3    H155129   5.984   2.052  14.809 -0.5052 -0.0541 -1.6055
11238TIP3    H255130   6.134   2.070  14.822 -0.7203 -0.6222  2.0399
11239TIP3   OH255131   0.877   2.874  17.097  0.1249  0.3582  0.1114
11239TIP3    H155132   0.831   2.804  17.145 -1.6961  2.0388  0.9051
11239TIP3    H255133   0.855   2.857  17.005  0.4891 -0.6604  0.2024
11240TIP3   OH255134   4.387   0.840   6.091 -0.4185  0.2202  0.1392
11240TIP3    H155135   4.419   0.885   6.170  0.1189 -1.8599  1.1508
11240TIP3    H255136   4.411   0.898   6.019  3.0096  0.1881  1.1366
11241TIP3   OH255137   1.117   1.518  11.401  0.1348  0.2602  0.2047
11241TIP3    H155138   1.058   1.532  11.326  2.5061  1.0850 -1.5768
11241TIP3    H255139   1.165   1.438  11.378  0.7300  0.4035  0.9470
11242TIP3   OH255140   2.431   0.248   1.768  0.1800 -0.2954  0.5060
11242TIP3    H155141   2.388   0.164   1.753 -2.6528  1.6316 -2.9688
11242TIP3    H255142   2.505   0.249   1.708 -0.6281  0.2592 -0.4833
11243TIP3   OH255143   2.745   5.009   5.470 -0.4560 -0.2758 -0.0360
11243TIP3    H155144   2.825   5.031   5.422 -0.3143 -0.0909  0.2799
11243TIP3    H255145   2.762   5.040   5.559 -1.6856  1.6907 -0.4552
11244TIP3   OH255146   4.627   6.547   1.893 -0.4973  0.0771 -0.1124
11244TIP3    H155147   4.652   6.639   1.879  1.4937 -0.2216  1.2935
11244TIP3    H255148   4.634   6.507   1.807 -0.5489  1.0480 -0.5766
11245TIP3   OH255149   4.767   1.817  13.649 -0.6426 -0.5087 -0.3569
11245TIP3    H155150   4.674   1.802  13.630 -1.0715  2.7651 -1.1510
11245TIP3    H255151   4.777   1.913  13.646  2.8902 -0.8241 -0.8885
11246TIP3   OH255152   4.623   5.233   1.312 -0.2196  0.2273 -0.2263
11246TIP3    H155153   4.555   5.213   1.377  2.9038 -0.6707  2.8755
11246TIP3    H255154   4.654   5.147   1.283  1.5491  0.6086  0.5052
11247TIP3   OH255155   1.064   5.876  17.026  0.0992 -0.1583  0.3112
11247TIP3    H155156   1.044   5.863  16.933  0.7028  0.9100  0.0276
11247TIP3    H255157   1.107   5.794  17.052  2.8043  0.7227 -1.1654
11248TIP3   OH255158   5.266   4.624  11.530 -0.0906 -0.3864 -0.3176
11248TIP3    H155159   5.272   4.670  11.446  2.5762 -2.6475 -1.4669
11248TIP3    H255160   5.350   4.639  11.572 -1.0374 -0.1139  1.5313
11249TIP3   OH255161   5.458   2.788   5.908  0.1188  0.3968  0.2919
11249TIP3    H155162   5.430   2.727   5.840  0.9401  0.7723 -0.4098
11249TIP3    H255163   5.554   2.784   5.905  0.1556 -0.3657  2.1530
11250TIP3   OH255164   6.094   5.957   2.585 -0.0662  0.6966 -0.6745
11250TIP3    H155165   6.005   5.927   2.607 -0.1298  0.5185 -1.1657
11250TIP3    H255166   6.095   5.959   2.489  1.0044 -0.9856 -0.7223
11251TIP3   OH255167   0.970   4.029  16.337 -0.2887 -0.6118 -0.7340
11251TIP3    H155168   1.046   4.021  16.395 -0.2682  0.7270 -0.5748
11251TIP3    H255169   0.921   3.948  16.352 -0.0116 -0.5247  0.7520
11252TIP3   OH255170   0.755   6.094  10.578  0.0457  0.2495 -0.3641
11252TIP3    H155171   0.705   6.114  10.499 -0.6113 -0.1767 -0.0563
11252TIP3    H255172   0.827   6.157  10.577  0.6231 -0.4182 -1.8429
11253TIP3   OH255173   3.236   3.297  16.560  0.0444  0.2385  0.0126
11253TIP3    H155174   3.328   3.325  16.562  0.7939 -2.0936  0.1305
11253TIP3    H255175   3.236   3.211  16.604 -1.7699 -0.9382 -2.1662
11254TIP3   OH255176   4.083   6.706   0.438 -0.5491  0.2026  0.6020
11254TIP3    H155177   4.131   6.651   0.499  0.0727  0.5764  0.4533
11254TIP3    H255178   4.083   6.793   0.479 -0.9070  0.2549  0.4964
11255TIP3   OH255179   1.198   2.825  14.311  0.4202  0.0911 -0.3024
11255TIP3    H155180   1.151   2.818  14.394 -0.1889  1.3480 -0.5297
11255TIP3    H255181   1.273   2.881  14.331  2.3313 -2.5668  0.2579
11256TIP3   OH255182   1.723   4.251  15.624  0.1226  0.0216 -0.0062
11256TIP3    H155183   1.662   4.267  15.553  1.4340 -3.9363 -2.1965
11256TIP3    H255184   1.789   4.320  15.616 -0.8265  0.7856 -1.3670
11257TIP3   OH255185   4.153   1.180  14.441  0.2743 -0.1356 -0.2392
11257TIP3    H155186   4.145   1.110  14.377  3.2040  0.3621 -1.2329
11257TIP3    H255187   4.183   1.256  14.391 -0.5762  1.1950  1.1998
11258TIP3   OH255188   1.239   2.700  12.308  0.1425  0.4993 -0.4643
11258TIP3    H155189   1.309   2.753  12.270 -0.3078  1.2429 -0.2583
11258TIP3    H255190   1.165   2.759  12.315 -0.6872 -0.4322 -1.1842
11259TIP3   OH255191   3.468   3.126   2.234  0.2040  0.0526 -0.6935
11259TIP3    H155192   3.404   3.196   2.246  1.3776  1.2069 -1.1294
11259TIP3    H255193   3.418   3.056   2.192 -0.9137  0.7152 -0.5091
11260TIP3   OH255194   0.437   4.891  15.400 -0.1159 -0.6121  0.3607
11260TIP3    H155195   0.381   4.925  15.470  0.7427  1.3793  0.1301
11260TIP3    H255196   0.517   4.863  15.445  0.1746  0.0585  0.2775
11261TIP3   OH255197   3.214   2.413  14.683  0.0025 -0.5071 -0.1962
11261TIP3    H155198   3.287   2.441  14.738 -0.1955 -1.7726  0.7238
11261TIP3    H255199   3.168   2.494  14.661  3.5695  0.7619 -3.5785
11262TIP3   OH255200   6.404   5.811  13.197  0.0482  0.8407 -0.2257
11262TIP3    H155201   6.459   5.740  13.231  1.3959  1.6870 -0.6248
11262TIP3    H255202   6.466   5.877  13.167 -1.1873  1.5334 -1.2663
11263TIP3   OH255203   4.956   1.750  12.585  0.2300 -0.0811 -0.1041
11263TIP3    H155204   5.030   1.792  12.629 -0.1847  1.8898 -1.2344
11263TIP3    H255205   4.993   1.719  12.502  0.0322 -0.0635 -0.1991
11264TIP3   OH255206   4.150   6.479  13.408 -0.4907 -0.3498 -0.2708
11264TIP3    H155207   4.222   6.535  13.436  0.0541 -0.7773 -0.8040
11264TIP3    H255208   4.096   6.468  13.486 -0.2309  0.3546  0.0058
11265TIP3   OH255209   3.251   3.464   3.783 -0.0391 -0.0704 -0.2092
11265TIP3    H155210   3.283   3.380   3.751  0.1152  0.2869 -1.0103
11265TIP3    H255211   3.315   3.528   3.750  0.5980  0.2210  1.5412
11266TIP3   OH255212   1.231   4.556   3.029 -0.2672  0.1845  0.1448
11266TIP3    H155213   1.152   4.579   2.980 -0.3040 -1.8035 -0.7811
11266TIP3    H255214   1.290   4.518   2.964  1.2214  1.0466  0.9444
11267TIP3   OH255215   3.722   2.758   5.118 -0.1671  0.2048 -1.0733
11267TIP3    H155216   3.772   2.736   5.197  0.1489  1.7850 -0.8252
11267TIP3    H255217   3.676   2.839   5.140 -0.2056  0.5773 -2.4660
11268TIP3   OH255218   6.111   6.629   5.310  0.5466  0.1003  0.5027
11268TIP3    H155219   6.052   6.629   5.236 -0.7313 -0.7123  1.4954
11268TIP3    H255220   6.093   6.546   5.356  1.3765  0.5350  1.6595
11269TIP3   OH255221   4.013   1.833   1.345  0.4383  0.3117 -0.9120
11269TIP3    H155222   4.104   1.831   1.316  0.3178 -0.5638 -1.2701
11269TIP3    H255223   3.996   1.924   1.367  2.1527  0.1074  1.5525
11270TIP3   OH255224   6.355   6.660   5.181 -0.0416 -0.0137  0.0466
11270TIP3    H155225   6.290   6.655   5.251 -2.6512 -1.5292 -2.3445
11270TIP3    H255226   6.338   6.745   5.138  0.3212  0.0977  0.1213
11271TIP3   OH255227   6.179   3.828  15.475  0.0981 -0.3030 -0.4025
11271TIP3    H155228   6.239   3.757  15.498 -0.3477 -0.9481 -1.1577
11271TIP3    H255229   6.218   3.867  15.396 -0.2466 -0.4526 -0.6488
11272TIP3   OH255230   3.560   4.908   6.098  0.1755  0.4327 -0.4734
11272TIP3    H155231   3.650   4.934   6.076  0.6031  0.6318  1.4339
11272TIP3    H255232   3.522   4.986   6.139 -0.6481  0.1226 -0.6454
11273TIP3   OH255233   1.136   0.471  17.017 -0.7115 -0.0290  0.4914
11273TIP3    H155234   1.045   0.464  16.986  0.1973  0.8800 -2.5815
11273TIP3    H255235   1.164   0.558  16.988  0.9613 -0.0686  1.9406
11274TIP3   OH255236   6.041   1.155  14.752 -0.2773 -0.4127 -0.6023
11274TIP3    H155237   6.121   1.123  14.794 -0.1264 -0.0550 -0.6125
11274TIP3    H255238   6.045   1.121  14.663  0.8502  1.2267 -1.2114
11275TIP3   OH255239   3.267   6.740  11.230  0.1911 -0.3101 -0.0040
11275TIP3    H155240   3.317   6.821  11.236 -1.0922  0.4065  1.2904
11275TIP3    H255241   3.261   6.709  11.320  0.9153 -2.0149 -0.5162
11276TIP3   OH255242   5.794   6.747   0.598 -0.0229 -0.1692  0.6451
11276TIP3    H155243   5.865   6.805   0.570  2.4536 -2.9716  0.8875
11276TIP3    H255244   5.785   6.764   0.691  1.0710 -0.5289  0.8262
11277TIP3   OH255245   4.548   0.368   2.698  0.0571 -0.1021  0.3650
11277TIP3    H155246   4.590   0.441   2.744 -0.9198  1.0210 -0.5135
11277TIP3    H255247   4.476   0.408   2.650 -1.4900 -1.8826  1.1471
11278TIP3   OH255248   1.222   2.677  16.279 -0.5221 -0.8770  0.1658
11278TIP3    H155249   1.176   2.601  16.315  0.9944 -2.3897 -1.0472
11278TIP3    H255250   1.313   2.650  16.275  0.1639  1.3051  0.4369
11279TIP3   OH255251   4.701   3.463  11.442  0.2767 -0.2748  0.2460
11279TIP3    H155252   4.655   3.495  11.364 -0.0871 -2.6310 -0.5362
11279TIP3    H255253   4.716   3.542  11.494 -0.4342  1.1952 -1.6956
11280TIP3   OH255254   4.207   3.242  12.343 -0.1321  0.3258 -0.3576
11280TIP3    H155255   4.175   3.300  12.273 -2.4791 -0.6864 -0.1708
11280TIP3    H255256   4.183   3.288  12.424  1.4239  0.8853 -0.2081
11281TIP3   OH255257   6.158   6.397  12.902 -0.3150 -0.3893 -0.3123
11281TIP3    H155258   6.169   6.359  12.989 -2.0228 -1.3123 -0.4688
11281TIP3    H255259   6.211   6.476  12.903  1.8108 -1.8011  0.6556
11282TIP3   OH255260   2.914   6.418   2.635  0.0781 -0.2503 -0.4368
11282TIP3    H155261   2.939   6.332   2.600  1.0367 -0.4538  0.7021
11282TIP3    H255262   2.891   6.470   2.558  1.4003 -0.9283 -1.3067
11283TIP3   OH255263   0.327   0.869   3.234  0.1598 -0.4324  0.0557
11283TIP3    H155264   0.375   0.802   3.282 -0.3849  0.6610  2.1549
11283TIP3    H255265   0.267   0.819   3.177  1.1801 -1.7351  0.1046
11284TIP3   OH255266   5.087   2.421  14.819 -0.0454 -0.3746 -0.1185
11284TIP3    H155267   5.043   2.352  14.769 -0.2270  0.7883 -1.6097
11284TIP3    H255268   5.031   2.498  14.809  0.4506  0.1522  1.0290
11285TIP3   OH255269   6.338   0.756   5.574 -0.5857 -0.5047 -0.4103
11285TIP3    H155270   6.405   0.823   5.584 -1.3120  0.1584  0.0310
11285TIP3    H255271   6.302   0.745   5.662 -2.1355  0.2617 -0.9398
11286TIP3   OH255272   0.026   3.701  16.919  0.2726 -0.0453  0.4385
11286TIP3    H155273   0.046   3.758  16.993 -0.3039 -1.7524  1.9513
11286TIP3    H255274  -0.067   3.682  16.928  0.0464  0.2419 -1.1148
11287TIP3   OH255275   5.384   1.588   5.683  0.2011 -0.4868 -0.5301
11287TIP3    H155276   5.312   1.588   5.746  0.3807  0.6450 -0.3118
11287TIP3    H255277   5.426   1.673   5.694  2.4685 -1.6813  0.3633
11288TIP3   OH255278   6.221   6.327   0.975 -0.3258 -0.6999  0.2755
11288TIP3    H155279   6.315   6.306   0.974 -0.0603  0.4756  0.4702
11288TIP3    H255280   6.179   6.249   0.938  0.8276 -0.7435 -0.9798
11289TIP3   OH255281   2.065   5.139  15.567  0.2389  0.1007  0.1884
11289TIP3    H155282   2.133   5.084  15.529 -0.6619 -0.2917 -0.9051
11289TIP3    H255283   1.993   5.135  15.503 -0.8513  0.3878  1.3758
11290TIP3   OH255284   6.493   0.383   3.591  0.0669 -0.1755 -0.4672
11290TIP3    H155285   6.453   0.297   3.603 -0.1207 -0.0225 -0.0121
11290TIP3    H255286   6.422   0.438   3.559 -0.5672  0.5579  2.0649
11291TIP3   OH255287   3.607   6.640  12.940  0.0074  0.2160  0.0981
11291TIP3    H155288   3.702   6.646  12.952 -0.0357  0.6752  0.2173
11291TIP3    H255289   3.584   6.721  12.894 -0.0718 -0.7021 -1.5144
11292TIP3   OH255290   2.946   2.103   3.150 -0.1604 -0.5829 -0.7238
11292TIP3    H155291   2.891   2.099   3.072  0.2945 -2.1108 -0.9817
11292TIP3    H255292   2.885   2.099   3.223 -0.5626  0.4503 -1.0033
11293TIP3   OH255293   4.220   6.229   3.859 -0.0647 -0.7273  0.1734
11293TIP3    H155294   4.308   6.247   3.892 -0.2823  1.8382 -0.5403
11293TIP3    H255295   4.231   6.220   3.764 -0.6189  0.0179  0.0332
11294TIP3   OH255296   3.566   6.405  15.364 -0.3663 -0.2575 -0.5740
11294TIP3    H155297   3.531   6.339  15.424  0.1121 -1.0524 -1.1728
11294TIP3    H255298   3.505   6.405  15.291  0.0361 -0.5572 -0.9106
11295TIP3   OH255299   3.728   5.284   0.393 -0.0451  0.1722  0.5333
11295TIP3    H155300   3.765   5.214   0.341  1.8056  3.1936 -2.4246
11295TIP3    H255301   3.803   5.324   0.437 -0.9268  0.9076  1.3989
11296TIP3   OH255302   0.361   1.798   3.237  0.3663 -0.3983 -0.2041
11296TIP3    H155303   0.392   1.777   3.324  1.9417 -1.4728 -1.0014
11296TIP3    H255304   0.353   1.894   3.236 -0.7269 -0.4640  1.4403
11297TIP3   OH255305   1.505   0.100  11.917  0.6877 -0.5278 -0.0029
11297TIP3    H155306   1.482   0.165  11.851 -2.6418 -3.0757 -1.5147
11297TIP3    H255307   1.499   0.147  12.000 -0.3139  1.4422 -1.1470
11298TIP3   OH255308   1.552   0.227   5.856  0.0135 -0.0639 -0.3540
11298TIP3    H155309   1.502   0.274   5.922  0.0695 -0.5557  0.0405
11298TIP3    H255310   1.630   0.281   5.842  0.0605 -0.0207  0.0734
11299TIP3   OH255311   2.876   5.425   6.115  0.5867  0.2211  0.6557
11299TIP3    H155312   2.819   5.486   6.069  0.1350 -0.5848  0.1271
11299TIP3    H255313   2.961   5.468   6.117  0.6659  0.1587 -1.1569
11300TIP3   OH255314   2.170   2.739   3.868  0.1475  0.1086 -0.0701
11300TIP3    H155315   2.192   2.686   3.792  1.5944  2.6300 -1.4218
11300TIP3    H255316   2.088   2.699   3.901  1.1386 -2.8996 -1.0513
11301TIP3   OH255317   6.383   4.272   4.935  0.3957 -0.0585  0.4700
11301TIP3    H155318   6.357   4.185   4.905 -1.8717  0.9934 -0.7307
11301TIP3    H255319   6.326   4.289   5.010 -0.2598  1.0105 -0.2593
11302TIP3   OH255320   1.266   1.313   6.131 -0.0237  0.6594 -0.1553
11302TIP3    H155321   1.345   1.353   6.170 -0.4777  0.2313  1.2428
11302TIP3    H255322   1.199   1.380   6.140 -0.5502 -0.0485  1.3357
11303TIP3   OH255323   2.301   5.618   5.542  0.2231 -0.6601  0.4572
11303TIP3    H155324   2.387   5.594   5.577  0.4777 -2.7530 -1.4856
11303TIP3    H255325   2.246   5.632   5.619  2.0211 -0.3738  1.7099
11304TIP3   OH255326   3.374   3.843  17.227  0.1160  0.3445  0.0218
11304TIP3    H155327   3.350   3.902  17.156  1.3458 -0.4569 -1.0602
11304TIP3    H255328   3.465   3.820  17.211 -0.5870 -2.5745 -0.1094
11305TIP3   OH255329   1.229   0.081   4.291 -0.2908  0.0184 -0.1950
11305TIP3    H155330   1.175   0.026   4.234  0.0535 -0.0979 -0.4124
11305TIP3    H255331   1.319   0.060   4.266 -0.1550  0.5739 -0.1759
11306TIP3   OH255332   5.828   2.160  11.851 -0.0325 -0.1603 -0.2288
11306TIP3    H155333   5.869   2.237  11.813 -0.6868  0.5987  0.5956
11306TIP3    H255334   5.900   2.114  11.895  0.1713  0.4726  0.0938
11307TIP3   OH255335   6.196   0.044  11.720 -0.0185  1.0580  0.5178
11307TIP3    H155336   6.290   0.047  11.701  0.0413 -0.4523  0.5834
11307TIP3    H255337   6.179  -0.046  11.747 -1.5934  1.1827 -0.0133
11308TIP3   OH255338   0.275   1.851   6.516  0.1069 -0.7232 -0.2947
11308TIP3    H155339   0.214   1.783   6.485 -0.9447 -0.6541  1.5329
11308TIP3    H255340   0.346   1.802   6.557  0.0235 -0.7567 -0.1889
11309TIP3   OH255341   3.579   2.236  15.508  0.5407 -0.9171  0.2362
11309TIP3    H155342   3.667   2.238  15.546 -0.7250 -1.8828  3.2941
11309TIP3    H255343   3.534   2.312  15.546  0.0579 -0.3346 -1.4397
11310TIP3   OH255344   4.371   2.057  13.373  0.2235  0.4950  0.6070
11310TIP3    H155345   4.277   2.069  13.357  0.3603 -0.4510 -1.0484
11310TIP3    H255346   4.389   2.108  13.452 -1.7982  0.2182  1.2768
11311TIP3   OH255347   2.803   6.556  12.526  0.5930  0.0971 -0.0154
11311TIP3    H155348   2.881   6.607  12.505  1.2761 -0.5473  0.9224
11311TIP3    H255349   2.791   6.499  12.450  2.6103 -1.6893  0.9737
11312TIP3   OH255350   3.235   5.111  16.100  0.6497  0.4392 -0.3022
11312TIP3    H155351   3.309   5.087  16.157 -0.9777 -0.5079  1.4469
11312TIP3    H255352   3.174   5.038  16.107 -0.6336  1.3803 -1.4543
11313TIP3   OH255353   1.962   0.335  16.744 -0.3746 -0.2022 -0.2770
11313TIP3    H155354   1.909   0.343  16.664  0.7053  0.1195 -0.9731
11313TIP3    H255355   1.909   0.376  16.812 -1.4871 -0.8305 -0.7451
11314TIP3   OH255356   5.222   1.752  12.117  0.5025  0.2625 -0.1260
11314TIP3    H155357   5.206   1.834  12.071  1.1808  0.1834 -0.5157
11314TIP3    H255358   5.213   1.685  12.050 -0.8614 -0.0505  0.3677
11315TIP3   OH255359   2.854   4.965   3.997 -0.1454  0.4068 -0.0992
11315TIP3    H155360   2.918   4.989   4.064 -1.7691 -0.6516  1.9292
11315TIP3    H255361   2.835   4.872   4.014 -1.7017  0.5226 -1.0612
11316TIP3   OH255362   6.518   1.841  13.300 -0.5422  0.5202  0.1497
11316TIP3    H155363   6.593   1.797  13.341 -1.8998 -1.3613  0.6564
11316TIP3    H255364   6.471   1.880  13.374 -0.9024  0.3951 -0.0158
11317TIP3   OH255365   4.557   6.033   0.095  0.0717  0.3634  0.4574
11317TIP3    H155366   4.562   5.970   0.023 -0.8242  1.5380 -0.6635
11317TIP3    H255367   4.581   5.983   0.173 -0.1294 -1.2273 -0.4806
11318TIP3   OH255368   1.810   0.511  16.938 -0.5165 -0.3103  0.2601
11318TIP3    H155369   1.728   0.561  16.943 -0.0626  0.7032 -2.0505
11318TIP3    H255370   1.875   0.573  16.907  0.6866 -1.6562  0.0059
11319TIP3   OH255371   0.199   3.631  10.822 -0.3968 -0.2412  0.0455
11319TIP3    H155372   0.168   3.559  10.877 -1.6739  0.6795  0.5605
11319TIP3    H255373   0.294   3.620  10.819 -0.4001 -0.8590  1.6657
11320TIP3   OH255374   4.379   5.185  13.005 -0.2032  0.5542 -0.0080
11320TIP3    H155375   4.324   5.224  13.073 -2.8478 -1.3513 -0.9717
11320TIP3    H255376   4.401   5.258  12.947 -1.1194  1.4705  0.7823
11321TIP3   OH255377   3.644   3.515   5.446 -0.2852 -0.7044  0.6323
11321TIP3    H155378   3.674   3.591   5.397  0.7166 -0.8853  0.9437
11321TIP3    H255379   3.554   3.536   5.471 -0.0031  0.3861  0.7509
11322TIP3   OH255380   5.763   2.928   3.590  0.1186  0.1655  0.3345
11322TIP3    H155381   5.780   2.943   3.497 -0.9053 -2.1112 -0.2677
11322TIP3    H255382   5.670   2.904   3.593  0.7256 -2.1416  1.6241
11323TIP3   OH255383   1.025   5.628   0.319 -0.1092 -0.3446 -0.0250
11323TIP3    H155384   1.008   5.715   0.281 -0.3237  0.0911  1.0403
11323TIP3    H255385   0.940   5.599   0.352 -0.5168 -1.9658 -2.3385
11324TIP3   OH255386   5.182   6.700  15.796 -0.1817 -0.0669 -0.0768
11324TIP3    H155387   5.172   6.623  15.740 -4.9994  1.7858 -2.0231
11324TIP3    H255388   5.128   6.679  15.873 -0.1804  0.6955  0.1287
11325TIP3   OH255389   4.709   0.943  15.476  0.5109  0.0936 -0.2921
11325TIP3    H155390   4.791   0.934  15.428  1.7003  0.5688  1.5945
11325TIP3    H255391   4.691   1.037  15.475 -0.9558 -0.1729 -2.1823
11326TIP3   OH255392   3.458   2.002   3.605 -0.3691 -0.2665 -0.4142
11326TIP3    H155393   3.430   2.082   3.560  0.5645  1.0257  1.2791
11326TIP3    H255394   3.379   1.969   3.647  0.0645  2.0338  2.3101
11327TIP3   OH255395   3.610   6.642  10.612 -0.2448  0.5872  0.2944
11327TIP3    H155396   3.570   6.633  10.698 -2.5388  0.7854 -0.7014
11327TIP3    H255397   3.597   6.734  10.588 -0.1140  0.4161 -0.4723
11328TIP3   OH255398   0.907   0.185  11.486  0.1797 -0.3973 -0.1967
11328TIP3    H155399   0.861   0.125  11.545 -1.8613  0.0310 -1.3198
11328TIP3    H255400   0.911   0.268  11.533 -1.3079 -0.0993 -0.5648
11329TIP3   OH255401   1.542   2.557  11.839  0.5053  0.6955 -0.2988
11329TIP3    H155402   1.470   2.496  11.823  0.4704  0.8141 -0.6128
11329TIP3    H255403   1.621   2.505  11.821  0.5310  0.3363  0.8260
11330TIP3   OH255404   5.692   0.355   1.931  0.1046 -0.2385 -0.3758
11330TIP3    H155405   5.738   0.271   1.927  1.6433  0.6331 -1.5753
11330TIP3    H255406   5.602   0.332   1.953  0.6183 -2.1593 -0.1564
11331TIP3   OH255407   2.894   0.263   1.751 -0.0280  0.5018  0.3605
11331TIP3    H155408   2.907   0.353   1.778  0.9700  0.4203  0.1757
11331TIP3    H255409   2.981   0.224   1.755 -0.2016 -0.0568 -0.9592
11332TIP3   OH255410   0.309   2.366   2.177  0.0118 -0.3537  0.2782
11332TIP3    H155411   0.215   2.360   2.161 -0.5358  0.4725  2.9292
11332TIP3    H255412   0.338   2.275   2.183 -0.8662 -0.6155  0.6900
11333TIP3   OH255413   4.192   4.444   4.887  0.4804  0.3470 -0.0345
11333TIP3    H155414   4.210   4.538   4.886  2.0544  0.0575 -0.7868
11333TIP3    H255415   4.277   4.404   4.899  0.3480 -1.0795 -3.3830
11334TIP3   OH255416   6.269   5.315  14.771  0.1386  0.3660 -0.4170
11334TIP3    H155417   6.238   5.386  14.827  1.7770  0.8458 -0.0900
11334TIP3    H255418   6.325   5.358  14.706 -0.1597 -0.4320 -1.2173
11335TIP3   OH255419   3.274   5.854   3.411  0.0573  0.0147  0.1519
11335TIP3    H155420   3.318   5.782   3.457 -2.0248 -0.3137  1.7590
11335TIP3    H255421   3.272   5.925   3.475 -1.5035  0.0853  0.0541
11336TIP3   OH255422   3.649   1.167   6.199 -0.2759  0.2066  0.4386
11336TIP3    H155423   3.673   1.075   6.213  0.4350  0.3661  0.2281
11336TIP3    H255424   3.569   1.178   6.251  0.1183 -0.2988  1.1681
11337TIP3   OH255425   4.724   5.547   4.433  0.2514 -0.8047 -0.1177
11337TIP3    H155426   4.743   5.482   4.500  1.4980 -0.3972 -0.0600
11337TIP3    H255427   4.686   5.621   4.480  3.1591  0.3677  0.4740
11338TIP3   OH255428   5.514   4.975  12.283 -0.6774  1.2661 -0.7280
11338TIP3    H155429   5.541   4.903  12.340 -0.1506  0.2764 -2.1934
11338TIP3    H255430   5.595   5.020  12.261 -0.6322  0.5161 -2.1688
11339TIP3   OH255431   2.031   3.110  11.771 -0.1596 -0.5918  0.8841
11339TIP3    H155432   2.013   3.065  11.853  0.0121  0.6550  1.6172
11339TIP3    H255433   1.982   3.192  11.777 -0.3554 -0.6057 -0.3719
11340TIP3   OH255434   1.567   6.325  13.676 -0.3486 -0.2172  0.5520
11340TIP3    H155435   1.506   6.259  13.644 -0.4138  0.3911 -0.6014
11340TIP3    H255436   1.515   6.405  13.684  0.1211  0.1237  0.2590
11341TIP3   OH255437   0.688   1.706  12.410  0.4382 -0.1853 -0.2411
11341TIP3    H155438   0.653   1.793  12.392  0.1780 -0.5271 -1.5093
11341TIP3    H255439   0.726   1.679  12.326  1.7185 -0.7392  0.5223
11342TIP3   OH255440   4.977   0.163   0.955 -0.1829  0.1415 -0.3948
11342TIP3    H155441   4.983   0.143   0.862 -0.3972  0.4741 -0.4787
11342TIP3    H255442   5.061   0.202   0.978 -0.4752  0.9264 -0.6537
11343TIP3   OH255443   4.891   2.286   2.860  0.3450  0.0655 -0.3538
11343TIP3    H155444   4.893   2.195   2.829  0.3667 -0.5394  1.3360
11343TIP3    H255445   4.825   2.285   2.930 -0.8489  1.7302 -1.4310
11344TIP3   OH255446   4.638   1.560  12.455 -0.2739  0.4282  0.6074
11344TIP3    H155447   4.618   1.471  12.481 -3.2814  0.3672 -1.5692
11344TIP3    H255448   4.560   1.610  12.478  0.4637  2.0410 -0.2666
11345TIP3   OH255449   3.341   6.479   0.966 -0.8039 -0.5074  1.0210
11345TIP3    H155450   3.420   6.471   0.912 -0.6344 -0.2239  1.2283
11345TIP3    H255451   3.276   6.517   0.908 -0.6876 -0.4138  0.9522
11346TIP3   OH255452   6.115   3.825  11.897  0.4113 -0.3388 -0.0819
11346TIP3    H155453   6.137   3.745  11.945  0.9615 -0.2804 -0.2362
11346TIP3    H255454   6.084   3.885  11.965  0.8608 -0.3752  0.1613
11347TIP3   OH255455   4.399   5.052   0.964 -0.4648 -0.6128 -0.1638
11347TIP3    H155456   4.380   5.113   1.035  2.3788  0.0976  0.0311
11347TIP3    H255457   4.394   5.106   0.885  0.3900 -0.4941 -0.1387
11348TIP3   OH255458   1.057   5.955  11.910  0.0425 -0.2840  0.1786
11348TIP3    H155459   1.022   6.027  11.858 -0.9175 -1.5152 -0.9176
11348TIP3    H255460   1.010   5.960  11.993 -1.0251 -0.4882 -0.4091
11349TIP3   OH255461   2.827   0.146  17.060 -0.4265  0.0246  0.0036
11349TIP3    H155462   2.916   0.114  17.049 -0.2021 -0.1102  1.9596
11349TIP3    H255463   2.829   0.236  17.026  1.5299  1.4658  3.5905
11350TIP3   OH255464   0.551   1.222   4.435 -0.2134  0.5717 -0.2313
11350TIP3    H155465   0.604   1.301   4.448 -0.9938  1.2795 -1.2184
11350TIP3    H255466   0.612   1.158   4.397  0.0553  1.2240 -0.9147
11351TIP3   OH255467   2.275   5.410  16.390 -0.1125  0.3846  0.0083
11351TIP3    H155468   2.278   5.410  16.486  0.3992 -0.3120 -0.0033
11351TIP3    H255469   2.275   5.503  16.366 -0.2275  0.5636  0.6808
11352TIP3   OH255470   5.065   1.163  15.431 -0.2604  0.0118  0.4686
11352TIP3    H155471   4.982   1.123  15.406 -0.5174  0.3508  0.7885
11352TIP3    H255472   5.118   1.159  15.351 -0.9117  0.6501 -0.0061
11353TIP3   OH255473   0.471   0.777  17.095  0.7732  0.0238  0.5752
11353TIP3    H155474   0.473   0.738  17.008 -1.1543 -2.1052  1.4242
11353TIP3    H255475   0.413   0.853  17.087  0.8360  0.0013 -0.0660
11354TIP3   OH255476   2.450   2.404   5.133 -0.1711 -0.4970  0.0708
11354TIP3    H155477   2.494   2.393   5.217 -0.2626  0.1644  0.2048
11354TIP3    H255478   2.384   2.472   5.148 -1.6301 -1.8599  0.0308
11355TIP3   OH255479   6.222   0.743   0.207  0.3432 -0.1903 -0.0864
11355TIP3    H155480   6.312   0.722   0.233  0.0561 -0.1168  0.9716
11355TIP3    H255481   6.188   0.796   0.279 -0.2678  0.5100 -0.8773
11356TIP3   OH255482   2.455   1.458   1.986  0.4774 -0.4819  0.2987
11356TIP3    H155483   2.395   1.385   2.004 -0.5377  0.3079  0.1781
11356TIP3    H255484   2.505   1.429   1.909 -1.8652  0.0707 -1.5092
11357TIP3   OH255485   1.828   2.721  12.853 -0.0525  0.4232 -0.3029
11357TIP3    H155486   1.870   2.661  12.915  0.6056 -0.2520 -1.3771
11357TIP3    H255487   1.858   2.691  12.767 -0.4332  1.7521 -0.9091
11358TIP3   OH255488   0.099   2.080   2.545 -0.0112 -0.1301 -0.5354
11358TIP3    H155489   0.173   2.029   2.513 -0.4718 -0.0423 -1.7617
11358TIP3    H255490   0.023   2.023   2.533 -0.1550 -0.2177  0.7014
11359TIP3   OH255491   3.186   2.200   2.125 -0.4833 -0.4217 -0.2187
11359TIP3    H155492   3.233   2.283   2.115  2.2487 -2.0029 -0.8847
11359TIP3    H255493   3.220   2.162   2.206  0.2606 -2.1200 -1.2945
11360TIP3   OH255494   2.615   6.598   6.245 -0.4883  0.1936 -0.2054
11360TIP3    H155495   2.606   6.682   6.200 -2.6565  0.8827  1.3923
11360TIP3    H255496   2.648   6.538   6.179  1.6333  2.4211 -1.2297
11361TIP3   OH255497   1.200   3.925   0.918  0.1044 -0.3008  0.5601
11361TIP3    H155498   1.212   4.008   0.965 -2.9343 -0.1105  1.0941
11361TIP3    H255499   1.225   3.858   0.982  2.5444  0.1417  0.1354
11362TIP3   OH255500   4.608   3.671  13.369  0.6348  0.2732  0.1212
11362TIP3    H155501   4.566   3.596  13.327  0.3305 -0.1114  1.1037
11362TIP3    H255502   4.560   3.747  13.334  2.4302  0.2132 -2.6323
11363TIP3   OH255503   3.705   0.598   1.981 -1.2763  0.6066 -0.4523
11363TIP3    H155504   3.732   0.527   1.922 -1.6100 -1.1314  1.4400
11363TIP3    H255505   3.625   0.566   2.022 -1.7934  2.3727 -0.0318
11364TIP3   OH255506   2.720   1.801  16.079  0.1324 -0.2643 -0.1196
11364TIP3    H155507   2.625   1.805  16.087  0.1704 -0.7352  0.6263
11364TIP3    H255508   2.752   1.796  16.169  0.8990  0.5146 -0.3310
11365TIP3   OH255509   5.011   5.361  14.757  0.3607  0.7746 -0.0442
11365TIP3    H155510   4.940   5.322  14.706  1.6542  1.2886 -2.3070
11365TIP3    H255511   4.974   5.374  14.844 -2.6936  2.1355 -1.4760
11366TIP3   OH255512   5.245   0.773   1.575  0.0637 -0.5142 -0.3150
11366TIP3    H155513   5.305   0.837   1.535  0.3871 -0.8492 -0.3723
11366TIP3    H255514   5.240   0.800   1.667  0.4978 -0.6291 -0.2565
11367TIP3   OH255515   0.728   6.206   4.945  0.4705  0.6681  0.2510
11367TIP3    H155516   0.692   6.250   5.022 -0.1706 -0.0999  0.3986
11367TIP3    H255517   0.819   6.187   4.968 -0.0188 -0.4969  1.2248
11368TIP3   OH255518   2.757   2.290  14.847  0.5156  0.2439  0.3379
11368TIP3    H155519   2.696   2.294  14.773  0.4629 -3.6437  0.0677
11368TIP3    H255520   2.709   2.328  14.920 -0.8728  0.5774 -0.7270
11369TIP3   OH255521   5.405   2.929   2.609 -0.0275  0.1425 -0.5801
11369TIP3    H155522   5.423   3.001   2.549 -1.7943 -0.1378 -1.4910
11369TIP3    H255523   5.434   2.851   2.562  0.8013  0.1401 -0.0753
11370TIP3   OH255524   3.961   6.690  16.433 -0.3089  0.2026 -0.4540
11370TIP3    H155525   4.039   6.702  16.488  0.0880  1.3355 -1.2454
11370TIP3    H255526   3.997   6.671  16.346 -0.9140  0.8564 -0.8478
11371TIP3   OH255527   3.896   0.110   3.921 -0.0868 -0.2183 -0.2592
11371TIP3    H155528   3.808   0.084   3.948  0.2026  0.5500  1.4876
11371TIP3    H255529   3.930   0.034   3.874 -0.5665 -1.6767  1.6988
11372TIP3   OH255530   3.340   0.994   4.605 -0.1275  0.7126  0.4336
11372TIP3    H155531   3.329   0.905   4.639 -0.6034  0.6092  0.0205
11372TIP3    H255532   3.263   1.042   4.638 -0.8838  0.4677 -0.9440
11373TIP3   OH255533   1.095   1.400  11.648 -0.1756  0.1723 -0.0568
11373TIP3    H155534   1.048   1.375  11.569 -2.3155 -0.0320  1.2350
11373TIP3    H255535   1.156   1.467  11.619 -0.1027 -0.7285 -2.0836
11374TIP3   OH255536   3.177   1.685   0.439  0.1046  0.4127  0.2494
11374TIP3    H155537   3.129   1.742   0.499 -0.8700  0.2379 -0.3476
11374TIP3    H255538   3.269   1.699   0.460 -0.2349  0.2374  1.8922
11375TIP3   OH255539   4.845   1.517   2.547  0.0399 -0.5677  0.0145
11375TIP3    H155540   4.924   1.463   2.536 -0.7271 -1.9468  1.2165
11375TIP3    H255541   4.776   1.467   2.503 -0.4383 -0.0141  0.1400
11376TIP3   OH255542   2.125   3.932   2.713 -0.0335  0.1725 -0.2043
11376TIP3    H155543   2.220   3.934   2.705  0.1402  0.2836  1.5814
11376TIP3    H255544   2.100   3.842   2.694  0.2284  0.5155 -2.3636
11377TIP3   OH255545   0.105   0.319   4.562 -0.3305 -0.4018 -0.6054
11377TIP3    H155546   0.011   0.303   4.556 -0.3158  0.1763 -2.5797
11377TIP3    H255547   0.128   0.361   4.480  1.6344 -0.3482 -0.0619
11378TIP3   OH255548   4.324   3.143  16.558 -0.3547 -0.4945  0.2985
11378TIP3    H155549   4.368   3.228  16.565 -0.1527 -0.3859 -2.0707
11378TIP3    H255550   4.327   3.108  16.647  0.6321  1.4446  1.0687
11379TIP3   OH255551   5.448   3.384   0.566 -0.4273  0.3948  0.3541
11379TIP3    H155552   5.491   3.403   0.650 -0.9795 -0.2381  0.7950
11379TIP3    H255553   5.518   3.386   0.502  0.2275 -0.4013  1.0278
11380TIP3   OH255554   2.819   5.097   6.243 -0.5311  0.0150  0.4998
11380TIP3    H155555   2.847   5.165   6.305 -1.0648  0.1257  0.6206
11380TIP3    H255556   2.743   5.056   6.285 -0.1254 -0.7552  0.4962
11381TIP3   OH255557   6.609   1.515  15.953  0.5036  0.3472 -0.2242
11381TIP3    H155558   6.681   1.458  15.926 -0.6215 -0.9157 -0.6139
11381TIP3    H255559   6.539   1.455  15.980 -0.2469  1.5552  0.5876
11382TIP3   OH255560   4.805   5.011  15.955 -0.6646  0.4206 -0.0101
11382TIP3    H155561   4.786   5.059  15.874 -0.3629 -0.6741 -0.7477
11382TIP3    H255562   4.746   4.936  15.953 -1.5923  1.0947  1.4633
11383TIP3   OH255563   5.205   0.419   0.894  0.1689  0.0716 -0.1077
11383TIP3    H155564   5.236   0.454   0.977  0.6704 -0.5401 -0.0316
11383TIP3    H255565   5.285   0.405   0.843 -0.0831 -0.2765 -0.4093
11384TIP3   OH255566   0.488   2.109   4.900  0.2562 -0.4563  0.3859
11384TIP3    H155567   0.537   2.048   4.954  0.7794 -0.1236  0.2890
11384TIP3    H255568   0.449   2.055   4.831 -0.3201 -0.8670  1.0171
11385TIP3   OH255569   6.444   1.461  11.202 -0.7900  0.1613  0.1265
11385TIP3    H155570   6.536   1.473  11.179 -0.2176 -1.2173  1.5625
11385TIP3    H255571   6.403   1.432  11.121  0.8498 -3.0411  0.3276
11386TIP3   OH255572   6.472   1.895   4.367 -0.0742  0.4414  0.6905
11386TIP3    H155573   6.420   1.828   4.322 -0.3384  1.7384 -1.0244
11386TIP3    H255574   6.424   1.977   4.351  1.3694  1.3476  0.8998
11387TIP3   OH255575   5.921   4.159   3.549  1.0478 -0.2071 -0.0547
11387TIP3    H155576   5.861   4.202   3.489  0.4467 -1.3789 -0.3068
11387TIP3    H255577   5.904   4.200   3.634 -1.3199 -1.7023  0.2152
11388TIP3   OH255578   4.514   6.248   4.954 -0.7096 -0.2623  0.6728
11388TIP3    H155579   4.570   6.315   4.994 -1.4273  1.0165 -0.4157
11388TIP3    H255580   4.549   6.237   4.866 -1.2349 -0.5657  0.4998
11389TIP3   OH255581   6.473   5.916  15.140  0.0536 -0.0656  0.2033
11389TIP3    H155582   6.457   5.834  15.093 -0.5065  0.8150 -1.1931
11389TIP3    H255583   6.421   5.909  15.220  0.7895 -1.4723  0.5694
11390TIP3   OH255584   5.493   0.337   4.388 -0.0733  0.5595  0.5462
11390TIP3    H155585   5.426   0.273   4.364 -0.8791  1.6642 -0.1851
11390TIP3    H255586   5.569   0.284   4.415  0.1490 -0.7250 -2.4376
11391TIP3   OH255587   5.528   3.874  13.021 -0.0186 -0.1111  0.3137
11391TIP3    H155588   5.623   3.871  13.012  0.0000 -0.7522  0.6700
11391TIP3    H255589   5.510   3.829  13.104 -0.7265 -1.2896 -0.4502
11392TIP3   OH255590   6.577   0.180   0.951 -0.2744  0.2065 -0.2756
11392TIP3    H155591   6.505   0.144   0.900 -0.0083  0.7319 -1.0235
11392TIP3    H255592   6.568   0.275   0.941 -0.9909  0.3857  1.6982
11393TIP3   OH255593   4.856   5.927   1.464 -0.4236 -0.3978 -0.1281
11393TIP3    H155594   4.765   5.953   1.447 -0.4839  0.1943  1.0764
11393TIP3    H255595   4.876   5.864   1.395 -1.2762  0.5653 -1.2823
11394TIP3   OH255596   3.288   1.670   5.369 -0.2860 -0.0928  0.3963
11394TIP3    H155597   3.339   1.701   5.444  0.9260 -0.9685 -0.0478
11394TIP3    H255598   3.197   1.678   5.398  0.1640 -0.6798  2.0730
11395TIP3   OH255599   2.609   6.156   1.550 -0.3257  0.2725  0.1193
11395TIP3    H155600   2.625   6.063   1.567  4.3577  0.8080 -0.6634
11395TIP3    H255601   2.619   6.199   1.635  0.9767  0.3978 -0.0784
11396TIP3   OH255602   3.582   0.707   0.756 -0.3465  0.2140 -0.4458
11396TIP3    H155603   3.647   0.662   0.703 -1.0380 -1.7026  0.2563
11396TIP3    H255604   3.611   0.693   0.846 -2.4125 -1.9035 -0.0417
11397TIP3   OH255605   4.626   6.776   5.737  0.3205 -0.3434 -0.1622
11397TIP3    H155606   4.719   6.761   5.751  0.4108  0.1445 -0.2212
11397TIP3    H255607   4.620   6.867   5.707 -0.0305 -0.8074 -1.5730
11398TIP3   OH255608   6.651   6.784  11.038  0.3895  0.8136 -0.2058
11398TIP3    H155609   6.570   6.832  11.019 -0.6596 -0.1515  1.6657
11398TIP3    H255610   6.644   6.704  10.985  0.3292  0.9576 -0.4131
11399TIP3   OH255611   1.987   6.202   4.688  0.1677  0.1037  0.2617
11399TIP3    H155612   2.027   6.244   4.612  1.4808  0.1425  0.9544
11399TIP3    H255613   1.893   6.199   4.668  0.8395 -2.9269 -2.8534
11400TIP3   OH255614   2.498   5.111   5.353 -0.8322  0.7392  0.0065
11400TIP3    H155615   2.559   5.039   5.338 -1.8805 -0.3505  0.9650
11400TIP3    H255616   2.502   5.163   5.272 -1.5484 -1.4744 -1.4789
11401TIP3   OH255617   3.605   1.262  13.869  0.3795 -0.7567  0.0589
11401TIP3    H155618   3.651   1.193  13.915 -0.9186 -1.5082  0.2624
11401TIP3    H255619   3.583   1.326  13.936 -1.7063 -1.9572  0.5741
11402TIP3   OH255620   2.143   0.611  14.234 -0.3297  0.0734  0.2066
11402TIP3    H155621   2.218   0.664  14.209 -0.9305  0.8794  0.1036
11402TIP3    H255622   2.179   0.524  14.249  0.8019  0.7339  1.3337
11403TIP3   OH255623   5.234   0.454   5.933 -0.0059 -0.0276  0.3016
11403TIP3    H155624   5.250   0.496   5.848 -0.6004 -0.2300  0.0877
11403TIP3    H255625   5.318   0.460   5.979  0.0684  0.8708  0.0488
11404TIP3   OH255626   1.875   4.039   3.651  0.0859 -0.1107 -0.0994
11404TIP3    H155627   1.920   3.986   3.585 -0.3153 -1.2555  0.5353
11404TIP3    H255628   1.782   4.026   3.633 -0.0139  0.3233  0.0993
11405TIP3   OH255629   2.841   6.624  12.002  0.6749 -0.0922 -0.4597
11405TIP3    H155630   2.753   6.662  12.003  0.2852 -0.9752  1.7806
11405TIP3    H255631   2.891   6.677  12.065  2.2049  1.3599 -2.8115
11406TIP3   OH255632   5.504   0.130   3.758  0.0253  0.1599  0.2796
11406TIP3    H155633   5.481   0.214   3.798 -0.9868  0.1727 -0.3117
11406TIP3    H255634   5.572   0.151   3.693  0.5872  0.3485  0.9209
11407TIP3   OH255635   2.283   0.895  16.781 -0.1949 -0.5517  0.1330
11407TIP3    H155636   2.240   0.960  16.836  0.6848  0.8989 -0.8872
11407TIP3    H255637   2.299   0.940  16.698  2.4191 -1.3660  0.1633
11408TIP3   OH255638   6.123   3.815   4.333 -0.3909  0.7063 -0.2530
11408TIP3    H155639   6.218   3.811   4.319 -0.3980  0.4314 -0.2255
11408TIP3    H255640   6.086   3.818   4.244 -0.5004 -2.4119 -0.3559
11409TIP3   OH255641   6.101   2.934  14.173 -0.2250 -0.6282  0.3733
11409TIP3    H155642   6.046   2.938  14.095  2.3986 -0.2539 -1.5293
11409TIP3    H255643   6.086   2.847  14.209 -1.7911 -0.6376 -0.2610
11410TIP3   OH255644   1.854   0.806   3.887 -0.5894  0.5559  0.0028
11410TIP3    H155645   1.872   0.858   3.809 -0.0066  1.8321  0.9747
11410TIP3    H255646   1.837   0.718   3.854  0.8889  0.8002 -1.4542
11411TIP3   OH255647   1.011   1.035  17.060  0.2218  0.1971 -0.0149
11411TIP3    H155648   1.062   0.981  17.120 -0.0514 -0.8563 -0.7086
11411TIP3    H255649   1.076   1.087  17.014  0.5502 -0.0557  0.1590
11412TIP3   OH255650   3.042   1.927  16.320  0.2088  0.4545 -0.0467
11412TIP3    H155651   3.019   2.017  16.342  0.6472  0.7924 -0.9501
11412TIP3    H255652   2.958   1.882  16.314 -0.0567  0.9822 -0.3468
11413TIP3   OH255653   2.336   4.551   5.603 -0.2719 -0.3913 -0.0162
11413TIP3    H155654   2.377   4.545   5.690 -0.5380 -0.2505  0.1201
11413TIP3    H255655   2.275   4.477   5.601 -1.3614  0.4820  0.4983
11414TIP3   OH255656   4.156   2.186   1.614 -0.2454  0.2515 -0.3810
11414TIP3    H155657   4.078   2.138   1.641 -0.7176  1.0112 -0.3578
11414TIP3    H255658   4.163   2.257   1.679  1.0751 -0.4389  0.2391
11415TIP3   OH255659   5.035   3.651  13.142 -0.3867  0.3855  0.1949
11415TIP3    H155660   5.089   3.623  13.068 -1.4514  0.0253 -0.4586
11415TIP3    H255661   4.986   3.726  13.109 -2.2707 -0.9271 -0.0963
11416TIP3   OH255662   0.757   3.920  14.095  0.2166 -0.4068 -0.6017
11416TIP3    H155663   0.747   3.869  14.176 -0.0186  0.6199  0.0196
11416TIP3    H255664   0.696   3.880  14.033  2.0019 -2.6565 -1.0061
11417TIP3   OH255665   1.399   3.591  11.971  0.0646  0.4024 -0.2398
11417TIP3    H155666   1.336   3.644  12.020  0.4726  0.4895  0.1960
11417TIP3    H255667   1.477   3.590  12.027 -0.2252 -1.3675  0.1500
11418TIP3   OH255668   2.630   0.831   4.525  0.0403  0.2960 -0.0936
11418TIP3    H155669   2.559   0.894   4.513 -2.1395 -2.1728 -0.5517
11418TIP3    H255670   2.634   0.782   4.443  0.7203 -1.1209  0.7604
11419TIP3   OH255671   5.568   5.359   3.772 -0.1967 -0.1786  0.1365
11419TIP3    H155672   5.616   5.348   3.853  0.1902  0.7096  0.0314
11419TIP3    H255673   5.596   5.285   3.717  0.5588 -0.0254  0.3107
11420TIP3   OH255674   5.724   2.268  11.319 -0.1768  0.2088 -0.5140
11420TIP3    H155675   5.697   2.208  11.250 -0.0457  0.2867 -0.6314
11420TIP3    H255676   5.785   2.328  11.277  0.5648 -0.2714 -0.1286
11421TIP3   OH255677   4.600   0.555  11.040  0.6322  0.3522 -0.4381
11421TIP3    H155678   4.638   0.512  11.117 -1.8007 -0.4226  0.3807
11421TIP3    H255679   4.600   0.488  10.972 -0.6930 -0.1544  0.0417
11422TIP3   OH255680   3.590   3.681  12.324  0.4083  1.0586  0.3595
11422TIP3    H155681   3.549   3.756  12.367 -2.2488  0.1612 -0.4700
11422TIP3    H255682   3.624   3.715  12.242 -0.0310  1.5447  0.3785
11423TIP3   OH255683   2.942   4.783   2.020  0.0660 -0.6559 -0.2957
11423TIP3    H155684   2.869   4.799   1.961  0.0591 -0.1377 -0.1510
11423TIP3    H255685   2.980   4.870   2.036  1.9962 -1.1284 -2.0173
11424TIP3   OH255686   2.265   1.824  10.891 -0.3684  0.1332 -0.2770
11424TIP3    H155687   2.233   1.793  10.807 -1.0005  0.2857 -0.0919
11424TIP3    H255688   2.360   1.829  10.880 -0.3402 -0.9964 -0.5971
11425TIP3   OH255689   0.510   0.088   3.921  0.0836  0.3873  0.4484
11425TIP3    H155690   0.472   0.055   4.003  0.9113  0.5962  0.9327
11425TIP3    H255691   0.556   0.013   3.884  0.3168  0.4741  0.5539
11426TIP3   OH255692   2.210   3.637   5.684  0.3818 -0.0838  0.2613
11426TIP3    H155693   2.194   3.713   5.627 -0.5402  0.0702  0.7210
11426TIP3    H255694   2.229   3.675   5.770 -2.1667 -0.3836  1.0142
11427TIP3   OH255695   2.789   3.118   3.910 -0.2466 -0.0130  0.1203
11427TIP3    H155696   2.795   3.159   3.824 -0.2007 -1.8044 -0.7546
11427TIP3    H255697   2.712   3.157   3.950  0.2176  1.4636 -0.3683
11428TIP3   OH255698   2.498   3.474   4.376  0.1485  0.0396 -0.4264
11428TIP3    H155699   2.565   3.476   4.308 -0.9671  1.3511 -1.5154
11428TIP3    H255700   2.529   3.534   4.443  1.0038 -0.8637 -0.0071
11429TIP3   OH255701   0.005   5.268   5.356 -0.0824 -0.2474 -0.4716
11429TIP3    H155702  -0.075   5.235   5.314 -0.9000 -0.1602  0.9914
11429TIP3    H255703   0.034   5.195   5.411 -0.3514  0.4681  0.6352
11430TIP3   OH255704   3.982   2.431   3.794  0.4738 -0.0446 -0.2950
11430TIP3    H155705   3.969   2.433   3.889 -1.3910  3.4288 -0.5596
11430TIP3    H255706   4.022   2.346   3.777  0.7995 -0.7354  3.5962
11431TIP3   OH255707   1.063   3.903  10.841 -0.2874 -0.7388  0.1360
11431TIP3    H155708   1.093   3.867  10.757 -0.1495 -0.4952  0.0806
11431TIP3    H255709   1.037   3.826  10.892  0.2924 -0.9412  0.1303
11432TIP3   OH255710   1.069   2.463   2.674  0.1689 -0.2956 -0.4078
11432TIP3    H155711   1.124   2.541   2.677 -0.4512  0.0947  0.7821
11432TIP3    H255712   1.101   2.407   2.744 -1.4994  0.3078  0.8582
11433TIP3   OH255713   2.340   6.599  16.506 -0.2259 -0.1738 -0.2355
11433TIP3    H155714   2.305   6.578  16.419  0.0880  0.0093 -0.4024
11433TIP3    H255715   2.424   6.641  16.489  0.3494 -1.1289  0.1854
11434TIP3   OH255716   4.115   4.591  14.253  0.2155 -0.0790 -0.2365
11434TIP3    H155717   4.116   4.514  14.196  1.3298  0.0489 -0.3941
11434TIP3    H255718   4.200   4.591  14.296 -0.4306  0.1193  1.0411
11435TIP3   OH255719   6.601   1.479  13.485 -0.2500  0.1581  0.3024
11435TIP3    H155720   6.545   1.430  13.424 -1.1673  0.5967  0.7795
11435TIP3    H255721   6.647   1.412  13.535  3.1216 -0.2831 -3.1460
11436TIP3   OH255722   5.238   3.783   5.600  0.0653 -0.2475  0.1668
11436TIP3    H155723   5.292   3.713   5.566  0.5763 -0.2212  0.8968
11436TIP3    H255724   5.253   3.857   5.541  0.9197 -0.2107  0.4196
11437TIP3   OH255725   5.840   2.465  14.804 -0.4854 -0.0891 -0.2497
11437TIP3    H155726   5.757   2.473  14.757 -0.3049 -0.2039 -0.5842
11437TIP3    H255727   5.904   2.509  14.748 -0.2950 -0.1064 -0.0488
11438TIP3   OH255728   2.847   4.278   4.803  0.8157 -0.6211  0.0290
11438TIP3    H155729   2.897   4.222   4.743  1.1661  1.2244 -1.4574
11438TIP3    H255730   2.905   4.290   4.878  1.9280  0.0884 -0.9213
11439TIP3   OH255731   3.509   2.644  16.791 -0.0200 -0.3092  0.8804
11439TIP3    H155732   3.544   2.729  16.764  2.3086 -1.8929 -1.2524
11439TIP3    H255733   3.514   2.645  16.887  2.4706  0.9572  0.7752
11440TIP3   OH255734   5.276   2.597  17.075  0.4712  0.5714  0.3251
11440TIP3    H155735   5.254   2.508  17.101 -3.3308  0.9845 -1.0680
11440TIP3    H255736   5.275   2.647  17.157  2.0684 -0.5475  1.0359
11441TIP3   OH255737   2.044   0.900  16.405  0.2486 -0.2161  0.2046
11441TIP3    H155738   1.971   0.943  16.449 -0.5390  0.4493 -1.7017
11441TIP3    H255739   2.006   0.820  16.368  0.7593 -0.4659  0.2184
11442TIP3   OH255740   1.211   4.093  15.308  0.0878  0.1079  0.0691
11442TIP3    H155741   1.260   4.171  15.281 -1.6868  1.3360  0.2767
11442TIP3    H255742   1.137   4.128  15.359 -1.6003 -1.5999 -1.1082
11443TIP3   OH255743   6.499   3.969   0.583  0.4026 -0.2292 -0.0925
11443TIP3    H155744   6.454   4.031   0.524  0.0154 -0.4499 -0.0333
11443TIP3    H255745   6.462   3.884   0.559 -0.2798 -0.2340  0.9541
11444TIP3   OH255746   4.843   0.850   3.269 -0.3092 -0.5150  0.0048
11444TIP3    H155747   4.764   0.802   3.294  0.7490 -0.7494  3.1220
11444TIP3    H255748   4.824   0.941   3.294  1.2885 -0.9792  3.2211
11445TIP3   OH255749   6.209   1.779  15.513 -0.0475  0.3029 -0.9513
11445TIP3    H155750   6.269   1.849  15.538 -1.4990  1.7163 -1.3336
11445TIP3    H255751   6.153   1.767  15.589 -0.7476  0.5814 -1.4206
11446TIP3   OH255752   0.017   0.446  14.232  0.0691  0.3895 -0.3879
11446TIP3    H155753  -0.017   0.456  14.321 -0.2926  0.1203 -0.4961
11446TIP3    H255754   0.015   0.351  14.216  0.5101  0.4048 -0.5355
11447TIP3   OH255755   0.882   0.873  13.801 -0.0858 -0.1232  0.0945
11447TIP3    H155756   0.804   0.919  13.833  0.8630 -0.2708  2.7407
11447TIP3    H255757   0.928   0.939  13.749 -1.6532  0.1452 -0.9978
11448TIP3   OH255758   5.070   5.129  12.312 -1.0306 -0.3157  0.0006
11448TIP3    H155759   5.005   5.185  12.355  0.1637  0.2164  1.1272
11448TIP3    H255760   5.062   5.045  12.356 -0.2609  0.0418  0.8330
11449TIP3   OH255761   4.468   0.059   2.380  0.7218  0.0164 -0.6948
11449TIP3    H155762   4.533  -0.008   2.362  0.0308 -1.4093  1.8554
11449TIP3    H255763   4.393   0.036   2.326  0.6875 -0.9839 -0.2256
11450TIP3   OH255764   2.476   0.361  11.622 -0.1794  0.1063  0.5216
11450TIP3    H155765   2.557   0.378  11.669  0.9793 -0.2813 -1.2662
11450TIP3    H255766   2.496   0.286  11.566 -2.3030 -1.0796  1.2949
11451TIP3   OH255767   6.379   6.467  12.683 -0.2598 -0.2967  0.0336
11451TIP3    H155768   6.299   6.415  12.678  1.4401 -3.0691  0.2215
11451TIP3    H255769   6.370   6.519  12.762 -1.9578 -0.3988 -0.0719
11452TIP3   OH255770   2.500   1.439   0.635 -0.0244 -0.4298 -0.0022
11452TIP3    H155771   2.461   1.352   0.636  0.4335 -0.6271  1.9977
11452TIP3    H255772   2.590   1.426   0.665  0.3954  0.5785 -0.7806
11453TIP3   OH255773   5.433   6.613  14.670  0.5734  0.3655  0.3087
11453TIP3    H155774   5.455   6.522  14.654  1.2489  0.5409  0.2232
11453TIP3    H255775   5.512   6.662  14.646  0.3336  0.9408  0.6692
11454TIP3   OH255776   5.404   5.864   3.356  0.4252 -0.7887 -0.3027
11454TIP3    H155777   5.495   5.863   3.326  1.5802  1.4475  2.9098
11454TIP3    H255778   5.382   5.771   3.368  2.1957 -1.3574 -1.3044
11455TIP3   OH255779   3.116   1.557   0.995 -0.1545  0.0421  0.1018
11455TIP3    H155780   3.030   1.550   0.953 -0.8296  2.5870  0.9930
11455TIP3    H255781   3.140   1.649   0.987  2.0159 -0.4281  0.8261
11456TIP3   OH255782   5.095   4.746   0.460  0.3454  0.5060 -0.1312
11456TIP3    H155783   5.113   4.693   0.383 -2.4089 -0.7338  0.0320
11456TIP3    H255784   5.092   4.836   0.427 -0.0911  0.0581 -1.3402
11457TIP3   OH255785   2.060   4.603   1.525  0.7382 -0.0958 -0.1496
11457TIP3    H155786   2.114   4.594   1.447 -0.3036  0.3920 -0.9430
11457TIP3    H255787   1.995   4.533   1.518  1.6439 -1.0722  1.1168
11458TIP3   OH255788   1.352   6.553  12.890  0.0013 -0.2569 -0.0736
11458TIP3    H155789   1.404   6.585  12.964  1.0800  1.4429 -1.4982
11458TIP3    H255790   1.269   6.527  12.928  1.7300 -2.6478  2.2209
11459TIP3   OH255791   4.540   3.725  12.376 -0.4979  0.1862 -0.4123
11459TIP3    H155792   4.546   3.685  12.290  2.3134 -0.5980  0.0940
11459TIP3    H255793   4.547   3.819  12.360 -1.6815  0.1501 -1.1632
11460TIP3   OH255794   5.284   1.106  15.263  0.5556 -0.0624  0.6795
11460TIP3    H155795   5.275   1.186  15.211  1.2118  0.6894  1.6899
11460TIP3    H255796   5.378   1.099  15.281  0.5140 -1.1199  0.5089
11461TIP3   OH255797   6.383   4.572   3.525 -0.4383 -0.1738 -0.2608
11461TIP3    H155798   6.303   4.588   3.576  0.6751 -1.0963  1.8303
11461TIP3    H255799   6.454   4.594   3.584  0.8821 -0.3976 -1.7494
11462TIP3   OH255800   5.594   2.456  10.717  0.0897 -0.0126 -0.1567
11462TIP3    H155801   5.524   2.459  10.652 -0.6228  0.0296  0.5933
11462TIP3    H255802   5.554   2.491  10.797  0.9680  0.0109  0.2844
11463TIP3   OH255803   2.985   4.036   5.841  0.2413  0.3405  0.9378
11463TIP3    H155804   2.907   4.091   5.850 -1.9982 -2.5265  0.1585
11463TIP3    H255805   3.023   4.062   5.758 -2.5558 -1.2575 -0.9517
11464TIP3   OH255806   4.590   3.009   6.370  0.3495  0.3021  0.4654
11464TIP3    H155807   4.528   3.082   6.374  0.8209  0.6752  1.0867
11464TIP3    H255808   4.579   2.964   6.453 -0.5813 -0.8748 -0.2856
11465TIP3   OH255809   1.577   5.908   4.175  0.1273  0.1458  0.4302
11465TIP3    H155810   1.572   5.881   4.084  2.8174  1.0805 -0.0344
11465TIP3    H255811   1.504   5.969   4.186 -0.6675 -0.5562 -0.8716
11466TIP3   OH255812   6.173   0.908  12.253  0.3282 -0.1246 -0.0047
11466TIP3    H155813   6.238   0.975  12.273  0.6727  0.0417 -1.6712
11466TIP3    H255814   6.216   0.825  12.274  0.4982  0.0686  0.4180
11467TIP3   OH255815   1.314   0.907   0.888 -0.4268 -0.2627  0.1742
11467TIP3    H155816   1.262   0.949   0.956 -1.7141 -2.4035  0.5486
11467TIP3    H255817   1.257   0.908   0.811 -0.1084 -0.4996 -0.0651
11468TIP3   OH255818   0.087   0.316   3.137  0.0707 -0.0785  0.1544
11468TIP3    H155819   0.008   0.313   3.190 -1.4273  0.5134 -1.9761
11468TIP3    H255820   0.058   0.349   3.052  2.9121  1.9272 -0.1278
11469TIP3   OH255821   3.773   4.391   5.041  0.6908 -0.0552 -0.1336
11469TIP3    H155822   3.699   4.415   5.097 -1.0360 -0.6111 -2.1394
11469TIP3    H255823   3.826   4.471   5.037 -0.5865  0.8186  0.0767
11470TIP3   OH255824   3.479   0.185  14.519 -1.0114 -0.0368  0.2231
11470TIP3    H155825   3.410   0.251  14.517 -0.6129  0.3893  0.3826
11470TIP3    H255826   3.497   0.166  14.427  1.4989  2.8695  0.0173
11471TIP3   OH255827   2.656   3.175   0.927  0.2287  0.7189 -0.9989
11471TIP3    H155828   2.587   3.240   0.932 -0.1631  0.6303 -4.0446
11471TIP3    H255829   2.674   3.166   0.833 -0.8570 -4.6815 -0.8974
11472TIP3   OH255830   3.292   3.006   1.421  0.1861 -0.7290  0.3045
11472TIP3    H155831   3.299   2.914   1.395  2.5680 -0.3455 -0.4692
11472TIP3    H255832   3.268   3.052   1.340 -0.5957 -0.5945  0.6048
11473TIP3   OH255833   5.891   6.740   2.863 -0.2335 -0.0983  0.1330
11473TIP3    H155834   5.819   6.730   2.800  0.7819 -0.3655 -1.0080
11473TIP3    H255835   5.883   6.830   2.894 -1.7415 -0.4737  0.8720
11474TIP3   OH255836   3.894   0.075   0.281  0.1852 -0.1382 -0.4065
11474TIP3    H155837   3.917   0.160   0.317 -0.5690 -0.0137 -0.2104
11474TIP3    H255838   3.967   0.018   0.305  0.3170  0.2681  0.1589
11475TIP3   OH255839   5.895   1.363   4.309  0.1793 -0.5826  0.7113
11475TIP3    H155840   5.926   1.401   4.391 -1.4858  0.3484  0.9350
11475TIP3    H255841   5.844   1.287   4.335  0.6595 -0.9976  0.4558
11476TIP3   OH255842   5.904   4.043   1.109  0.3887  0.0132  0.1038
11476TIP3    H155843   5.873   4.025   1.021 -0.8750 -1.5867  0.8402
11476TIP3    H255844   5.997   4.062   1.099  0.5112 -1.3253 -1.4389
11477TIP3   OH255845   1.291   5.995  15.993 -0.1460 -0.3863 -0.3034
11477TIP3    H155846   1.375   6.027  16.025  0.0613 -0.9788 -0.2584
11477TIP3    H255847   1.312   5.950  15.911  0.3789 -5.1127  2.2382
11478TIP3   OH255848   6.178   2.072   4.899  0.7273  0.1695  0.1235
11478TIP3    H155849   6.085   2.091   4.886  0.9902  0.7190 -0.9966
11478TIP3    H255850   6.220   2.100   4.818  1.8915  0.0333  0.6664
11479TIP3   OH255851   0.901   2.127  11.582  0.6617 -0.0357  0.4525
11479TIP3    H155852   0.970   2.173  11.534  0.0623  0.1262 -0.2578
11479TIP3    H255853   0.868   2.193  11.644  1.4385 -0.2481  1.1145
11480TIP3   OH255854   1.362   6.614  14.892 -0.3344 -0.0806 -0.7084
11480TIP3    H155855   1.416   6.682  14.932 -1.6776  1.7313 -1.9222
11480TIP3    H255856   1.424   6.559  14.844  0.6344  0.9213 -0.6181
11481TIP3   OH255857   3.253   1.761   6.632  0.0700 -0.4464 -0.2187
11481TIP3    H155858   3.301   1.702   6.690  2.3524 -0.3431 -1.9526
11481TIP3    H255859   3.307   1.840   6.627 -0.6376 -0.0327 -1.6082
11482TIP3   OH255860   1.463   4.987  16.436 -0.2720 -0.0473 -0.3772
11482TIP3    H155861   1.429   4.968  16.524  0.2255 -0.9014 -0.3658
11482TIP3    H255862   1.512   4.909  16.412  0.1361  0.4479 -1.1559
11483TIP3   OH255863   4.391   5.785  15.550  0.1008  0.0194 -0.2791
11483TIP3    H155864   4.425   5.716  15.493  3.5664  1.4014  0.0233
11483TIP3    H255865   4.423   5.762  15.637  1.3832  2.0599 -0.1986
11484TIP3   OH255866   6.618   3.510  10.743 -0.1759  0.2820 -0.3584
11484TIP3    H155867   6.586   3.545  10.660 -0.1852  1.3042  0.0678
11484TIP3    H255868   6.586   3.572  10.809 -1.8347 -1.5555  0.6261
11485TIP3   OH255869   3.400   1.752  15.483  0.0301 -0.2375 -0.2707
11485TIP3    H155870   3.476   1.714  15.438  1.2091  0.4282  1.0962
11485TIP3    H255871   3.404   1.845  15.461 -1.3533 -0.4505 -1.5149
11486TIP3   OH255872   1.210   2.253   3.343  0.5907 -0.3332  0.0780
11486TIP3    H155873   1.298   2.220   3.359  0.3741 -0.6131  0.7488
11486TIP3    H255874   1.187   2.220   3.257  1.1579 -0.2292 -0.1133
11487TIP3   OH255875   5.745   0.219  16.130 -0.1366 -0.2222  0.2232
11487TIP3    H155876   5.696   0.287  16.176 -1.3508  0.0764 -1.4423
11487TIP3    H255877   5.777   0.161  16.199 -0.5994  1.0608  1.5292
11488TIP3   OH255878   1.374   2.835   5.807 -0.1795  0.1768  0.1173
11488TIP3    H155879   1.363   2.876   5.721  0.6704 -1.0458 -0.5829
11488TIP3    H255880   1.317   2.758   5.805 -1.3698  1.0004  1.2435
11489TIP3   OH255881   0.917   1.234  15.688 -0.7992 -0.2902  0.1504
11489TIP3    H155882   0.903   1.313  15.740 -1.0200  0.8420 -1.5864
11489TIP3    H255883   0.985   1.186  15.736 -1.2385  0.5462  1.6493
11490TIP3   OH255884   5.614   2.652  11.824  0.7011  0.0796  0.3367
11490TIP3    H155885   5.707   2.639  11.806  0.1589 -1.2106 -1.7643
11490TIP3    H255886   5.571   2.575  11.787 -1.2132  0.6461  1.2760
11491TIP3   OH255887   1.368   3.608  14.277  0.5639  0.3843  0.0108
11491TIP3    H155888   1.327   3.685  14.238 -0.3839  0.3824  0.9790
11491TIP3    H255889   1.429   3.642  14.342 -1.2399  0.3292  1.8122
11492TIP3   OH255890   2.639   3.471  15.220 -0.1916  0.1681 -0.2122
11492TIP3    H155891   2.731   3.495  15.219  0.2560 -1.4452  0.7487
11492TIP3    H255892   2.602   3.521  15.294  0.2918 -0.5029  0.4898
11493TIP3   OH255893   3.612   1.889   5.896 -0.5478 -0.1438  0.3759
11493TIP3    H155894   3.606   1.980   5.866  0.3577  0.5044  2.0924
11493TIP3    H255895   3.531   1.874   5.944 -0.0025  0.2655  1.4292
11494TIP3   OH255896   1.296   5.899   4.978 -0.0907 -0.0253  0.4653
11494TIP3    H155897   1.294   5.830   5.045  0.0287 -0.2588  0.2287
11494TIP3    H255898   1.291   5.981   5.028 -1.1017 -0.2203  0.7164
11495TIP3   OH255899   3.364   3.875  14.217 -0.9795 -0.0791 -0.1379
11495TIP3    H155900   3.315   3.826  14.282 -1.3518  0.4203 -0.0401
11495TIP3    H255901   3.322   3.854  14.134 -1.2407  0.1987 -0.0778
11496TIP3   OH255902   3.877   4.613   3.360  0.2814 -0.0160  0.5051
11496TIP3    H155903   3.878   4.680   3.292 -0.9779 -0.3828  0.1196
11496TIP3    H255904   3.790   4.619   3.398  0.6549 -0.4668  1.4392
11497TIP3   OH255905   6.299   5.636  17.077  0.1359  0.3565  0.3133
11497TIP3    H155906   6.205   5.619  17.080  0.1086  0.5369  0.5661
11497TIP3    H255907   6.326   5.610  16.989  0.5080 -3.0556  1.3735
11498TIP3   OH255908   1.411   5.413  15.162  0.0403 -0.3102 -0.1084
11498TIP3    H155909   1.466   5.421  15.084  0.1032 -1.6210 -0.1998
11498TIP3    H255910   1.321   5.424  15.129  0.1444  0.3470 -0.1797
11499TIP3   OH255911   5.215   1.512   0.685 -0.1165 -0.4552  0.0478
11499TIP3    H155912   5.254   1.546   0.765 -1.2681 -0.4044  0.5932
11499TIP3    H255913   5.288   1.504   0.624  0.6581  0.1153  0.8968
11500TIP3   OH255914   3.811   0.197  15.114 -0.1517 -0.3837 -0.4475
11500TIP3    H155915   3.773   0.144  15.044 -0.8879  0.4220 -0.6669
11500TIP3    H255916   3.758   0.276  15.116  1.5686  0.8207 -0.8327
11501TIP3   OH255917   2.513   5.812  15.213  0.1647  0.2284 -0.4600
11501TIP3    H155918   2.584   5.756  15.246 -0.0010  0.6816  0.7015
11501TIP3    H255919   2.435   5.756  15.215 -0.0501  0.5579  0.9411
11502TIP3   OH255920   1.494   6.107  15.356  0.7006 -0.0402  0.1813
11502TIP3    H155921   1.412   6.057  15.365 -0.1876  1.1583 -1.0383
11502TIP3    H255922   1.539   6.094  15.439 -0.7323 -0.7196  0.8738
11503TIP3   OH255923   5.194   5.163   2.483 -0.9481  0.3228 -0.6011
11503TIP3    H155924   5.213   5.091   2.543  1.8887  0.1504 -1.6214
11503TIP3    H255925   5.186   5.121   2.397 -1.6851  0.9417 -0.8352
11504TIP3   OH255926   2.875   4.266   2.620 -0.3500 -0.0153 -0.4136
11504TIP3    H155927   2.873   4.293   2.528 -0.2710  0.5600 -0.2514
11504TIP3    H255928   2.783   4.251   2.642 -0.2973 -0.9268 -0.8085
11505TIP3   OH255929   0.568   1.743  15.145 -0.4039  0.3893 -0.0500
11505TIP3    H155930   0.583   1.679  15.076 -0.9216 -1.4587  1.4810
11505TIP3    H255931   0.654   1.759  15.183  0.0223  2.0899 -1.6528
11506TIP3   OH255932   1.345   1.240   5.428 -0.0380  0.3770  0.3463
11506TIP3    H155933   1.316   1.168   5.372 -0.1551  0.4285  0.3423
11506TIP3    H255934   1.381   1.197   5.506 -0.6641  0.3387  0.6123
11507TIP3   OH255935   1.695   4.242   2.314 -0.2365  0.3064 -0.0310
11507TIP3    H155936   1.748   4.311   2.273  0.0191 -0.9968 -1.9678
11507TIP3    H255937   1.751   4.165   2.312 -1.8610 -0.8793 -1.3084
11508TIP3   OH255938   3.909   2.132   6.398  0.2619 -0.1888 -0.1085
11508TIP3    H155939   3.881   2.117   6.308  1.2022  0.9024 -0.5801
11508TIP3    H255940   3.841   2.090   6.451 -0.7679 -0.0490 -1.3036
11509TIP3   OH255941   3.747   6.261   0.304  0.2359 -0.1843  0.3227
11509TIP3    H155942   3.694   6.326   0.257  1.7375  1.7396  1.1924
11509TIP3    H255943   3.689   6.227   0.372 -1.3766 -1.6585 -1.7205
11510TIP3   OH255944   4.049   5.432  14.843 -0.1287 -0.3574 -0.6213
11510TIP3    H155945   4.082   5.516  14.812 -0.5002 -0.3745 -1.0660
11510TIP3    H255946   4.017   5.388  14.764 -0.9584 -0.4517 -0.2363
11511TIP3   OH255947   6.385   2.185  14.795 -0.3011 -0.3036 -0.1594
11511TIP3    H155948   6.432   2.255  14.840 -3.2874  1.5302  0.2251
11511TIP3    H255949   6.423   2.183  14.707  1.3723  0.2286  0.5394
11512TIP3   OH255950   1.931   3.144  16.818  0.1409  0.4694  0.0652
11512TIP3    H155951   1.884   3.138  16.735  0.3363 -0.1554 -0.0049
11512TIP3    H255952   1.873   3.195  16.875 -0.0822  0.7269 -0.3902
11513TIP3   OH255953   3.438   5.052  11.841 -0.6485  0.3555 -0.0796
11513TIP3    H155954   3.461   5.101  11.762  2.0461  1.5651  1.4093
11513TIP3    H255955   3.487   4.970  11.833  0.5132  0.9637  0.8987
11514TIP3   OH255956   2.992   2.113   4.231  0.1447 -0.3742  0.6275
11514TIP3    H155957   3.068   2.150   4.275 -0.0224  1.8135 -0.8397
11514TIP3    H255958   2.996   2.148   4.142 -1.6461 -1.5915  0.0369
11515TIP3   OH255959   0.695   1.629   0.516  0.6846 -0.4667  0.2108
11515TIP3    H155960   0.789   1.644   0.507  0.6130  1.2347  1.9659
11515TIP3    H255961   0.659   1.715   0.537 -1.1445 -1.2837  0.5153
11516TIP3   OH255962   6.154   4.297   3.632 -0.0378 -0.4069 -0.0500
11516TIP3    H155963   6.237   4.252   3.646 -0.2348 -0.8765 -0.3787
11516TIP3    H255964   6.108   4.243   3.568  0.3604  1.1118 -1.6173
11517TIP3   OH255965   3.291   6.694  11.527  0.1727  0.1473 -0.0503
11517TIP3    H155966   3.314   6.759  11.594 -0.9619 -0.9481  1.4173
11517TIP3    H255967   3.247   6.624  11.575 -0.6635 -0.6572 -1.9480
11518TIP3   OH255968   6.723   1.213  15.134  0.8291  0.5335 -0.2721
11518TIP3    H155969   6.764   1.298  15.121  0.6668  0.5934 -0.3873
11518TIP3    H255970   6.725   1.200  15.229  0.9474  0.6190 -0.2628
11519TIP3   OH255971   1.790   5.134   5.772 -0.6164 -0.2712  0.0204
11519TIP3    H155972   1.859   5.074   5.803  0.2755  0.0850 -1.2140
11519TIP3    H255973   1.715   5.115   5.828 -0.0933 -1.9867  0.1821
11520TIP3   OH255974   0.031   1.321   2.165 -0.0383  0.3810  0.0138
11520TIP3    H155975  -0.061   1.321   2.192 -0.0301 -0.1023  0.0537
11520TIP3    H255976   0.048   1.411   2.137 -1.0534  0.0264 -1.7724
11521TIP3   OH255977   3.899   4.320  12.272 -0.2112  0.3599  0.3967
11521TIP3    H155978   3.865   4.235  12.243 -2.1442  1.4214 -0.5906
11521TIP3    H255979   3.961   4.299  12.342 -2.1181 -1.7605  1.5319
11522TIP3   OH255980   1.238   2.676   2.751 -0.6219 -0.1677  0.2702
11522TIP3    H155981   1.279   2.748   2.703  0.8572  0.0540  1.8100
11522TIP3    H255982   1.311   2.617   2.772 -1.4675 -0.9679  1.0059
11523TIP3   OH255983   3.722   0.967  15.813 -0.4201  0.3191  0.6775
11523TIP3    H155984   3.745   0.876  15.835 -0.9382 -0.0509 -0.2538
11523TIP3    H255985   3.704   0.964  15.719 -1.8117  1.0924  0.9013
11524TIP3   OH255986   3.833   4.062  15.402 -0.7857  0.0350  0.2303
11524TIP3    H155987   3.923   4.036  15.381 -0.5162  2.3090 -1.6984
11524TIP3    H255988   3.783   3.981  15.396  1.0439 -1.1798  0.8455
11525TIP3   OH255989   1.072   6.395   1.351 -0.0384 -0.3798 -0.3757
11525TIP3    H155990   1.067   6.462   1.282  1.1487 -0.1490 -0.2390
11525TIP3    H255991   0.981   6.365   1.361 -0.2577 -0.2929 -1.9212
11526TIP3   OH255992   3.727   4.273  15.285  0.0600  0.5033  0.1770
11526TIP3    H155993   3.760   4.196  15.331 -0.2378 -0.8214 -1.7485
11526TIP3    H255994   3.770   4.347  15.327  2.3324 -0.9048  0.3983
11527TIP3   OH255995   0.974   0.423  16.310  0.1199 -0.0461  0.1439
11527TIP3    H155996   1.021   0.493  16.266  0.0237 -0.0958 -0.0380
11527TIP3    H255997   0.886   0.426  16.272  0.3249 -0.7349 -0.3875
11528TIP3   OH255998   1.805   5.920  15.226  0.4437  0.0464 -0.5274
11528TIP3    H155999   1.883   5.974  15.235 -0.4327  1.5220 -1.6913
11528TIP3    H256000   1.751   5.942  15.302  0.6078 -0.0803 -0.3727
11529TIP3   OH256001   2.271   6.534   2.364 -0.2034  0.5429 -0.0730
11529TIP3    H156002   2.248   6.534   2.271  1.1558 -0.6503 -0.4278
11529TIP3    H256003   2.343   6.597   2.371 -0.2391  0.5584  0.1447
11530TIP3   OH256004   0.216   1.459  13.723 -0.0464 -0.4430 -0.0132
11530TIP3    H156005   0.278   1.522  13.758 -0.9679 -0.3381  1.4710
11530TIP3    H256006   0.238   1.376  13.766 -0.3478 -0.6131 -0.1821
11531TIP3   OH256007   6.179   1.301  16.243  0.1516 -0.3637 -0.1766
11531TIP3    H156008   6.179   1.206  16.238  0.4268 -0.3572 -0.3791
11531TIP3    H256009   6.267   1.326  16.214  0.0553 -0.0462 -0.1992
11532TIP3   OH256010   1.418   6.394  11.114  0.3672 -0.5008 -0.1084
11532TIP3    H156011   1.447   6.304  11.100  0.5371 -0.5304  0.3996
11532TIP3    H256012   1.474   6.447  11.057 -1.1949 -0.9091 -2.0623
11533TIP3   OH256013   0.611   1.226   0.601  0.5529  0.3335 -0.1358
11533TIP3    H156014   0.530   1.270   0.627  0.4292 -0.3554  0.6600
11533TIP3    H256015   0.582   1.147   0.555  0.7298 -1.6130  2.9993
11534TIP3   OH256016   2.716   5.633   3.005 -0.0637 -0.5248 -0.0939
11534TIP3    H156017   2.632   5.629   3.051  0.0384 -0.4116  0.0997
11534TIP3    H256018   2.743   5.541   2.997  0.5149 -0.4628  1.1608
11535TIP3   OH256019   5.323   6.205   3.732  0.8109 -0.5484  0.0242
11535TIP3    H156020   5.408   6.163   3.720  0.6691 -1.1634  1.1618
11535TIP3    H256021   5.272   6.143   3.784 -0.3622 -0.2104 -0.7032
11536TIP3   OH256022   1.925   1.111  11.818 -0.1018  0.3778 -0.1934
11536TIP3    H156023   1.866   1.081  11.886  0.4200 -1.2232 -0.4173
11536TIP3    H256024   1.906   1.055  11.743  1.6995 -0.1864 -0.2605
11537TIP3   OH256025   3.269   2.687   5.776  0.2579  0.2119 -0.0689
11537TIP3    H156026   3.296   2.777   5.757 -1.4252  0.4968 -1.2624
11537TIP3    H256027   3.174   2.687   5.760 -0.1471 -1.2177  2.1605
11538TIP3   OH256028   3.852   3.905  15.759  0.2166 -0.1528  0.8095
11538TIP3    H156029   3.876   3.815  15.782  1.6372  0.2003  0.7732
11538TIP3    H256030   3.911   3.927  15.686 -0.3560  0.6907  0.5928
11539TIP3   OH256031   2.783   5.773   1.708 -0.6761 -0.3145 -0.5532
11539TIP3    H156032   2.760   5.719   1.783 -2.3397  0.9006 -0.1408
11539TIP3    H256033   2.823   5.713   1.645 -3.0448 -2.1509 -0.3637
11540TIP3   OH256034   1.000   2.144  11.042  0.2706  0.4842 -0.3993
11540TIP3    H156035   1.001   2.156  10.947 -0.8656 -0.6963 -0.5790
11540TIP3    H256036   0.909   2.155  11.067  0.1990 -1.3082  0.2391
11541TIP3   OH256037   3.017   3.805  16.732  0.0006  0.1499 -0.1581
11541TIP3    H156038   3.093   3.766  16.688  0.0051  0.2492 -0.2379
11541TIP3    H256039   3.053   3.875  16.786 -0.0379  0.2049 -0.2060
11542TIP3   OH256040   4.251   1.442  13.085  0.0428  0.4333  0.6577
11542TIP3    H156041   4.339   1.441  13.122  0.4344 -0.3230 -0.2739
11542TIP3    H256042   4.216   1.355  13.103  0.1037  0.1737 -0.4134
11543TIP3   OH256043   6.626   6.475  17.015  0.0965  0.8749 -0.2641
11543TIP3    H156044   6.564   6.450  16.947 -0.1961  0.9163 -0.0132
11543TIP3    H256045   6.694   6.525  16.969 -0.4186  1.4265 -0.4311
11544TIP3   OH256046   5.261   5.406  14.703  0.2186  0.0580 -0.7002
11544TIP3    H156047   5.177   5.374  14.736  0.0492  1.8770  0.7227
11544TIP3    H256048   5.264   5.375  14.613 -1.1605 -1.5677 -0.2206
11545TIP3   OH256049   6.074   2.544  13.111  0.5170  0.0638 -0.1674
11545TIP3    H156050   6.156   2.554  13.160 -0.7451  1.0767  1.7923
11545TIP3    H256051   6.022   2.621  13.134 -1.1258 -0.7113 -1.1672
11546TIP3   OH256052   1.161   6.031  14.557  0.0785  0.0296 -0.1718
11546TIP3    H156053   1.239   5.976  14.564 -0.6995 -1.1467 -0.5045
11546TIP3    H256054   1.126   6.034  14.646 -0.7562 -1.3781 -0.4184
11547TIP3   OH256055   2.523   2.512   4.105  0.1845  0.7174  0.0080
11547TIP3    H156056   2.569   2.476   4.029 -0.3343 -0.0762  0.0605
11547TIP3    H256057   2.586   2.503   4.177  0.5170  1.0757 -0.2315
11548TIP3   OH256058   1.045   0.521  11.328  0.0952  0.0277 -0.6982
11548TIP3    H156059   1.049   0.425  11.337 -0.3377  0.1153  0.5177
11548TIP3    H256060   0.952   0.542  11.340  0.1262  0.5672 -1.3748
11549TIP3   OH256061   4.983   3.676   3.088  0.0985 -0.0724 -0.1290
11549TIP3    H156062   4.944   3.760   3.113 -1.8743 -1.1219  0.3913
11549TIP3    H256063   4.954   3.615   3.155  2.2289 -1.0115 -0.0313
11550TIP3   OH256064   1.101   6.729   1.200 -0.1885 -0.1721 -0.0038
11550TIP3    H156065   1.043   6.803   1.216 -0.2730 -0.1851 -0.2397
11550TIP3    H256066   1.052   6.674   1.139  0.0048 -0.2628 -0.0763
11551TIP3   OH256067   3.635   0.909  10.515  0.0033 -0.4414 -0.6353
11551TIP3    H156068   3.573   0.976  10.542  0.3301 -0.6514  0.7106
11551TIP3    H256069   3.591   0.826  10.536 -0.1448 -0.6374 -1.7030
11552TIP3   OH256070   4.100   6.424  14.742  0.1399  0.3103  0.8632
11552TIP3    H156071   4.099   6.370  14.821  1.1446 -1.8893 -0.5778
11552TIP3    H256072   4.083   6.513  14.773  0.7017 -0.4905  3.5642
11553TIP3   OH256073   6.534   1.985  16.658  0.2418 -0.7245 -0.5490
11553TIP3    H156074   6.463   2.047  16.676  0.8492  0.3336 -1.6839
11553TIP3    H256075   6.505   1.903  16.699 -0.7214  0.2094  0.6968
11554TIP3   OH256076   0.737   6.053   4.189 -0.0333  0.8115 -0.2101
11554TIP3    H156077   0.750   6.013   4.103 -0.2523 -3.2403  1.5007
11554TIP3    H256078   0.819   6.096   4.209  1.7912 -2.3876 -0.4735
11555TIP3   OH256079   3.602   2.516  12.445 -0.3382  0.3077  0.4871
11555TIP3    H156080   3.553   2.486  12.521  1.5216 -2.4050  0.6731
11555TIP3    H256081   3.665   2.578  12.480  1.3900 -1.8990  1.4354
11556TIP3   OH256082   4.841   1.118   1.896  0.4987  0.0498  0.0619
11556TIP3    H156083   4.841   1.196   1.952  0.1699  0.1437 -0.0648
11556TIP3    H256084   4.926   1.120   1.852 -0.1212  1.2010 -1.1252
11557TIP3   OH256085   4.914   6.759   5.821 -0.5403 -0.1108 -0.0253
11557TIP3    H156086   4.996   6.722   5.853 -0.7473 -0.9863 -0.5177
11557TIP3    H256087   4.904   6.841   5.870 -0.5837 -1.1749  1.7549
11558TIP3   OH256088   4.424   4.985  10.777  0.2315  0.6893 -0.0122
11558TIP3    H156089   4.437   4.913  10.839 -0.3307  0.1890 -0.4704
11558TIP3    H256090   4.466   4.955  10.697 -0.3678  0.6953 -0.3303
11559TIP3   OH256091   2.039   2.117   1.623 -0.1051  0.2407  0.7009
11559TIP3    H156092   2.032   2.173   1.701  1.1922 -0.5780  1.4235
11559TIP3    H256093   1.972   2.050   1.636 -0.2673  0.4259  0.8345
11560TIP3   OH256094   1.786   5.192  14.065  0.1753 -0.2190  0.3712
11560TIP3    H156095   1.868   5.181  14.017  1.3591  1.9390  1.8179
11560TIP3    H256096   1.730   5.243  14.007 -0.1015 -1.5149 -0.5333
11561TIP3   OH256097   3.133   0.858   4.911  0.0769  0.4541 -0.6119
11561TIP3    H156098   3.219   0.823   4.886 -1.4346 -1.6409 -3.1732
11561TIP3    H256099   3.141   0.952   4.895  1.4181  0.0731 -2.4305
11562TIP3   OH256100   3.296   4.638  10.828  0.8500  0.2882  0.6080
11562TIP3    H156101   3.366   4.681  10.779  1.6519 -1.7058 -0.0185
11562TIP3    H256102   3.228   4.622  10.763  0.3883  0.9607  0.9228
11563TIP3   OH256103   4.516   2.115  11.650 -0.3037 -0.2252 -0.2519
11563TIP3    H156104   4.586   2.168  11.687 -0.0627 -0.2000 -0.7355
11563TIP3    H256105   4.557   2.067  11.578 -0.7482 -0.3134 -0.4544
11564TIP3   OH256106   0.137   5.448   2.836 -0.4571 -0.0135 -0.1915
11564TIP3    H156107   0.219   5.454   2.885 -0.4726  0.8651 -0.2756
11564TIP3    H256108   0.121   5.536   2.804 -0.9858 -0.3668 -0.9168
11565TIP3   OH256109   4.391   1.664  10.769  0.3819  0.5126  0.0398
11565TIP3    H156110   4.474   1.701  10.737  0.0830  1.0235 -0.1600
11565TIP3    H256111   4.336   1.741  10.783 -0.2226  0.1402 -0.3055
11566TIP3   OH256112   4.439   3.165  10.763  0.4113  0.7423 -0.6953
11566TIP3    H156113   4.347   3.193  10.759 -0.6714 -2.5346 -0.0648
11566TIP3    H256114   4.464   3.177  10.855 -0.6515 -1.9381  0.0096
11567TIP3   OH256115   0.218   5.683   5.523 -0.9123 -0.1230  0.1976
11567TIP3    H156116   0.233   5.671   5.617 -1.3155 -0.9851  0.1578
11567TIP3    H256117   0.226   5.777   5.509  2.2492 -0.2787  0.5800
11568TIP3   OH256118   4.117   5.941  14.816 -0.4252 -0.1756 -0.0828
11568TIP3    H156119   4.022   5.937  14.827 -0.2678  0.1702  1.4902
11568TIP3    H256120   4.129   5.986  14.732 -1.6437  0.0937 -0.1247
11569TIP3   OH256121   6.523   2.987   1.598  0.0012 -0.1974  0.0741
11569TIP3    H156122   6.438   3.023   1.572  0.4881  0.1224 -1.1301
11569TIP3    H256123   6.586   3.032   1.541  0.7293 -2.1408 -0.7053
11570TIP3   OH256124   3.395   0.979  11.611  0.0785 -0.1637 -0.5842
11570TIP3    H156125   3.406   0.884  11.614  3.2541  0.1572  1.0017
11570TIP3    H256126   3.443   1.006  11.533 -1.0432  0.1339 -1.1795
11571TIP3   OH256127   5.025   6.174   6.006 -0.3548  0.1321  0.4799
11571TIP3    H156128   5.027   6.261   6.047 -0.2581 -0.3500  1.5026
11571TIP3    H256129   4.958   6.126   6.055 -0.5530 -0.3127 -0.2197
11572TIP3   OH256130   0.800   6.115  15.372 -0.0464 -0.6477  0.0507
11572TIP3    H156131   0.774   6.207  15.378 -2.4851 -1.2921 -0.1724
11572TIP3    H256132   0.721   6.069  15.346  0.7976 -3.0110  1.4800
11573TIP3   OH256133   5.374   6.464   0.825 -0.4681 -0.5160 -0.7779
11573TIP3    H156134   5.386   6.372   0.801 -0.2653 -1.0516  1.2553
11573TIP3    H256135   5.410   6.471   0.914  2.2127  2.1889 -1.9627
11574TIP3   OH256136   6.271   0.653   4.319 -0.2308  0.6849  0.4388
11574TIP3    H156137   6.186   0.616   4.342 -1.3431  3.3828  0.8082
11574TIP3    H256138   6.251   0.721   4.255  1.2939  3.2516  2.5671
11575TIP3   OH256139   4.194   2.990  14.277 -0.0524  0.2872  0.0448
11575TIP3    H156140   4.141   3.063  14.247 -1.7479 -0.5821  0.8625
11575TIP3    H256141   4.134   2.937  14.330  0.3067 -3.2514 -2.9079
11576TIP3   OH256142   2.246   6.167  15.641  0.0180 -0.3540  0.0319
11576TIP3    H156143   2.216   6.258  15.635  0.5680 -0.0337  1.7909
11576TIP3    H256144   2.167   6.118  15.665  0.1263 -0.0572  0.9995
11577TIP3   OH256145   2.076   6.070   0.586  0.3050  0.1850 -0.5152
11577TIP3    H156146   2.013   6.056   0.656 -0.2993 -0.0873 -1.1092
11577TIP3    H256147   2.140   6.131   0.623  0.1441 -0.1678  0.3637
11578TIP3   OH256148   4.352   0.101  13.519  0.0191  0.1207  0.2143
11578TIP3    H156149   4.273   0.133  13.562 -1.3122 -0.7052 -1.5558
11578TIP3    H256150   4.419   0.165  13.542 -0.8816  0.2276  2.6606
11579TIP3   OH256151   4.563   2.700   5.660 -0.4224 -0.1279 -0.1696
11579TIP3    H156152   4.609   2.671   5.739  1.1558 -0.4170 -1.1692
11579TIP3    H256153   4.615   2.774   5.628 -2.6646  1.8458  0.6245
11580TIP3   OH256154   2.723   2.599  15.935  0.0684 -0.3893  0.3725
11580TIP3    H156155   2.719   2.609  15.840  0.8889  2.0139  0.5678
11580TIP3    H256156   2.631   2.595  15.962 -0.1741 -0.6838 -0.4759
11581TIP3   OH256157   0.936   2.782   0.411 -0.0395 -0.0439 -0.1660
11581TIP3    H156158   0.852   2.825   0.397  0.2558  0.9823  1.0845
11581TIP3    H256159   0.968   2.761   0.323 -1.4802 -0.2306 -0.6538
11582TIP3   OH256160   2.880   3.053  15.136  0.5433  0.1570  0.3493
11582TIP3    H156161   2.918   2.991  15.199 -0.7968 -0.7490  0.3085
11582TIP3    H256162   2.940   3.052  15.062  1.3069  0.0152  0.9648
11583TIP3   OH256163   2.736   2.910  16.103 -0.4190  0.3381  0.4472
11583TIP3    H156164   2.673   2.969  16.060 -2.0155 -2.0261 -0.5724
11583TIP3    H256165   2.813   2.912  16.047 -0.0189  2.2590  1.0104
11584TIP3   OH256166   2.776   1.241  17.198  0.1868  0.1496  0.2448
11584TIP3    H156167   2.729   1.308  17.149 -1.5790  0.4675  2.3115
11584TIP3    H256168   2.855   1.285  17.229  1.3400 -0.0662 -2.3020
11585TIP3   OH256169   6.061   4.636   3.127  0.2097  0.1479 -0.0913
11585TIP3    H156170   5.996   4.572   3.097 -0.0692 -0.3581  1.5106
11585TIP3    H256171   6.106   4.592   3.199 -0.2807  1.8934  1.3179
11586TIP3   OH256172   2.933   3.310   3.020 -0.1959 -0.2893  0.3196
11586TIP3    H156173   2.910   3.344   2.933  0.9590  0.6206  0.3614
11586TIP3    H256174   2.916   3.384   3.079 -2.2158 -1.2986  1.0687
11587TIP3   OH256175   5.657   5.792  11.995 -0.3487 -0.1235  0.5624
11587TIP3    H156176   5.735   5.847  11.981 -0.6944 -0.1525 -1.7389
11587TIP3    H256177   5.682   5.707  11.959 -2.0253  0.3630 -1.8496
11588TIP3   OH256178   0.513   3.517   3.445  0.3260 -0.1719  0.3609
11588TIP3    H156179   0.429   3.481   3.472  1.7748 -3.0673  1.2062
11588TIP3    H256180   0.575   3.445   3.457  2.7959  1.6500 -0.9916
11589TIP3   OH256181   4.783   0.681   1.154 -0.0353 -0.4598  0.1307
11589TIP3    H156182   4.713   0.690   1.089 -0.5664  1.8107  0.9866
11589TIP3    H256183   4.748   0.617   1.217 -0.2856 -1.2344 -0.7708
11590TIP3   OH256184   0.203   3.054  11.321 -0.6349 -0.0885 -0.0732
11590TIP3    H156185   0.184   2.963  11.343 -0.0259  0.1903  1.7009
11590TIP3    H256186   0.137   3.078  11.256 -0.2134 -2.0782 -1.2796
11591TIP3   OH256187   3.056   5.855  11.122  0.5525  0.0300  0.1237
11591TIP3    H156188   3.144   5.841  11.088  0.7237 -0.1194  0.6197
11591TIP3    H256189   2.998   5.819  11.055  0.9226 -1.3131  0.5042
11592TIP3   OH256190   3.906   4.372   6.159  0.1335 -0.3092  0.2646
11592TIP3    H156191   3.860   4.444   6.114 -0.6859 -0.3297  1.0396
11592TIP3    H256192   3.962   4.334   6.092 -1.0868 -0.3603 -0.7628
11593TIP3   OH256193   4.144   6.364   4.544 -0.2421  0.0949  0.3306
11593TIP3    H156194   4.101   6.394   4.624  0.4298 -0.1185  0.7696
11593TIP3    H256195   4.082   6.386   4.474 -0.3973  1.1757  0.7972
11594TIP3   OH256196   0.735   2.771  14.391 -0.1367 -0.0058 -0.4799
11594TIP3    H156197   0.767   2.694  14.343 -1.6791 -1.4133  0.6757
11594TIP3    H256198   0.659   2.800  14.340 -0.3333 -0.0412 -0.2070
11595TIP3   OH256199   6.248   3.413   4.380  0.0070 -0.3196 -0.1344
11595TIP3    H156200   6.239   3.477   4.451 -2.2635 -0.4733 -0.2663
11595TIP3    H256201   6.174   3.430   4.322  1.2922 -0.8376 -1.9830
11596TIP3   OH256202   4.630   1.892  16.766  0.8551 -0.2210  0.6552
11596TIP3    H156203   4.599   1.801  16.764 -0.1296  0.0195  3.0985
11596TIP3    H256204   4.680   1.899  16.847 -0.9045  1.9587  1.6150
11597TIP3   OH256205   2.469   0.847   1.626  0.8790  0.1459  0.1613
11597TIP3    H156206   2.438   0.931   1.592  0.7152 -0.0639 -0.2107
11597TIP3    H256207   2.456   0.854   1.720 -0.4819 -0.0078 -0.0033
11598TIP3   OH256208   2.314   2.798   2.526 -0.6963  0.2346  0.9091
11598TIP3    H156209   2.392   2.849   2.547 -0.4079  0.5106 -0.7620
11598TIP3    H256210   2.267   2.852   2.462 -0.4678 -1.4916 -0.7503
11599TIP3   OH256211   3.851   5.316  12.080  0.1543  1.1253  0.0890
11599TIP3    H156212   3.788   5.364  12.026 -0.9927  0.6233  0.9702
11599TIP3    H256213   3.922   5.293  12.019 -1.2036  0.4031 -1.2441
11600TIP3   OH256214   4.828   4.135  14.067 -0.3245 -0.0469  0.0735
11600TIP3    H156215   4.847   4.080  13.990  0.6723  0.2864  0.0742
11600TIP3    H256216   4.799   4.073  14.134 -1.6533 -0.2922 -0.7058
11601TIP3   OH256217   3.922   3.580  14.682  0.3932 -0.6272 -0.8099
11601TIP3    H156218   3.933   3.493  14.720  0.0948 -1.1242 -1.8426
11601TIP3    H256219   3.908   3.564  14.588 -0.5168  0.4735 -0.8783
11602TIP3   OH256220   4.358   3.020   4.972  0.4023 -0.5360  0.2337
11602TIP3    H156221   4.449   3.032   5.001  0.0128  0.7128  1.0223
11602TIP3    H256222   4.338   2.929   4.991  1.8332 -1.0964 -0.9381
11603TIP3   OH256223   1.052   4.201  10.938 -0.0893  0.0971 -0.5278
11603TIP3    H156224   0.997   4.278  10.955 -0.6146 -0.8112  1.9612
11603TIP3    H256225   1.109   4.195  11.014 -0.2087 -2.1328 -0.6068
11604TIP3   OH256226   4.422   5.223   4.916  0.2225  0.0221 -0.6037
11604TIP3    H156227   4.493   5.182   4.966  1.1373  0.0463 -1.8635
11604TIP3    H256228   4.450   5.314   4.905  0.1728 -0.0641 -1.4350
11605TIP3   OH256229   0.932   0.091  13.322  0.1720  1.0524 -0.0283
11605TIP3    H156230   0.959   0.177  13.354 -0.3435  1.9106 -1.8512
11605TIP3    H256231   0.931   0.100  13.227  0.8010 -1.1829 -0.2694
11606TIP3   OH256232   2.812   6.287   3.886 -0.6644 -0.3894  0.1982
11606TIP3    H156233   2.827   6.366   3.938  0.9320 -0.3749 -0.2378
11606TIP3    H256234   2.897   6.269   3.844 -1.3511 -1.5895 -0.7403
11607TIP3   OH256235   3.663   5.739   0.006 -0.2362 -0.0915 -0.3361
11607TIP3    H156236   3.613   5.821   0.011  0.7876  0.4775  0.8934
11607TIP3    H256237   3.664   5.717  -0.087 -1.3991  0.7416 -0.5605
11608TIP3   OH256238   2.576   4.310  12.116  0.3476  0.2587  0.3729
11608TIP3    H156239   2.499   4.366  12.110  0.5166  0.4879  0.3534
11608TIP3    H256240   2.578   4.264  12.032  0.7891  0.9790 -0.0185
11609TIP3   OH256241   3.964   2.951   2.955 -0.4614  0.0951 -0.1427
11609TIP3    H156242   3.908   3.023   2.926 -3.0170 -1.8365 -0.2156
11609TIP3    H256243   3.920   2.916   3.033  0.6545 -1.4702 -0.1964
11610TIP3   OH256244   2.191   1.975  16.422  0.1469 -0.2499  0.1033
11610TIP3    H156245   2.252   1.902  16.413 -1.2559 -1.6163  1.3460
11610TIP3    H256246   2.241   2.042  16.469  0.7996 -1.2145  0.7977
11611TIP3   OH256247   5.966   3.971   4.565 -0.3974 -0.4952 -0.2482
11611TIP3    H156248   6.005   3.992   4.481 -0.5091 -2.1859 -0.7356
11611TIP3    H256249   5.872   3.980   4.551 -0.3552  0.4212  0.0373
11612TIP3   OH256250   5.362   6.574   6.723 -0.2871 -0.2046  0.2143
11612TIP3    H156251   5.289   6.636   6.726 -0.2839 -0.1050 -1.3213
11612TIP3    H256252   5.417   6.605   6.651  0.5260 -1.1000  0.4365
11613TIP3   OH256253   3.537   4.520   2.880 -0.1092  0.0737 -0.0159
11613TIP3    H156254   3.442   4.523   2.866 -0.6553 -3.2102  2.3274
11613TIP3    H256255   3.572   4.482   2.800 -0.8704  0.5226 -0.5662
11614TIP3   OH256256   4.660   4.226   3.056 -0.0325  0.7947 -0.8520
11614TIP3    H156257   4.682   4.313   3.025  2.3412  0.4000 -0.3521
11614TIP3    H256258   4.650   4.236   3.151  0.2557  0.5117 -0.7922
11615TIP3   OH256259   2.183   5.027  15.295  0.3001 -0.1786 -0.2332
11615TIP3    H156260   2.269   4.997  15.267 -0.3661 -1.1380 -1.3321
11615TIP3    H256261   2.163   4.975  15.372  1.9616  2.1701  1.8747
11616TIP3   OH256262   5.104   5.254  13.345 -0.1934 -0.1535 -0.3252
11616TIP3    H156263   5.141   5.166  13.355  0.1530 -0.0013 -0.2797
11616TIP3    H256264   5.153   5.308  13.407 -0.3545  0.0869 -0.4078
11617TIP3   OH256265   0.085   5.893   3.338 -0.1186 -0.4588  0.0410
11617TIP3    H156266   0.067   5.800   3.350  0.9013 -0.9183 -1.7948
11617TIP3    H256267   0.147   5.896   3.265 -0.7122  1.6982 -0.4035
11618TIP3   OH256268   3.225   3.306  14.634  0.3319 -0.4028 -0.1581
11618TIP3    H156269   3.181   3.323  14.718 -2.1158  1.5293 -1.7413
11618TIP3    H256270   3.174   3.235  14.595  0.5087 -0.2317 -0.6999
11619TIP3   OH256271   1.554   1.752   1.408 -0.7925 -0.1008 -0.5129
11619TIP3    H156272   1.579   1.664   1.436  0.5517  1.0594  2.1800
11619TIP3    H256273   1.553   1.749   1.313 -0.0648 -2.8336 -0.4483
11620TIP3   OH256274   4.832   3.024  14.454 -1.1387  0.3298  0.0869
11620TIP3    H156275   4.834   2.986  14.366 -1.1491  0.8887 -0.1606
11620TIP3    H256276   4.807   2.952  14.511 -0.4997 -0.1944 -0.2887
11621TIP3   OH256277   5.400   0.678  15.699  0.0872  0.5536 -0.2112
11621TIP3    H156278   5.389   0.746  15.765 -1.0721 -0.9344  1.1567
11621TIP3    H256279   5.483   0.636  15.720 -0.6927 -0.4854  0.8531
11622TIP3   OH256280   5.897   2.336  15.040 -0.0894 -0.3821  0.0735
11622TIP3    H156281   5.942   2.264  14.996  2.8206  1.1298  0.4640
11622TIP3    H256282   5.887   2.403  14.972  1.2855  0.5804  0.7888
11623TIP3   OH256283   3.385   3.278   5.742  0.3847  0.2711 -0.0613
11623TIP3    H156284   3.446   3.205   5.756 -0.5791 -1.2999 -3.5084
11623TIP3    H256285   3.309   3.239   5.700 -1.9884  2.6421  1.8225
11624TIP3   OH256286   1.784   0.655   3.257 -0.1257  0.4987  0.1323
11624TIP3    H156287   1.701   0.666   3.210  0.3751 -1.1127 -1.1651
11624TIP3    H256288   1.758   0.642   3.348 -1.2168  1.4821 -0.0243
11625TIP3   OH256289   1.390   1.641   0.522  0.2005  0.1908  0.1326
11625TIP3    H156290   1.408   1.551   0.549  1.8877  0.5671  0.3339
11625TIP3    H256291   1.394   1.691   0.603  0.6116  0.6393 -0.1623
11626TIP3   OH256292   4.642   3.106   3.764  0.0079 -0.7290 -0.0718
11626TIP3    H156293   4.640   3.111   3.859 -2.6679  3.2580 -0.2220
11626TIP3    H256294   4.633   3.013   3.744  0.6651 -1.6393  3.5159
11627TIP3   OH256295   5.802   1.205  12.244  0.5429 -0.2138  0.0219
11627TIP3    H156296   5.794   1.115  12.212 -0.3830  0.1810 -0.8836
11627TIP3    H256297   5.715   1.225  12.279  1.0671 -0.0501  1.2298
11628TIP3   OH256298   4.840   5.456   0.525  0.2270 -0.3469  0.2535
11628TIP3    H156299   4.927   5.493   0.512  0.3437 -1.2030 -1.5945
11628TIP3    H256300   4.852   5.389   0.593  1.5013 -2.0146 -1.5508
11629TIP3   OH256301   0.815   4.156   1.722  0.7906 -0.2930 -0.2163
11629TIP3    H156302   0.785   4.153   1.812 -0.4109  2.2756 -0.4669
11629TIP3    H256303   0.786   4.073   1.684 -0.2811 -0.6260  1.2769
11630TIP3   OH256304   2.742   0.506   5.949 -0.3768 -0.1108 -0.6640
11630TIP3    H156305   2.803   0.514   6.022 -1.8589 -2.0183  0.8376
11630TIP3    H256306   2.798   0.510   5.871  1.3885  0.4835  0.5887
11631TIP3   OH256307   6.521   0.727   0.230  0.0929  0.6741 -0.2479
11631TIP3    H156308   6.581   0.796   0.203  4.0832 -2.2852  0.4386
11631TIP3    H256309   6.541   0.654   0.172 -3.3285 -0.2559 -0.3655
11632TIP3   OH256310   0.343   0.023  15.618  0.1429  0.1205 -0.6950
11632TIP3    H156311   0.409   0.072  15.569  0.1830 -0.2592 -1.0232
11632TIP3    H256312   0.362  -0.068  15.598  0.1391 -0.0334  0.0068
11633TIP3   OH256313   1.532   4.379   4.835 -0.0190 -0.8339  0.2299
11633TIP3    H156314   1.569   4.464   4.858 -1.0199 -0.1574 -0.5709
11633TIP3    H256315   1.451   4.401   4.788  1.1268 -2.1578 -2.4469
11634TIP3   OH256316   0.882   0.519   2.760  0.2015  0.0736  0.7344
11634TIP3    H156317   0.796   0.556   2.780  0.3533  1.8719 -1.6877
11634TIP3    H256318   0.924   0.585   2.705  1.5080 -2.5472 -1.5701
11635TIP3   OH256319   5.892   2.442  12.050 -0.4394  0.4733  0.7708
11635TIP3    H156320   5.847   2.494  12.117 -0.9253  2.5816 -1.1262
11635TIP3    H256321   5.887   2.496  11.971  1.4340 -1.3063 -0.6024
11636TIP3   OH256322   5.124   0.800  15.912  0.3868  0.3661  0.0263
11636TIP3    H156323   5.051   0.858  15.892 -0.4506 -1.0528 -1.1344
11636TIP3    H256324   5.201   0.848  15.882 -0.4345  0.2335 -2.4675
11637TIP3   OH256325   3.059   1.768  15.654  0.2189  0.3980 -0.0526
11637TIP3    H156326   3.054   1.861  15.633  0.0497 -0.2332 -2.9587
11637TIP3    H256327   2.982   1.752  15.709 -0.9116  1.5549 -1.2465
11638TIP3   OH256328   6.741   2.686  12.488 -0.2490 -0.3232 -0.0806
11638TIP3    H156329   6.789   2.605  12.474  1.9947  0.9610 -0.1101
11638TIP3    H256330   6.667   2.681  12.428  0.6160 -1.7559 -1.0565
11639TIP3   OH256331   5.933   5.735  17.130  0.1173  0.5970 -0.3744
11639TIP3    H156332   5.839   5.741  17.147  0.2851 -1.1170  1.4212
11639TIP3    H256333   5.950   5.641  17.124  1.9780  0.8136  1.0083
11640TIP3   OH256334   5.951   0.079   2.194  0.8710 -0.4249 -0.1865
11640TIP3    H156335   5.912   0.142   2.255  3.1338  0.7371  0.1215
11640TIP3    H256336   6.007   0.132   2.137  1.8638 -1.9978 -0.7105
11641TIP3   OH256337   2.583   5.800   2.685  0.6719 -0.0908 -0.0367
11641TIP3    H156338   2.574   5.852   2.765 -0.3464  0.4271 -0.4815
11641TIP3    H256339   2.640   5.728   2.710 -2.7351 -2.1132  2.2322
11642TIP3   OH256340   0.666   6.311  17.233 -0.1238  0.2130  0.1238
11642TIP3    H156341   0.589   6.337  17.182  1.1986  1.1524 -1.4504
11642TIP3    H256342   0.658   6.361  17.314 -1.3790 -0.0113  0.1556
11643TIP3   OH256343   0.888   3.718   3.765  0.5632  0.1875 -0.0672
11643TIP3    H156344   0.893   3.796   3.710 -1.9403  0.7268  0.3991
11643TIP3    H256345   0.798   3.686   3.753  0.8813 -1.3443  1.4642
11644TIP3   OH256346   6.149   5.494  14.304  0.2933  0.4075  0.2269
11644TIP3    H156347   6.066   5.486  14.350  0.0932  2.8881  0.3877
11644TIP3    H256348   6.127   5.537  14.222  1.2405 -0.0789 -0.2849
11645TIP3   OH256349   5.635   0.832   5.576  0.1209 -0.2632  0.5801
11645TIP3    H156350   5.572   0.878   5.632  0.2879  0.6815 -0.0016
11645TIP3    H256351   5.639   0.743   5.613 -0.3449  0.1265  1.5975
11646TIP3   OH256352   3.402   4.358  12.328  0.6562 -0.1496  0.1210
11646TIP3    H156353   3.344   4.432  12.309  2.9540  1.3145 -1.3838
11646TIP3    H256354   3.413   4.313  12.245 -0.1102 -1.7730  0.8733
11647TIP3   OH256355   2.321   1.588  14.795  0.1267  0.2023 -0.7128
11647TIP3    H156356   2.307   1.572  14.888 -0.1988 -0.7773 -0.9288
11647TIP3    H256357   2.335   1.682  14.789  4.7194 -0.2685  0.9127
11648TIP3   OH256358   6.443   5.072   5.534  0.0176 -0.3560  0.1712
11648TIP3    H156359   6.351   5.044   5.529  0.0868 -0.5433 -0.0505
11648TIP3    H256360   6.439   5.165   5.555 -0.2201 -0.5681  1.0991
11649TIP3   OH256361   2.654   1.011   2.750 -0.6284  0.2607  0.5209
11649TIP3    H156362   2.561   1.032   2.740 -0.4830  1.5128  1.7464
11649TIP3    H256363   2.698   1.095   2.741  0.3483 -0.2455  0.5659
11650TIP3   OH256364   3.662   5.069  12.851 -0.3094  0.1312 -0.3928
11650TIP3    H156365   3.755   5.044  12.849 -0.0388  1.0536  0.3806
11650TIP3    H256366   3.647   5.112  12.767  0.8288  2.9650  0.7858
11651TIP3   OH256367   1.481   2.954   4.552  0.8396 -0.2709 -0.2194
11651TIP3    H156368   1.448   2.964   4.641 -0.2429 -1.1045 -0.5188
11651TIP3    H256369   1.447   3.031   4.505 -0.9511 -1.2633 -0.5938
11652TIP3   OH256370   6.036   6.115  12.200 -0.2112  0.1773  0.0252
11652TIP3    H156371   5.966   6.171  12.234 -0.2108  0.5991 -0.6604
11652TIP3    H256372   6.057   6.153  12.115  2.7669  1.7458  1.3865
11653TIP3   OH256373   3.471   6.413  10.530  0.0753 -0.1049 -0.1241
11653TIP3    H156374   3.455   6.431  10.438  2.3067 -0.2793 -0.5517
11653TIP3    H256375   3.518   6.490  10.562 -1.3062  0.2844  1.0791
11654TIP3   OH256376   3.477   2.805   0.492  0.6280 -0.1688 -0.8463
11654TIP3    H156377   3.416   2.731   0.495  0.9304 -0.4325 -1.2255
11654TIP3    H256378   3.456   2.851   0.411  0.1173  0.4443 -0.3799
11655TIP3   OH256379   3.400   6.687  14.024 -0.3481 -0.0422  0.7266
11655TIP3    H156380   3.472   6.749  14.027  0.1724 -0.5035 -1.5413
11655TIP3    H256381   3.325   6.739  13.995  0.0740 -0.4223 -1.1135
11656TIP3   OH256382   3.255   2.986   3.714 -0.0943  0.2812  0.3885
11656TIP3    H156383   3.178   3.037   3.691  0.0814  0.7936  0.9205
11656TIP3    H256384   3.221   2.909   3.759 -0.5583 -1.6122 -3.0704
11657TIP3   OH256385   0.271   6.103  13.536  0.5874 -0.9070  0.2296
11657TIP3    H156386   0.346   6.044  13.539  1.1655 -0.2198 -0.5623
11657TIP3    H256387   0.222   6.083  13.616  2.2703 -0.4796  1.3974
11658TIP3   OH256388   4.834   5.213   4.433  0.6064 -0.2694 -0.2723
11658TIP3    H156389   4.827   5.187   4.342 -1.5555 -0.0097 -0.2005
11658TIP3    H256390   4.885   5.294   4.431  0.4746 -0.2048 -1.2637
11659TIP3   OH256391   5.934   5.769   4.175 -0.1502 -0.2929 -0.6034
11659TIP3    H156392   5.876   5.693   4.179 -1.9287  1.0337 -0.5966
11659TIP3    H256393   5.888   5.837   4.224  2.3371  0.2121  1.1440
11660TIP3   OH256394   5.120   1.257   3.298  0.0049  0.1089  0.6705
11660TIP3    H156395   5.049   1.295   3.247  0.5510  1.7129  1.0541
11660TIP3    H256396   5.077   1.216   3.373 -0.5289  1.1327  0.9338
11661TIP3   OH256397   2.077   2.949   5.619 -0.3937 -0.3158 -0.4017
11661TIP3    H156398   1.990   2.988   5.624 -0.3712 -0.3532  0.3748
11661TIP3    H256399   2.068   2.864   5.662 -0.6187 -1.5092 -2.7772
11662TIP3   OH256400   4.999   2.604   3.437  0.0563  0.1114  0.2493
11662TIP3    H156401   5.053   2.525   3.427 -0.5787 -0.1243 -1.6778
11662TIP3    H256402   4.914   2.571   3.466 -1.0697 -0.3008 -3.1792
11663TIP3   OH256403   1.767   4.501   0.076  0.1121  0.1620 -0.2385
11663TIP3    H156404   1.793   4.583   0.118  0.7527 -0.6075  0.9095
11663TIP3    H256405   1.682   4.481   0.116  0.1834  0.0213 -0.1578
11664TIP3   OH256406   0.874   5.054   5.433 -0.0588 -0.1326 -0.6600
11664TIP3    H156407   0.816   5.123   5.403 -1.5856 -1.1214 -0.0371
11664TIP3    H256408   0.914   5.089   5.513 -0.6665  0.1136 -0.4642
11665TIP3   OH256409   0.357   5.498  13.053 -0.1753 -0.6872 -0.1508
11665TIP3    H156410   0.382   5.501  13.145 -1.3035  0.5259  0.1301
11665TIP3    H256411   0.398   5.575  13.014 -0.3812 -0.7475 -0.4889
11666TIP3   OH256412   3.918   6.377   2.060 -0.3957 -0.2348 -0.6100
11666TIP3    H156413   3.985   6.372   1.992 -0.7858  1.9191 -1.2172
11666TIP3    H256414   3.835   6.370   2.012 -0.6354 -1.4538 -0.0312
11667TIP3   OH256415   2.123   2.278  12.310  0.0604  0.0653  0.4773
11667TIP3    H156416   2.119   2.226  12.230  2.5040 -0.6425  0.7839
11667TIP3    H256417   2.174   2.225  12.371 -0.3000  1.3549  1.9529
11668TIP3   OH256418   4.973   5.986  15.901 -0.1569 -0.4316  0.0637
11668TIP3    H156419   5.009   5.941  15.825 -0.2844  0.6401 -0.6404
11668TIP3    H256420   4.924   6.060  15.865 -1.5369 -0.8069  1.0962
11669TIP3   OH256421   4.399   0.491   2.916 -0.4459  0.0303 -0.7776
11669TIP3    H156422   4.388   0.425   2.847  0.9647 -0.0405 -0.9406
11669TIP3    H256423   4.366   0.572   2.878  1.0826  0.1713 -1.8408
11670TIP3   OH256424   3.626   5.256   1.494  0.3584 -0.1714  0.1639
11670TIP3    H156425   3.687   5.329   1.485 -0.2795  0.3176 -0.2105
11670TIP3    H256426   3.546   5.286   1.451 -1.1578  0.3099  3.2525
11671TIP3   OH256427   5.788   6.018  12.889 -0.4457  0.5705 -0.4264
11671TIP3    H156428   5.840   5.975  12.957 -0.1297  1.5499 -0.0314
11671TIP3    H256429   5.761   6.101  12.929 -0.1144  1.2371 -1.5469
11672TIP3   OH256430   2.513   4.215   1.009  0.1077 -0.1540  0.8187
11672TIP3    H156431   2.425   4.250   0.993  1.4439  3.0761  0.2222
11672TIP3    H256432   2.531   4.160   0.933  0.5149  3.1966 -1.6224
11673TIP3   OH256433   0.033   5.312  14.748  0.2649  0.3843 -0.0295
11673TIP3    H156434  -0.037   5.359  14.795 -0.4169 -1.7458  1.1144
11673TIP3    H256435   0.072   5.379  14.691 -0.9938  2.2306  1.2272
11674TIP3   OH256436   0.911   3.450  11.120  0.1819  0.3603  0.5215
11674TIP3    H156437   0.854   3.425  11.193  2.3663 -0.9876  1.8278
11674TIP3    H256438   0.977   3.380  11.117 -0.4370 -0.1455 -3.3990
11675TIP3   OH256439   2.318   6.195   4.369  0.0170  0.4060 -0.0265
11675TIP3    H156440   2.355   6.107   4.363  0.2945  0.6237 -2.1611
11675TIP3    H256441   2.353   6.231   4.450  1.9676 -0.5322 -0.4302
11676TIP3   OH256442   5.546   3.844  14.512 -0.0451 -0.1073  0.0200
11676TIP3    H156443   5.641   3.851  14.517  0.3042 -2.2805 -2.3495
11676TIP3    H256444   5.520   3.916  14.454  0.6160 -1.7173 -2.3700
11677TIP3   OH256445   2.581   1.102   5.925 -0.1429 -0.1728 -0.1084
11677TIP3    H156446   2.668   1.140   5.932 -0.1120  0.3192 -2.7683
11677TIP3    H256447   2.594   1.019   5.880 -0.5940 -2.0815  3.0695
11678TIP3   OH256448   4.635   5.265  13.877  0.3011 -0.1531  0.1701
11678TIP3    H156449   4.662   5.187  13.829  3.0235  0.5750  0.4220
11678TIP3    H256450   4.628   5.333  13.810  0.8028  0.0580  0.3251
11679TIP3   OH256451   5.343   6.279   2.228  0.4143 -0.1055  0.4762
11679TIP3    H156452   5.269   6.219   2.235  0.9791 -0.6503  2.0015
11679TIP3    H256453   5.313   6.359   2.270  1.3008 -0.9342  2.7260
11680TIP3   OH256454   0.600   5.730   3.093  0.8107 -0.0137 -0.4877
11680TIP3    H156455   0.599   5.738   2.998  0.6096  1.1517 -0.3970
11680TIP3    H256456   0.580   5.818   3.125  2.1615 -0.0851  0.6418
11681TIP3   OH256457   4.703   4.195  15.783 -0.2016 -0.3136  0.0084
11681TIP3    H156458   4.799   4.189  15.777 -0.1180  0.3141  0.6197
11681TIP3    H256459   4.684   4.288  15.768 -0.7863 -0.5744 -0.9306
11682TIP3   OH256460   6.251   2.478  15.858 -0.5100  0.2634 -0.0267
11682TIP3    H156461   6.157   2.465  15.868 -0.5713 -0.3639 -1.2568
11682TIP3    H256462   6.260   2.562  15.814 -0.4375  0.9076  1.2113
11683TIP3   OH256463   2.627   4.142   5.312 -0.2425 -0.7403  0.0027
11683TIP3    H156464   2.576   4.217   5.343  0.5158 -0.5396  0.7807
11683TIP3    H256465   2.575   4.066   5.337 -0.6000 -0.5010 -0.0134
11684TIP3   OH256466   2.814   3.892   4.340 -0.1339 -0.9088 -0.0071
11684TIP3    H156467   2.729   3.868   4.303 -0.6069 -0.2956  0.6744
11684TIP3    H256468   2.795   3.916   4.430  0.8167 -1.0893  0.2457
11685TIP3   OH256469   2.613   3.457   0.726 -0.1519 -0.2766 -0.3860
11685TIP3    H156470   2.663   3.528   0.686 -1.1465  0.7451  0.1953
11685TIP3    H256471   2.649   3.378   0.685  1.3227  0.5027 -0.6411
11686TIP3   OH256472   2.551   5.577  14.740 -0.0174  0.0077 -0.2549
11686TIP3    H156473   2.603   5.609  14.666 -0.2683 -0.5778 -0.6894
11686TIP3    H256474   2.462   5.571  14.706 -0.8223  3.1123  1.1123
11687TIP3   OH256475   5.870   2.721  13.195 -0.2263  0.0512 -0.1389
11687TIP3    H156476   5.780   2.699  13.174 -0.4473  1.2363 -0.4939
11687TIP3    H256477   5.863   2.801  13.248  0.5043 -0.9868  1.5606
11688TIP3   OH256478   3.336   3.671   3.078  0.3487  0.6354  0.2779
11688TIP3    H156479   3.417   3.654   3.128 -0.1090 -0.1715  0.7579
11688TIP3    H256480   3.364   3.672   2.987  0.6062 -1.6075  0.2961
11689TIP3   OH256481   2.119   3.371  12.892  0.2956 -0.8076  0.7436
11689TIP3    H156482   2.049   3.328  12.843 -0.0076  0.0467  0.4046
11689TIP3    H256483   2.146   3.307  12.957 -0.4036 -1.3629  0.4950
11690TIP3   OH256484   2.988   1.894  16.680  0.3100 -0.4565  0.2346
11690TIP3    H156485   2.907   1.944  16.679  0.1226 -0.7595  0.2707
11690TIP3    H256486   3.044   1.939  16.743  0.5256  0.3119 -0.5039
11691TIP3   OH256487   2.430   6.467  12.436 -1.0600  0.2854  0.2423
11691TIP3    H156488   2.410   6.411  12.361 -0.9430  0.1139  0.3397
11691TIP3    H256489   2.418   6.556  12.404 -0.9928  0.2125  0.0151
11692TIP3   OH256490   1.007   5.948  11.368  0.1267 -0.0710  0.6129
11692TIP3    H156491   0.997   6.030  11.319  0.8405 -0.7925 -0.7806
11692TIP3    H256492   0.942   5.889  11.328  0.4204 -0.5344  0.8222
11693TIP3   OH256493   5.682   2.535  11.404 -0.1535 -0.1051  0.1211
11693TIP3    H156494   5.730   2.618  11.407 -0.5954  0.2209 -1.7178
11693TIP3    H256495   5.742   2.475  11.360  0.4302 -0.9697  2.0245
11694TIP3   OH256496   5.565   1.775   3.394  0.3808  0.1858  0.4226
11694TIP3    H156497   5.516   1.844   3.438 -1.7137  0.4656 -2.2240
11694TIP3    H256498   5.536   1.694   3.436 -1.0315  0.4986  0.0741
11695TIP3   OH256499   1.662   1.627  17.195  0.4465  0.8428 -0.2669
11695TIP3    H156500   1.604   1.569  17.145 -1.3449 -1.4402  4.1518
11695TIP3    H256501   1.605   1.699  17.223  0.5502  0.3092  1.3321
11696TIP3   OH256502   1.952   2.014  15.079 -0.4631 -0.0260 -0.1254
11696TIP3    H156503   1.945   2.007  15.174 -0.4643 -0.8444 -0.1799
11696TIP3    H256504   1.895   2.087  15.055  0.2441  0.7719  0.5906
11697TIP3   OH256505   4.660   1.017   2.297  0.1197  0.5704 -0.4244
11697TIP3    H156506   4.619   0.947   2.246 -1.3716  1.2228 -0.1493
11697TIP3    H256507   4.731   1.049   2.241  2.1006 -2.4219  0.2423
11698TIP3   OH256508   3.955   3.809  16.688 -0.6085  0.1514 -0.4285
11698TIP3    H156509   3.963   3.798  16.783 -1.7652 -0.5878 -0.4084
11698TIP3    H256510   4.022   3.874  16.666  0.7238 -0.8165  0.6612
11699TIP3   OH256511   0.388   2.773  11.973 -0.2136  0.1422 -0.1793
11699TIP3    H156512   0.361   2.807  12.058 -0.8447 -0.6624 -0.0577
11699TIP3    H256513   0.358   2.682  11.972 -0.5486  0.2582 -1.4224
11700TIP3   OH256514   4.306   4.653  15.114  0.0566 -0.0379  0.0301
11700TIP3    H156515   4.307   4.574  15.169 -0.9140  1.2238  1.8863
11700TIP3    H256516   4.313   4.725  15.176 -1.2635  1.4229 -1.4836
11701TIP3   OH256517   5.401   5.119   0.965  0.4308  0.6049 -0.1698
11701TIP3    H156518   5.460   5.126   0.889  0.3101  1.8158 -0.1584
11701TIP3    H256519   5.402   5.026   0.987 -0.1522  0.1090 -2.1488
11702TIP3   OH256520   6.564   0.933  10.820 -0.4750 -0.2413 -0.3669
11702TIP3    H156521   6.602   0.871  10.882  0.6540  0.4216 -0.3657
11702TIP3    H256522   6.470   0.916  10.823 -0.3025 -1.0939  0.5615
11703TIP3   OH256523   1.297   3.130  15.362  0.3286 -0.2830 -0.3445
11703TIP3    H156524   1.269   3.172  15.280  0.2618  0.0030 -0.1751
11703TIP3    H256525   1.383   3.094  15.342  0.9334  1.0074 -0.1289
11704TIP3   OH256526   2.035   5.723  10.953  0.1980  0.4458  0.8969
11704TIP3    H156527   2.098   5.775  10.903  0.3047  0.9301  1.5232
11704TIP3    H256528   2.019   5.646  10.899  0.3512  0.9365  0.1401
11705TIP3   OH256529   4.432   6.689   4.098  0.4019 -0.1029 -0.5376
11705TIP3    H156530   4.418   6.630   4.173  0.6220  2.8852  1.9343
11705TIP3    H256531   4.348   6.688   4.052 -0.0644 -1.2022  0.2904
11706TIP3   OH256532   5.501   2.694   3.003 -0.1023  0.0956 -0.6051
11706TIP3    H156533   5.526   2.724   3.090  1.1721  1.2042 -1.3217
11706TIP3    H256534   5.405   2.696   3.003 -0.1134 -0.1360  0.8339
11707TIP3   OH256535   0.449   1.474  15.657  0.0934 -0.1820  0.1609
11707TIP3    H156536   0.512   1.545  15.660  0.7209 -0.6126 -2.2887
11707TIP3    H256537   0.404   1.484  15.573 -1.2405 -1.4585  0.6956
11708TIP3   OH256538   3.544   1.087   1.528  0.2989  0.2525  0.3378
11708TIP3    H156539   3.478   1.034   1.483  0.0446 -0.6592  1.7320
11708TIP3    H256540   3.505   1.174   1.532 -0.1790  0.0686 -0.1741
11709TIP3   OH256541   1.134   6.101  16.815 -0.5507 -0.6298  0.5693
11709TIP3    H156542   1.205   6.096  16.751  0.6733 -0.4144  1.9049
11709TIP3    H256543   1.091   6.015  16.810 -0.9159 -0.3792 -1.0275
11710TIP3   OH256544   2.976   3.133  12.964  0.0350  0.3694 -0.1864
11710TIP3    H156545   2.940   3.045  12.976  0.3443  0.2912  0.2010
11710TIP3    H256546   2.901   3.191  12.969 -0.0880  0.1787  0.2492
11711TIP3   OH256547   5.760   1.490   2.604 -0.5591  0.1183 -0.0079
11711TIP3    H156548   5.686   1.549   2.590  0.3740  1.5159  0.7721
11711TIP3    H256549   5.792   1.512   2.692  0.1668 -1.1411  0.0529
11712TIP3   OH256550   6.693   2.537  12.960 -0.3666  0.4890 -0.0664
11712TIP3    H156551   6.663   2.617  12.917  0.2911  0.0812 -1.3055
11712TIP3    H256552   6.757   2.499  12.899  0.8073  0.0521  1.3982
11713TIP3   OH256553   3.640   3.882  13.449  0.3586  0.3284  0.0494
11713TIP3    H156554   3.643   3.881  13.545 -1.9505 -0.9814  0.1420
11713TIP3    H256555   3.550   3.907  13.428  0.9071  0.8167 -1.7964
11714TIP3   OH256556   0.112   2.014   3.710 -0.1860  0.6036  0.2702
11714TIP3    H156557   0.121   2.082   3.776  1.8638 -2.8017  3.7429
11714TIP3    H256558   0.028   1.972   3.729 -0.6999  1.0962 -0.8388
11715TIP3   OH256559   5.149   6.218   5.063  0.2464 -0.5576  0.2082
11715TIP3    H156560   5.085   6.206   4.993 -0.9413  0.2994  1.1249
11715TIP3    H256561   5.161   6.312   5.069 -0.5850 -0.5399  1.9432
11716TIP3   OH256562   2.533   5.872   4.955 -0.4681  0.9322 -0.0467
11716TIP3    H156563   2.595   5.877   5.027 -0.2630  1.3686 -0.2576
11716TIP3    H256564   2.529   5.960   4.919 -1.6851  1.0591  0.3606
11717TIP3   OH256565   3.275   0.477   2.037  0.3366 -0.2229 -0.8642
11717TIP3    H156566   3.319   0.549   1.991  0.5399 -0.7143 -1.4507
11717TIP3    H256567   3.191   0.468   1.992  0.6239 -0.8451 -1.2976
11718TIP3   OH256568   2.002   2.264   2.392  0.1927  0.0962 -0.4446
11718TIP3    H156569   2.032   2.218   2.314 -0.3206  0.5801 -0.9295
11718TIP3    H256570   2.038   2.352   2.384 -0.5129  0.3818 -0.5357
11719TIP3   OH256571   4.556   6.213  11.450  0.2970  1.0323 -0.2413
11719TIP3    H156572   4.583   6.271  11.379  0.1191  1.9397  0.4360
11719TIP3    H256573   4.627   6.219  11.514 -0.2715  1.3968  0.3559
11720TIP3   OH256574   2.075   2.716   1.616  0.0193  0.2927 -0.2854
11720TIP3    H156575   2.047   2.766   1.692 -1.1238 -0.8930  0.0964
11720TIP3    H256576   2.006   2.652   1.602  0.5914 -0.0252 -1.8488
11721TIP3   OH256577   4.693   0.705   4.048 -0.1425  0.0830 -0.0026
11721TIP3    H156578   4.682   0.798   4.069 -0.4245 -0.0988  0.6591
11721TIP3    H256579   4.753   0.704   3.973 -0.5183  0.8231 -0.3138
11722TIP3   OH256580   2.002   3.899  14.726  0.0924  0.4701 -0.0948
11722TIP3    H156581   1.945   3.968  14.692 -0.1002  0.0124 -0.7176
11722TIP3    H256582   2.077   3.898  14.667  0.0720  0.1153 -0.1189
11723TIP3   OH256583   6.101   3.926   3.781  0.3093 -0.1744 -0.0632
11723TIP3    H156584   6.105   3.938   3.686  1.1759  1.8079  0.1955
11723TIP3    H256585   6.180   3.878   3.802  0.4686 -0.0022 -0.2646
11724TIP3   OH256586   3.309   4.444   3.387  0.0231 -0.1464  0.0559
11724TIP3    H156587   3.222   4.472   3.417 -0.0199  1.1492 -1.2053
11724TIP3    H256588   3.294   4.415   3.297  0.4135 -2.5242  0.7340
11725TIP3   OH256589   2.001   3.032  16.012  0.1626 -0.3006 -0.6020
11725TIP3    H156590   2.037   3.120  16.027 -0.8939 -0.2305  1.8258
11725TIP3    H256591   2.076   2.973  16.024  0.2752  0.0884  0.6961
11726TIP3   OH256592   2.326   0.658   0.430 -0.2975 -0.0326 -0.3483
11726TIP3    H156593   2.380   0.613   0.496  0.0272  1.2098  0.2542
11726TIP3    H256594   2.350   0.750   0.439 -1.7011  0.3900 -0.8645
11727TIP3   OH256595   3.636   3.219  10.986  0.7141 -0.6214  0.0420
11727TIP3    H156596   3.691   3.268  10.925 -0.5609 -0.0919 -0.7089
11727TIP3    H256597   3.681   3.225  11.070  0.8020  1.4842 -0.1328
11728TIP3   OH256598   4.174   1.550  11.817  0.0679 -0.2911  0.1153
11728TIP3    H156599   4.208   1.614  11.755 -1.3239 -0.9138 -1.3090
11728TIP3    H256600   4.241   1.546  11.886  2.3514 -0.7048 -2.0601
11729TIP3   OH256601   1.871   5.286   0.780  0.1617  0.4528 -0.2982
11729TIP3    H156602   1.915   5.205   0.805 -1.0943  0.0952  0.7655
11729TIP3    H256603   1.813   5.261   0.708 -2.4445 -0.2596  1.9441
11730TIP3   OH256604   4.498   5.294   1.837  0.5097 -0.3287 -0.3492
11730TIP3    H156605   4.439   5.279   1.911  0.1050 -0.1833 -0.6425
11730TIP3    H256606   4.553   5.367   1.865  0.0996 -0.0193 -0.3446
11731TIP3   OH256607   4.563   1.357   1.617  0.4242 -0.3723  0.2969
11731TIP3    H156608   4.470   1.340   1.602  0.6352 -0.5075 -0.8815
11731TIP3    H256609   4.565   1.399   1.703 -1.1272  3.0700 -1.2282
11732TIP3   OH256610   2.269   4.253  17.143 -0.0027 -0.2103  0.5860
11732TIP3    H156611   2.330   4.181  17.159 -1.8580 -2.3338 -1.5512
11732TIP3    H256612   2.286   4.278  17.052 -0.7032  0.7556  0.7167
11733TIP3   OH256613   5.351   5.536  10.538  0.2938 -0.3564  0.3177
11733TIP3    H156614   5.344   5.459  10.483 -0.1234 -0.8973  1.1199
11733TIP3    H256615   5.441   5.534  10.571  0.5826  0.0387 -0.4373
11734TIP3   OH256616   1.905   1.877   1.577 -0.3282 -0.0929 -0.1168
11734TIP3    H156617   1.881   1.784   1.581 -0.5700 -0.0769 -1.0822
11734TIP3    H256618   1.992   1.878   1.538 -1.2507  0.1987 -2.2853
11735TIP3   OH256619   1.841   3.115  13.830  0.4527  0.0614 -0.4208
11735TIP3    H156620   1.923   3.144  13.790  1.4914  0.9650  2.2644
11735TIP3    H256621   1.788   3.195  13.839  0.6521  0.0632  0.9092
11736TIP3   OH256622   4.505   3.466   3.737 -0.0181 -0.1182  0.1423
11736TIP3    H156623   4.498   3.389   3.680 -0.2330 -0.4353  0.5938
11736TIP3    H256624   4.420   3.470   3.781 -0.4301  1.0511 -0.7322
11737TIP3   OH256625   0.069   3.858  15.220 -0.7313  0.0234 -0.1716
11737TIP3    H156626   0.083   3.763  15.226  0.8595  0.1787 -1.1586
11737TIP3    H256627   0.115   3.884  15.140 -1.3048  1.6104 -0.0033
11738TIP3   OH256628   0.743   2.101  11.248  0.1852 -0.2966  0.3485
11738TIP3    H156629   0.649   2.098  11.270  0.2028  0.5952  0.6085
11738TIP3    H256630   0.783   2.039  11.308 -0.2866 -0.9406 -0.0005
11739TIP3   OH256631   2.468   1.530  10.912 -0.6908  0.4318  0.1891
11739TIP3    H156632   2.449   1.451  10.861 -0.8176  0.5155  0.1057
11739TIP3    H256633   2.430   1.601  10.860 -0.9256  0.5047  0.4648
11740TIP3   OH256634   4.724   5.562   1.367  0.5273  0.9833  0.0607
11740TIP3    H156635   4.765   5.635   1.322  0.0202  2.1759  1.4793
11740TIP3    H256636   4.795   5.521   1.417  1.2471 -0.8088 -2.3636
11741TIP3   OH256637   0.542   4.506  12.596 -0.2126 -0.3613  0.1080
11741TIP3    H156638   0.551   4.601  12.593  0.4405 -0.4293 -0.2480
11741TIP3    H256639   0.541   4.484  12.689  1.1544 -0.1375  0.1899
11742TIP3   OH256640   3.481   3.535  13.804  0.1058 -0.3630  0.2004
11742TIP3    H156641   3.434   3.599  13.751 -0.6532 -0.4994  0.7004
11742TIP3    H256642   3.573   3.560  13.797  0.0963 -0.8593 -1.8167
11743TIP3   OH256643   0.791   4.511   5.066  0.2997  0.0566 -0.0334
11743TIP3    H156644   0.779   4.603   5.090  3.7936  0.6251 -0.1608
11743TIP3    H256645   0.784   4.510   4.971 -0.1083  0.1216 -0.0048
11744TIP3   OH256646   6.367   6.448   0.573  0.0605  0.2876 -0.4519
11744TIP3    H156647   6.455   6.452   0.612 -0.3238 -0.8569  0.5640
11744TIP3    H256648   6.349   6.538   0.546  0.7165  0.9471  1.2256
11745TIP3   OH256649   2.454   1.549   1.311 -0.2670 -0.5947  0.3165
11745TIP3    H156650   2.505   1.555   1.230 -1.0104 -2.4496 -0.3240
11745TIP3    H256651   2.417   1.461   1.309 -1.1407 -0.2892  2.1838
11746TIP3   OH256652   3.599   6.346  13.105 -0.1938 -0.7211  0.1946
11746TIP3    H156653   3.633   6.360  13.017  1.7166  0.3524  1.0672
11746TIP3    H256654   3.626   6.258  13.128 -0.0987 -0.7476 -0.0189
11747TIP3   OH256655   2.823   6.670   0.158 -0.0363  0.3125  0.0073
11747TIP3    H156656   2.791   6.629   0.077  1.1315 -3.0492  1.1344
11747TIP3    H256657   2.807   6.604   0.226  2.1698  1.6471  1.9081
11748TIP3   OH256658   3.506   3.379  17.081 -0.1409  0.6124 -0.1155
11748TIP3    H156659   3.414   3.354  17.079  0.2026 -0.7225  0.2597
11748TIP3    H256660   3.551   3.310  17.033  0.4814  2.1316 -1.7477
11749TIP3   OH256661   5.839   3.549  16.558 -0.3560 -0.0098  0.4037
11749TIP3    H156662   5.887   3.506  16.487 -0.5176 -0.6582  0.6821
11749TIP3    H256663   5.815   3.635  16.522 -0.6186 -0.4146 -0.4054
11750TIP3   OH256664   4.353   1.633  16.552 -0.5175  0.1375 -0.4276
11750TIP3    H156665   4.318   1.545  16.544 -0.6419 -0.1387  2.7361
11750TIP3    H256666   4.281   1.691  16.527 -1.3665 -0.5860  0.3252
11751TIP3   OH256667   0.591   2.081  16.833 -0.3293  0.6491  0.1016
11751TIP3    H156668   0.612   2.166  16.873 -0.7566  0.3072  1.0675
11751TIP3    H256669   0.530   2.104  16.761 -0.3462  1.1703  0.2779
11752TIP3   OH256670   2.701   2.587   2.350 -0.0458  0.5315  0.5003
11752TIP3    H156671   2.780   2.552   2.308  0.1647 -0.9594  2.0700
11752TIP3    H256672   2.657   2.510   2.386 -1.7854  1.4530  0.3941
11753TIP3   OH256673   4.800   2.188   6.144  0.1721 -0.3321  0.2919
11753TIP3    H156674   4.868   2.137   6.189  2.2165  0.9403 -1.2632
11753TIP3    H256675   4.718   2.151   6.176  1.5792 -3.0881  0.9045
11754TIP3   OH256676   5.616   5.029  15.259  0.0087 -0.2830  0.0386
11754TIP3    H156677   5.575   4.944  15.273 -2.8089  1.0192  0.1234
11754TIP3    H256678   5.614   5.041  15.164 -0.1561 -0.0612  0.0686
11755TIP3   OH256679   4.111   5.698  13.121  0.1101 -0.7532  0.3585
11755TIP3    H156680   4.097   5.604  13.109 -1.0346 -0.2626 -2.5813
11755TIP3    H256681   4.123   5.732  13.033  0.8948  1.8412  1.4108
11756TIP3   OH256682   2.855   0.008   2.313 -0.0505  0.1182  0.3982
11756TIP3    H156683   2.930  -0.006   2.256 -1.1845  1.7353 -1.5214
11756TIP3    H256684   2.891   0.055   2.389  1.2902 -1.2835  0.6741
11757TIP3   OH256685   6.313   1.965   5.275 -0.0777  0.0110  0.1001
11757TIP3    H156686   6.358   2.024   5.215 -0.5660  1.0222  0.6943
11757TIP3    H256687   6.352   1.879   5.260 -1.8566 -0.2468 -3.3710
11758TIP3   OH256688   5.161   3.543   2.221  0.2493  0.1374 -0.0828
11758TIP3    H156689   5.241   3.501   2.253  0.2091 -0.4753 -0.7571
11758TIP3    H256690   5.128   3.483   2.153 -1.4528 -0.2375  1.0293
11759TIP3   OH256691   3.871   6.524  14.540 -0.0502 -0.6410 -0.2984
11759TIP3    H156692   3.941   6.494  14.598 -0.3809 -1.5216 -0.3448
11759TIP3    H256693   3.877   6.466  14.463 -0.4074 -0.2880 -0.5947
11760TIP3   OH256694   1.016   6.076  16.537  0.3135  0.1745 -0.2697
11760TIP3    H156695   1.112   6.078  16.531  0.1725  1.8861 -2.6557
11760TIP3    H256696   0.989   6.010  16.473 -0.2054  1.7777 -1.7404
11761TIP3   OH256697   4.423   2.962   5.946  0.3504 -0.2786 -0.2572
11761TIP3    H156698   4.506   3.007   5.961 -0.8833  1.6415  0.8836
11761TIP3    H256699   4.364   2.995   6.014 -1.6770 -0.8091 -1.7127
11762TIP3   OH256700   1.408   0.154   0.805 -0.2179 -0.0581 -0.6286
11762TIP3    H156701   1.503   0.147   0.800 -0.2328  0.1168 -1.2847
11762TIP3    H256702   1.380   0.069   0.839  0.1090 -0.4754 -1.3826
11763TIP3   OH256703   1.355   3.304   6.085 -0.6250 -0.1885 -0.9519
11763TIP3    H156704   1.314   3.239   6.142 -1.4105  0.3374 -0.9087
11763TIP3    H256705   1.431   3.259   6.047 -1.3881 -1.2425 -1.2331
11764TIP3   OH256706   3.551   4.412   4.065 -0.3297  0.6714 -0.2611
11764TIP3    H156707   3.609   4.336   4.057 -0.2268  0.6624  0.5247
11764TIP3    H256708   3.465   4.375   4.084 -0.3847  0.7268 -0.4052
11765TIP3   OH256709   2.671   4.487  14.213  0.2511  0.2254  0.3798
11765TIP3    H156710   2.765   4.473  14.227  0.6996  1.3344 -1.2890
11765TIP3    H256711   2.643   4.539  14.288  1.4559  1.6636 -0.1233
11766TIP3   OH256712   1.189   0.275  12.428  0.4360 -0.0998 -0.1676
11766TIP3    H156713   1.108   0.312  12.462  0.2102 -0.7660  0.0174
11766TIP3    H256714   1.192   0.186  12.462  0.4435 -0.6184 -1.4944
11767TIP3   OH256715   3.953   5.124   2.341  0.2682  0.5292 -0.3887
11767TIP3    H156716   3.900   5.166   2.273  0.5355  1.7105  0.1237
11767TIP3    H256717   4.041   5.117   2.302 -0.0725 -0.7452 -0.9558
11768TIP3   OH256718   4.064   1.582  13.268 -0.1727 -0.8147 -0.0161
11768TIP3    H156719   4.080   1.669  13.303  0.9650 -0.9388 -0.2200
11768TIP3    H256720   4.119   1.577  13.190  0.3210 -1.9784  0.4007
11769TIP3   OH256721   6.440   4.256  11.567 -0.0203 -0.0837  0.6648
11769TIP3    H156722   6.361   4.206  11.550 -0.2850  0.5257  0.0527
11769TIP3    H256723   6.409   4.340  11.601  0.2613  0.8337 -1.2647
11770TIP3   OH256724   4.785   0.012   6.339  0.0348  0.4994 -0.1328
11770TIP3    H156725   4.870  -0.014   6.376 -0.0517 -1.0592 -1.0115
11770TIP3    H256726   4.728  -0.064   6.354 -0.7736  0.9385 -0.9607
11771TIP3   OH256727   4.258   1.886   3.824  0.0040  0.9311 -0.0674
11771TIP3    H156728   4.186   1.841   3.870 -0.3608  1.0569 -0.5094
11771TIP3    H256729   4.334   1.874   3.881  0.1452 -1.1269 -0.6527
11772TIP3   OH256730   4.041   2.652   1.082 -0.1146  0.4893 -0.4532
11772TIP3    H156731   4.117   2.613   1.126 -0.6136  0.2066  0.1837
11772TIP3    H256732   4.054   2.633   0.989  0.3137 -0.0480 -0.2854
11773TIP3   OH256733   3.551   1.081   0.868 -0.0733 -0.3495 -0.3213
11773TIP3    H156734   3.643   1.054   0.860  1.0663  2.8923  0.8369
11773TIP3    H256735   3.527   1.054   0.957  0.5033  0.8179  0.2002
11774TIP3   OH256736   0.995   6.325  11.524  0.2261  0.5674 -0.1587
11774TIP3    H156737   1.049   6.288  11.594 -0.8886 -0.0307  0.4124
11774TIP3    H256738   1.056   6.372  11.467  1.5362 -1.3278 -0.3375
11775TIP3   OH256739   3.757   4.817   4.030  0.1442 -0.0108 -0.0513
11775TIP3    H156740   3.765   4.722   4.036 -0.6025 -0.0317  0.8277
11775TIP3    H256741   3.695   4.832   3.959 -2.9604 -0.3601  2.4453
11776TIP3   OH256742   2.442   5.714   3.934 -0.1630 -0.7013 -0.4464
11776TIP3    H156743   2.445   5.618   3.935  0.3772 -0.6840  0.3222
11776TIP3    H256744   2.452   5.739   4.026  1.7987  0.1473 -0.8765
11777TIP3   OH256745   3.437   0.863  15.040 -0.0067  0.3075  0.0139
11777TIP3    H156746   3.391   0.931  15.090  0.9742  0.1598  1.1620
11777TIP3    H256747   3.528   0.893  15.037  0.1357 -0.1973 -0.8041
11778TIP3   OH256748   4.562   1.078  14.251  0.0956  0.3492 -0.3314
11778TIP3    H156749   4.640   1.058  14.304  0.3693 -2.0730 -1.5474
11778TIP3    H256750   4.489   1.047  14.303  0.2019 -0.0826 -0.4313
11779TIP3   OH256751   0.572   6.068   6.100  0.1582  0.3172 -0.0674
11779TIP3    H156752   0.546   6.097   6.188 -0.6629  1.8740 -0.8000
11779TIP3    H256753   0.514   6.116   6.041  0.9995 -0.3851 -1.4910
11780TIP3   OH256754   5.838   3.110   2.182  0.4652 -0.2511  0.5032
11780TIP3    H156755   5.767   3.068   2.134  0.5775  1.0735 -0.8583
11780TIP3    H256756   5.843   3.062   2.265 -2.1332 -0.2520  0.6988
11781TIP3   OH256757   2.452   5.707  13.088 -0.4350  0.1416 -0.2031
11781TIP3    H156758   2.485   5.618  13.102 -1.2342  0.3165  3.3237
11781TIP3    H256759   2.409   5.704  13.003  0.1259 -2.6560 -0.4307
11782TIP3   OH256760   5.922   5.852   4.595 -0.0754 -0.0990  0.2124
11782TIP3    H156761   5.891   5.938   4.625  0.4401  0.5398 -1.0628
11782TIP3    H256762   6.001   5.836   4.647  0.2191  0.5213 -0.0291
11783TIP3   OH256763   4.281   1.273   5.477 -0.1617 -0.1755 -0.4322
11783TIP3    H156764   4.229   1.193   5.479 -0.0215 -0.2687 -0.5231
11783TIP3    H256765   4.313   1.283   5.567 -0.4341 -0.0541 -0.3485
11784TIP3   OH256766   0.154   6.595   1.987 -0.0461 -0.2046 -0.4108
11784TIP3    H156767   0.184   6.683   1.964 -0.6684 -0.0216 -0.5308
11784TIP3    H256768   0.164   6.590   2.082 -1.5110  0.5743 -0.1994
11785TIP3   OH256769   1.476   4.220   0.115 -0.9892 -0.1484  0.1063
11785TIP3    H156770   1.406   4.220   0.180 -1.2964  1.1218 -0.2122
11785TIP3    H256771   1.547   4.271   0.155 -0.6404 -0.5673  0.0221
11786TIP3   OH256772   3.441   1.986  12.106  0.1220 -0.0467  0.1764
11786TIP3    H156773   3.497   2.030  12.170 -0.4621  0.4221  0.3596
11786TIP3    H256774   3.353   2.018  12.124 -0.6378 -2.8978  1.6890
11787TIP3   OH256775   5.545   1.566   2.264  0.4777 -0.0898 -0.6238
11787TIP3    H156776   5.566   1.659   2.274  0.0662  0.0128 -0.6807
11787TIP3    H256777   5.463   1.566   2.214  0.0317 -0.4579  0.0986
11788TIP3   OH256778   0.834   5.578   5.024 -0.2935 -0.0114  0.2067
11788TIP3    H156779   0.928   5.586   5.009 -0.6270 -1.3974 -2.9570
11788TIP3    H256780   0.794   5.614   4.945 -2.3299 -3.1005 -0.2406
11789TIP3   OH256781   0.752   6.086   1.145 -0.0239  0.2382  0.3799
11789TIP3    H156782   0.775   5.994   1.163 -1.3483  0.1470  1.7136
11789TIP3    H256783   0.775   6.099   1.053  1.6792 -0.9677  0.6080
11790TIP3   OH256784   6.364   0.370  12.108 -0.1237  0.2078  0.3648
11790TIP3    H156785   6.414   0.416  12.041  0.9009 -0.7717  0.4555
11790TIP3    H256786   6.354   0.281  12.075  0.5233 -0.3273  1.5791
11791TIP3   OH256787   2.760   4.242  13.659 -0.7550 -0.1513  0.2080
11791TIP3    H156788   2.828   4.310  13.654 -0.5524 -0.3130  0.7634
11791TIP3    H256789   2.711   4.263  13.738 -2.1855  0.7393 -0.8826
11792TIP3   OH256790   1.756   2.496  15.243  0.0730  0.3073 -0.4105
11792TIP3    H156791   1.719   2.580  15.269  1.3806  1.1285 -1.1750
11792TIP3    H256792   1.701   2.467  15.170 -2.0428 -0.8139  1.5230
11793TIP3   OH256793   4.292   1.327   4.320 -0.2725  0.5551 -0.0455
11793TIP3    H156794   4.372   1.369   4.290 -0.0628  1.0821  1.2214
11793TIP3    H256795   4.270   1.264   4.251  0.4509  1.4005 -1.0567
11794TIP3   OH256796   4.022   5.577  11.807 -0.0892  0.1188 -0.3336
11794TIP3    H156797   3.965   5.501  11.792  2.3063 -1.9420  0.6131
11794TIP3    H256798   4.062   5.594  11.722 -1.6312  1.2154 -0.8681
11795TIP3   OH256799   3.546   0.037  16.146  0.2953  0.2764  0.1337
11795TIP3    H156800   3.495  -0.010  16.080 -0.0397 -0.9570  1.2349
11795TIP3    H256801   3.618  -0.022  16.168 -0.7963 -0.2892  2.3972
11796TIP3   OH256802   4.685   3.865   4.520 -0.3333  0.2074  0.1454
11796TIP3    H156803   4.743   3.881   4.594  0.2424  1.2155 -0.5074
11796TIP3    H256804   4.699   3.772   4.498  0.0284  0.0999  0.8355
11797TIP3   OH256805   1.694   3.845  11.551 -0.1753 -0.0683  0.0903
11797TIP3    H156806   1.715   3.760  11.591  0.5416 -0.5740 -1.2923
11797TIP3    H256807   1.654   3.822  11.466 -1.1508  0.9679  0.2544
11798TIP3   OH256808   2.066   0.085  16.862  0.4700  0.5468  0.0964
11798TIP3    H156809   2.158   0.104  16.879  0.0996  2.0581  0.4884
11798TIP3    H256810   2.029   0.170  16.836 -1.0383  0.1608  0.9699
11799TIP3   OH256811   3.853   1.446  15.191  0.2250 -0.0453  0.2200
11799TIP3    H156812   3.813   1.526  15.158 -1.2183 -1.2497 -1.1035
11799TIP3    H256813   3.894   1.471  15.273 -1.9271  1.6359  0.8452
11800TIP3   OH256814   2.266   2.357  13.060  0.3574 -0.0266  0.7618
11800TIP3    H156815   2.283   2.275  13.013  0.7194  0.3324  0.2537
11800TIP3    H256816   2.326   2.354  13.135  1.1892  0.2870  0.1192
11801TIP3   OH256817   2.917   4.748   6.084  0.0757  0.2175 -0.0688
11801TIP3    H156818   3.010   4.766   6.072  0.5419 -1.9589  0.1886
11801TIP3    H256819   2.910   4.709   6.170 -0.8373 -1.2698 -0.7966
11802TIP3   OH256820   2.465   4.889   5.019  0.5098 -0.3464  0.5583
11802TIP3    H156821   2.554   4.913   5.044  0.8061 -1.0004  0.1378
11802TIP3    H256822   2.446   4.943   4.942  1.6136 -2.2661 -1.1108
11803TIP3   OH256823   5.776   5.141   3.382 -0.0274  0.3669  0.1261
11803TIP3    H156824   5.762   5.230   3.348  0.4541 -0.1361 -1.4328
11803TIP3    H256825   5.872   5.132   3.386 -0.0764  0.3885  1.5751
11804TIP3   OH256826   1.510   2.553   2.747 -0.3254  0.5197 -0.1159
11804TIP3    H156827   1.575   2.513   2.690 -0.6044 -1.3553  0.8343
11804TIP3    H256828   1.542   2.538   2.836 -2.0723 -0.4902  0.3694
11805TIP3   OH256829   6.755   1.531   5.889  0.1283 -0.5588 -0.0473
11805TIP3    H156830   6.730   1.547   5.980  1.9432  1.9161  0.0639
11805TIP3    H256831   6.841   1.490   5.895  0.0408 -0.8415 -0.6718
11806TIP3   OH256832   5.714   4.335  15.680  0.1648 -0.2409  0.6467
11806TIP3    H156833   5.634   4.282  15.679  0.4116 -0.6059  0.1739
11806TIP3    H256834   5.754   4.320  15.594 -0.0734  1.1848  0.2758
11807TIP3   OH256835   1.672   0.882   2.061  0.3067 -0.3219 -0.6845
11807TIP3    H156836   1.608   0.844   2.001 -0.3545 -0.3251  0.0251
11807TIP3    H256837   1.715   0.807   2.101  1.5914 -0.3321 -2.0311
11808TIP3   OH256838   2.216   1.910  12.980 -0.5193  0.0365 -0.1966
11808TIP3    H156839   2.272   1.845  13.021 -0.7746  0.2464  0.5048
11808TIP3    H256840   2.276   1.981  12.954 -0.2229 -0.5469 -1.1119
11809TIP3   OH256841   3.432   1.830  13.495  0.4536 -0.1900 -0.4077
11809TIP3    H156842   3.424   1.908  13.550  1.5221 -0.5826  0.3228
11809TIP3    H256843   3.404   1.758  13.551 -2.4688 -0.1573 -1.6969
11810TIP3   OH256844   2.032   2.157  16.675 -0.1836  0.4863  0.1418
11810TIP3    H156845   1.967   2.141  16.607 -0.3404 -0.6786  0.5488
11810TIP3    H256846   1.981   2.184  16.751 -0.1130  0.4440  0.2042
11811TIP3   OH256847   0.751   4.978  12.115  0.6134  0.6328  0.7594
11811TIP3    H156848   0.823   4.979  12.051  1.2588  1.4796  1.4820
11811TIP3    H256849   0.728   5.070  12.127 -0.7277  0.3525  0.3960
11812TIP3   OH256850   3.211   6.328   2.013 -0.5264  0.3204  0.0346
11812TIP3    H156851   3.209   6.374   2.097 -1.6410  0.1749  0.0831
11812TIP3    H256852   3.147   6.374   1.959  0.3208  0.5257 -0.8016
11813TIP3   OH256853   0.677   2.697  17.193  0.8154  0.0216  0.3884
11813TIP3    H156854   0.605   2.669  17.251 -0.3605 -1.9025 -1.9144
11813TIP3    H256855   0.643   2.773  17.147  0.5123 -0.4267 -0.1401
11814TIP3   OH256856   0.986   4.916  17.180 -0.4733  0.2536  0.0099
11814TIP3    H156857   1.040   4.984  17.139 -0.9055  0.8718  0.4721
11814TIP3    H256858   0.927   4.887  17.110  0.8754 -0.8813 -0.6893
11815TIP3   OH256859   1.554   4.322  14.646 -0.6620  0.3458  0.0576
11815TIP3    H156860   1.503   4.402  14.630 -0.3704  0.0944 -2.2931
11815TIP3    H256861   1.596   4.337  14.731 -1.7253  2.0959  0.2970
11816TIP3   OH256862   3.066   4.487   1.220 -0.1036 -0.2880 -0.2082
11816TIP3    H156863   3.137   4.524   1.274 -1.0124  1.0533  0.1041
11816TIP3    H256864   3.075   4.533   1.136  0.4802 -1.4079 -0.7709
11817TIP3   OH256865   5.357   4.971   3.624  0.6233 -0.2845 -0.0760
11817TIP3    H156866   5.345   5.049   3.678  1.8822 -1.0260  1.3302
11817TIP3    H256867   5.336   4.898   3.682  1.0735 -1.0695 -0.8825
11818TIP3   OH256868   5.519   6.242  12.505  0.3394  0.5222 -0.1505
11818TIP3    H156869   5.458   6.313  12.485 -0.5538 -0.3313 -0.5218
11818TIP3    H256870   5.464   6.164  12.509  1.6184 -0.5165 -2.0312
11819TIP3   OH256871   1.595   1.779  16.889 -0.1308 -0.2152 -0.4611
11819TIP3    H156872   1.507   1.814  16.898 -0.5825 -1.4664  0.0936
11819TIP3    H256873   1.646   1.826  16.955 -0.4132  0.3513 -0.6349
11820TIP3   OH256874   0.260   2.676   1.055  0.0308 -0.5046 -0.3120
11820TIP3    H156875   0.286   2.584   1.050  1.7955 -0.1026  1.1160
11820TIP3    H256876   0.280   2.710   0.968 -0.2804 -1.3794 -0.7380
11821TIP3   OH256877   1.005   0.837  11.718  0.0564  0.2035  0.2370
11821TIP3    H156878   0.995   0.932  11.708  1.5292  0.6430  2.6099
11821TIP3    H256879   1.089   0.818  11.678 -0.2671 -0.1233 -0.2938
11822TIP3   OH256880   6.190   5.926   5.424 -0.1907 -0.1251  0.7025
11822TIP3    H156881   6.231   5.839   5.416 -0.7321 -0.3449  0.2959
11822TIP3    H256882   6.099   5.912   5.397 -0.2250  0.6172  0.4322
11823TIP3   OH256883   0.733   6.324  14.116 -0.2051 -0.0768 -0.0357
11823TIP3    H156884   0.671   6.251  14.109  1.2172 -1.1397 -1.8394
11823TIP3    H256885   0.803   6.290  14.172  1.1958 -0.6521 -2.1030
11824TIP3   OH256886   1.570   0.199  15.922 -0.0198 -0.9219  0.1294
11824TIP3    H156887   1.501   0.138  15.946 -1.3728  0.3217 -0.4875
11824TIP3    H256888   1.554   0.276  15.977  2.0078 -1.3296  1.3148
11825TIP3   OH256889   4.156   4.113  12.109 -0.3654 -0.3097 -0.0501
11825TIP3    H156890   4.119   4.152  12.188 -0.5586 -1.0567  0.2342
11825TIP3    H256891   4.130   4.021  12.113  1.9056 -0.9571  0.3727
11826TIP3   OH256892   0.572   3.731  15.241 -0.1398 -0.3512 -0.6609
11826TIP3    H156893   0.649   3.757  15.293  0.6833  0.4141 -2.2194
11826TIP3    H256894   0.577   3.636  15.237  0.5445 -0.3301 -0.4499
11827TIP3   OH256895   3.078   4.838  11.548  0.4505  0.0539 -0.4533
11827TIP3    H156896   3.071   4.800  11.636 -0.0420  0.1975 -0.4281
11827TIP3    H256897   3.162   4.882  11.548 -0.3752  1.6912  0.6101
11828TIP3   OH256898   0.216   3.833   3.096  0.2212 -0.1197 -0.4025
11828TIP3    H156899   0.124   3.818   3.077  0.3862  0.0062 -1.3782
11828TIP3    H256900   0.229   3.802   3.185 -0.2457 -2.3214 -1.0832
11829TIP3   OH256901   0.066   1.440  15.173 -0.8963  0.3839  0.1025
11829TIP3    H156902   0.037   1.438  15.264 -1.9601  0.4574 -0.2268
11829TIP3    H256903   0.030   1.522  15.139  1.3960  1.5000  0.2171
11830TIP3   OH256904   6.219   3.428  16.091  0.0584  0.1871 -0.2700
11830TIP3    H156905   6.175   3.510  16.112 -1.0159 -0.2121 -0.9051
11830TIP3    H256906   6.180   3.363  16.150  1.7926  0.3684  1.0898
11831TIP3   OH256907   0.427   4.304  16.724  0.0109  0.5248 -0.2439
11831TIP3    H156908   0.385   4.326  16.641 -0.8158  2.2717  0.6178
11831TIP3    H256909   0.355   4.299  16.787  0.8293  1.2949  0.7863
11832TIP3   OH256910   2.700   3.177  12.642 -0.5866 -0.3002 -0.2905
11832TIP3    H156911   2.776   3.229  12.667  0.8331 -2.4606  0.0277
11832TIP3    H256912   2.624   3.228  12.672  0.6742  2.2902 -1.3957
11833TIP3   OH256913   4.282   6.109   5.034  0.5944 -0.2079  0.2437
11833TIP3    H156914   4.264   6.121   5.127 -0.7342  2.1565 -0.2813
11833TIP3    H256915   4.362   6.159   5.018  0.6546 -0.3623  0.0539
11834TIP3   OH256916   6.169   2.817   4.176 -0.0371 -0.0698  0.0301
11834TIP3    H156917   6.161   2.872   4.254 -1.3502 -0.5309  0.2446
11834TIP3    H256918   6.120   2.737   4.198  0.4761 -0.6478 -0.8762
11835TIP3   OH256919   2.967   2.230   5.434 -0.1403  0.1800 -0.4571
11835TIP3    H156920   2.966   2.142   5.397  0.5976 -0.2854  0.6001
11835TIP3    H256921   2.987   2.217   5.526  2.7231  1.6211 -0.8221
11836TIP3   OH256922   1.830   4.402  13.429  0.1013 -0.0242  0.4803
11836TIP3    H156923   1.806   4.394  13.337  2.1103 -1.1813  0.0360
11836TIP3    H256924   1.771   4.342  13.475 -1.0306  0.6958 -0.0134
11837TIP3   OH256925   5.053   6.520  11.653 -0.3036 -0.0342  0.2034
11837TIP3    H156926   5.122   6.459  11.678 -0.7713 -0.9259 -0.6103
11837TIP3    H256927   5.096   6.605  11.649  1.0117 -0.7526 -1.4078
11838TIP3   OH256928   2.569   0.283  12.989  0.6748  0.0314  0.4382
11838TIP3    H156929   2.603   0.372  12.978 -0.5829  0.5346  0.5731
11838TIP3    H256930   2.552   0.276  13.083 -0.5310  0.1349  0.2313
11839TIP3   OH256931   1.892   6.429   2.152 -0.3750  0.4001  0.2812
11839TIP3    H156932   1.979   6.467   2.144 -0.3294  0.3152  0.3810
11839TIP3    H256933   1.833   6.505   2.160 -0.4623  0.5097 -1.2274
11840TIP3   OH256934   6.661   0.294   0.201 -0.3051 -0.1101 -0.1126
11840TIP3    H156935   6.571   0.303   0.168 -0.3287  0.9001  0.1959
11840TIP3    H256936   6.657   0.221   0.263 -0.9447  0.0185 -0.0021
11841TIP3   OH256937   1.785   6.615  14.660 -0.3971 -0.3286 -0.2651
11841TIP3    H156938   1.746   6.539  14.616  0.2225 -0.4766 -0.5714
11841TIP3    H256939   1.710   6.667  14.689 -0.8342 -1.3235  0.4291
11842TIP3   OH256940   2.092   0.605  12.819  0.1263  0.1623  0.3540
11842TIP3    H156941   2.003   0.614  12.854 -0.7999  0.3519 -1.9293
11842TIP3    H256942   2.108   0.687  12.773  0.6226 -0.7186 -1.0872
11843TIP3   OH256943   0.229   5.097  14.767  0.1312  0.0960  0.7242
11843TIP3    H156944   0.154   5.154  14.754  0.9462  0.7399 -1.3981
11843TIP3    H256945   0.192   5.015  14.802 -1.7369 -0.1003 -1.6027
11844TIP3   OH256946   3.366   0.061  12.989  0.2645 -0.2625  0.3819
11844TIP3    H156947   3.345   0.154  12.998 -0.0977 -0.4760  1.7609
11844TIP3    H256948   3.298   0.027  12.931 -0.7190 -0.0552  1.3961
11845TIP3   OH256949   1.571   2.880   5.209 -0.6014 -0.4398  0.6067
11845TIP3    H156950   1.660   2.895   5.178  0.0218  0.8598  2.8779
11845TIP3    H256951   1.522   2.957   5.178 -0.5579 -0.3757  0.6957
11846TIP3   OH256952   5.568   6.306  16.105 -0.1083  0.1023 -0.0579
11846TIP3    H156953   5.626   6.332  16.176  0.1269  0.3422 -0.3360
11846TIP3    H256954   5.602   6.351  16.028 -1.4871  1.3402  0.0457
11847TIP3   OH256955   5.171   2.162   6.603  0.2964  0.0148  0.2662
11847TIP3    H156956   5.265   2.171   6.618  0.4693 -0.1744 -0.7034
11847TIP3    H256957   5.162   2.161   6.508 -0.8832  2.2143  0.3101
11848TIP3   OH256958   5.424   4.066  12.295 -0.3088  0.4118  0.5326
11848TIP3    H156959   5.446   4.128  12.365  3.6874  0.6539 -0.7901
11848TIP3    H256960   5.411   4.121  12.217 -0.0613 -0.1749  0.0720
11849TIP3   OH256961   5.180   1.742   3.893 -0.6773  0.4807  0.0355
11849TIP3    H156962   5.269   1.755   3.861 -0.0111 -0.0322  1.6474
11849TIP3    H256963   5.191   1.701   3.979 -2.4987 -0.7049 -0.2818
11850TIP3   OH256964   5.210   6.224  17.092  0.4770  0.4247  0.1753
11850TIP3    H156965   5.143   6.202  17.028 -0.0293  2.4987 -0.0375
11850TIP3    H256966   5.168   6.209  17.177 -0.0531  1.0701  0.0364
11851TIP3   OH256967   2.903   6.137   1.969 -0.8762  0.1229 -0.4688
11851TIP3    H156968   2.842   6.151   2.041 -1.2443 -0.1898 -0.7184
11851TIP3    H256969   2.981   6.100   2.010 -1.0797 -0.0414 -0.2324
11852TIP3   OH256970   6.389   2.623  16.711 -0.4389 -0.4030  0.1879
11852TIP3    H156971   6.396   2.551  16.649 -0.4106 -0.7589  0.6028
11852TIP3    H256972   6.327   2.684  16.670 -1.0441 -1.0126  0.1807
11853TIP3   OH256973   1.000   1.835   4.247 -0.6259 -1.0985  0.2159
11853TIP3    H156974   1.039   1.794   4.325 -0.5358  1.6786  1.7150
11853TIP3    H256975   1.075   1.860   4.193 -0.5651 -0.6724  0.4953
11854TIP3   OH256976   4.289   6.260  10.900  0.5168  0.1392 -0.6123
11854TIP3    H156977   4.361   6.228  10.846  0.5332  0.3079 -0.6913
11854TIP3    H256978   4.321   6.341  10.938 -0.1252  0.9684 -1.7720
11855TIP3   OH256979   6.516   6.118   5.692 -0.2225 -0.4737 -0.4855
11855TIP3    H156980   6.452   6.163   5.747 -2.4930 -0.5689 -2.9252
11855TIP3    H256981   6.538   6.039   5.740 -1.8799 -0.3914  0.4529
11856TIP3   OH256982   6.742   4.783   1.670 -0.5461  0.4487  0.3238
11856TIP3    H156983   6.679   4.853   1.654 -0.4017  0.8695  1.5353
11856TIP3    H256984   6.689   4.708   1.696 -0.6530  0.2844 -0.3442
11857TIP3   OH256985   5.301   6.594  15.404 -0.3755  0.0236 -0.2361
11857TIP3    H156986   5.363   6.549  15.346 -0.1663 -0.9618  0.7275
11857TIP3    H256987   5.357   6.640  15.466 -0.5953  1.3806 -1.0190
11858TIP3   OH256988   0.869   3.334   2.680  0.1102 -0.1580  0.0405
11858TIP3    H156989   0.869   3.416   2.730 -2.5084 -0.8966  1.3312
11858TIP3    H256990   0.792   3.286   2.712  2.0851 -3.5326 -0.0407
11859TIP3   OH256991   1.097   0.424  13.697  0.0120 -0.2384 -0.3139
11859TIP3    H156992   1.060   0.347  13.739 -0.8238 -0.2188 -0.9876
11859TIP3    H256993   1.023   0.484  13.688  0.8703  1.0642  1.1325
11860TIP3   OH256994   4.870   3.580  14.739  1.0345 -0.3592 -0.2912
11860TIP3    H156995   4.915   3.497  14.748 -0.6868 -1.5268 -2.0846
11860TIP3    H256996   4.784   3.565  14.779  0.4963  0.3588 -1.1511
11861TIP3   OH256997   2.173   6.122  11.933  0.9504 -0.3337  0.2646
11861TIP3    H156998   2.122   6.070  11.995  0.8333  0.1738  0.5915
11861TIP3    H256999   2.232   6.058  11.893 -1.6651 -1.4186 -2.0017
11862TIP3   OH257000   5.415   2.746  15.152  0.3080 -0.2833  0.0971
11862TIP3    H157001   5.355   2.732  15.226 -1.7579  2.5124 -0.9493
11862TIP3    H257002   5.484   2.681  15.165  0.1585  0.2761  4.6287
11863TIP3   OH257003   4.346   0.705  11.853  0.6943 -0.1681  0.2324
11863TIP3    H157004   4.358   0.709  11.759  0.3377 -1.3167  0.1333
11863TIP3    H257005   4.305   0.788  11.876  1.2422  0.3252 -0.5447
11864TIP3   OH257006   0.289   2.595  12.885  0.0941 -0.5612 -0.5280
11864TIP3    H157007   0.213   2.653  12.874  0.0773 -0.7522 -1.4192
11864TIP3    H257008   0.267   2.540  12.960  1.0159  2.0355  1.7346
11865TIP3   OH257009   1.037   6.523   2.832 -0.1660 -0.0374 -0.3369
11865TIP3    H157010   1.099   6.580   2.877 -0.5631  0.3734 -0.3045
11865TIP3    H257011   0.993   6.581   2.769 -0.4187 -0.3554 -0.4514
11866TIP3   OH257012   6.744   5.973   3.000 -0.0850  0.0635 -0.4415
11866TIP3    H157013   6.659   5.962   3.042  0.9204  0.6570  1.8098
11866TIP3    H257014   6.744   5.908   2.929 -2.0212 -0.6002  0.1271
11867TIP3   OH257015   2.935   5.922   3.885  0.4287  0.0215 -0.5007
11867TIP3    H157016   2.851   5.884   3.908  1.6308 -1.8719  0.9161
11867TIP3    H257017   2.979   5.855   3.833  1.5812  0.4210 -0.0744
11868TIP3   OH257018   6.106   1.303  15.771 -0.1729 -0.2213 -0.1254
11868TIP3    H157019   6.064   1.251  15.703  0.1039 -1.3491  0.5468
11868TIP3    H257020   6.063   1.275  15.852 -1.1297  1.7473  0.0871
11869TIP3   OH257021   0.454   0.355   3.894  0.1559  0.2542  0.3208
11869TIP3    H157022   0.536   0.398   3.872  1.6028 -1.6234  1.9358
11869TIP3    H257023   0.475   0.262   3.897 -2.5047 -0.4813 -1.3404
11870TIP3   OH257024   5.602   6.531  12.422 -0.2291 -0.6839 -0.0779
11870TIP3    H157025   5.607   6.616  12.466 -0.6470 -1.5397  1.6564
11870TIP3    H257026   5.638   6.469  12.485 -0.0190 -1.8249 -1.2967
11871TIP3   OH257027   5.966   2.892  12.940 -0.4257  0.5513 -0.3219
11871TIP3    H157028   6.050   2.903  12.984 -0.6725  0.8062  0.1021
11871TIP3    H257029   5.923   2.821  12.988 -0.4174  0.3645 -0.5904
11872TIP3   OH257030   6.137   0.287  11.858  0.4317 -0.8690  0.6516
11872TIP3    H157031   6.186   0.359  11.817 -2.2664  0.8323  0.2911
11872TIP3    H257032   6.146   0.215  11.796  0.4833  0.1576 -0.5765
11873TIP3   OH257033   0.094   5.469  12.111  0.3509 -0.8413  0.0494
11873TIP3    H157034   0.113   5.404  12.179  3.2048  0.4726  0.6090
11873TIP3    H257035   0.104   5.422  12.029 -1.2758 -1.9883  0.4770
11874TIP3   OH257036   4.500   1.421   5.636  0.2102 -0.2967 -0.1443
11874TIP3    H157037   4.547   1.465   5.707 -0.3334 -0.0499  0.0599
11874TIP3    H257038   4.434   1.484   5.608  0.7801 -0.1658 -1.2437
11875TIP3   OH257039   2.370   3.821  11.481  0.5100 -0.3143  0.1587
11875TIP3    H157040   2.359   3.915  11.494 -1.4488 -0.3704 -0.7967
11875TIP3    H257041   2.288   3.783  11.512  0.4571 -1.4997 -1.3674
11876TIP3   OH257042   3.351   1.899   6.358 -0.7700 -0.0171  0.0297
11876TIP3    H157043   3.359   1.886   6.453 -2.1027 -1.3975 -0.0230
11876TIP3    H257044   3.256   1.906   6.344 -0.5507  0.6014 -1.1535
11877TIP3   OH257045   6.685   6.205  14.347 -0.3215  0.3290 -0.3474
11877TIP3    H157046   6.656   6.133  14.402 -0.9843  0.4535 -0.5318
11877TIP3    H257047   6.604   6.247  14.318 -0.0233 -0.1135 -1.9120
11878TIP3   OH257048   3.516   6.174  10.800 -0.2525  0.2979 -0.1396
11878TIP3    H157049   3.605   6.140  10.807 -0.5950 -0.7680 -0.7659
11878TIP3    H257050   3.518   6.258  10.844  0.3665 -0.9911  2.3525
11879TIP3   OH257051   4.838   1.641  14.655 -0.1743 -0.7333  0.2094
11879TIP3    H157052   4.868   1.719  14.703 -0.3109 -0.7273  0.2855
11879TIP3    H257053   4.743   1.648  14.655 -0.1714 -0.6731 -0.1666
11880TIP3   OH257054   1.097   5.365  16.373 -0.3127 -0.0364  0.4885
11880TIP3    H157055   1.024   5.322  16.418 -0.5173  0.9226  1.0798
11880TIP3    H257056   1.166   5.299  16.371 -0.0496  0.1242  2.8450
11881TIP3   OH257057   4.677   5.626   3.434  0.2153 -0.5737 -0.1320
11881TIP3    H157058   4.674   5.543   3.386 -2.6514 -0.7704  0.3166
11881TIP3    H257059   4.733   5.607   3.509  1.3261 -1.4717 -1.1568
11882TIP3   OH257060   0.094   1.275   5.978  0.1716  0.4047 -0.2100
11882TIP3    H157061   0.010   1.256   5.935  0.7863  0.8615 -1.6470
11882TIP3    H257062   0.069   1.313   6.063 -1.0745  0.1479 -0.4525
11883TIP3   OH257063   6.600   5.252   3.438 -0.3750 -0.3102  0.0416
11883TIP3    H157064   6.582   5.214   3.352  1.2757  0.6117 -0.7299
11883TIP3    H257065   6.537   5.323   3.446 -0.3998 -0.2673 -0.4984
11884TIP3   OH257066   4.732   6.540   2.983  0.5461  0.1703 -0.1062
11884TIP3    H157067   4.780   6.462   3.012 -0.8744 -0.4530  0.6233
11884TIP3    H257068   4.640   6.516   2.992  0.0936  1.4226 -1.3057
11885TIP3   OH257069   6.730   3.453  16.018 -0.2145 -0.4025  0.0586
11885TIP3    H157070   6.738   3.539  16.060 -0.7087 -0.1118 -0.4366
11885TIP3    H257071   6.800   3.452  15.953 -0.8547  0.0438 -0.6492
11886TIP3   OH257072   6.597   1.671   2.159  0.4138 -0.5104  0.1396
11886TIP3    H157073   6.634   1.634   2.239 -1.7252  0.3309  1.5538
11886TIP3    H257074   6.559   1.595   2.113  1.8704 -1.0295 -0.2271
11887TIP3   OH257075   3.823   3.500  16.708  0.2686  0.5347  0.0546
11887TIP3    H157076   3.752   3.542  16.756 -1.5599 -2.5841  0.2122
11887TIP3    H257077   3.852   3.429  16.764  3.0077  1.2355 -0.3843
11888TIP3   OH257078   5.382   1.411  12.977  0.0019 -0.0644  0.4466
11888TIP3    H157079   5.310   1.421  13.039 -2.0988 -2.8018 -1.4066
11888TIP3    H257080   5.408   1.319  12.986  3.8270  1.0450  1.5902
11889TIP3   OH257081   3.579   0.238   6.587  1.0463 -0.1358 -0.6051
11889TIP3    H157082   3.653   0.193   6.546  1.8843  2.1686 -1.7194
11889TIP3    H257083   3.587   0.328   6.557 -1.7038  0.3429  0.0141
11890TIP3   OH257084   3.429   1.570   2.546  0.0052 -0.1356 -0.3151
11890TIP3    H157085   3.434   1.567   2.450  0.3297 -0.0561 -0.3009
11890TIP3    H257086   3.496   1.633   2.572 -1.3724  1.2871 -0.1350
11891TIP3   OH257087   6.625   4.438  16.402  0.1471 -0.3108 -0.4418
11891TIP3    H157088   6.571   4.502  16.449  1.3094  2.6443 -2.9311
11891TIP3    H257089   6.564   4.389  16.348 -0.9024 -2.1676  2.2880
11892TIP3   OH257090   5.117   4.018   5.434 -0.1350  0.5905 -0.0581
11892TIP3    H157091   5.183   4.067   5.483  1.1505 -1.2787  0.1662
11892TIP3    H257092   5.039   4.020   5.488  0.7641 -0.0109  1.3054
11893TIP3   OH257093   0.444   1.729   2.594  0.3929  0.4902  0.3898
11893TIP3    H157094   0.469   1.707   2.684  1.3986  3.3437  0.8821
11893TIP3    H257095   0.356   1.767   2.601 -0.8387 -2.1399 -0.2841
11894TIP3   OH257096   3.878   5.662  16.148 -0.4447 -0.3097  0.2098
11894TIP3    H157097   3.960   5.686  16.104 -0.3698 -0.4271  0.2853
11894TIP3    H257098   3.866   5.730  16.215  0.2813 -1.0295  1.0746
11895TIP3   OH257099   0.537   5.200   2.376 -0.2056 -0.7310  0.3583
11895TIP3    H157100   0.459   5.166   2.419  0.7651 -1.3463  1.6618
11895TIP3    H257101   0.527   5.175   2.285 -2.3846  0.7493  0.1475
11896TIP3   OH257102   1.950   0.702   6.481 -0.3778  0.1816  0.3679
11896TIP3    H157103   2.025   0.671   6.431  0.2329  0.8819  0.8448
11896TIP3    H257104   1.943   0.641   6.555 -0.5067 -0.0989  0.1254
11897TIP3   OH257105   2.440   0.981   3.354 -0.1359 -0.0146  0.3541
11897TIP3    H157106   2.413   1.072   3.341 -2.1587 -0.5569  0.5769
11897TIP3    H257107   2.497   0.962   3.280 -2.5874  0.3389 -1.6769
11898TIP3   OH257108   4.208   6.586  16.762  0.1467  0.1170 -0.5719
11898TIP3    H157109   4.213   6.570  16.856  0.9816  0.6380 -0.5224
11898TIP3    H257110   4.174   6.504  16.726  0.5053 -0.3412  0.1100
11899TIP3   OH257111   6.726   0.970  14.832 -0.4330  0.0266 -0.2910
11899TIP3    H157112   6.675   0.901  14.788 -1.6427  1.8339 -1.8175
11899TIP3    H257113   6.660   1.028  14.869  0.5743  0.5542  0.6843
11900TIP3   OH257114   0.574   0.489   0.789  0.7163 -0.3350  0.3534
11900TIP3    H157115   0.658   0.515   0.828  0.5970  0.2578  0.2156
11900TIP3    H257116   0.562   0.399   0.819  0.3412  0.2925  2.1847
11901TIP3   OH257117   6.724   6.183   1.866  0.1757 -0.5921  0.3782
11901TIP3    H157118   6.744   6.171   1.959  1.2545  0.3238  0.2742
11901TIP3    H257119   6.786   6.126   1.820 -2.6641 -3.7509  0.3145
11902TIP3   OH257120   1.915   6.417  11.716 -0.1500  0.3040  0.8610
11902TIP3    H157121   1.942   6.467  11.640 -0.1102  3.2856  2.7558
11902TIP3    H257122   1.997   6.396  11.761 -0.2281 -0.7887  0.5168
11903TIP3   OH257123   2.931   4.455  11.080 -0.0464  0.8489  0.4160
11903TIP3    H157124   2.936   4.452  10.984 -1.0837 -1.1626  0.3993
11903TIP3    H257125   2.877   4.532  11.098  1.0996  1.9040 -0.5647
11904TIP3   OH257126   0.552   2.050   2.232  0.2531 -0.4269  0.0319
11904TIP3    H157127   0.568   2.128   2.285  0.3353  0.3454 -1.1213
11904TIP3    H257128   0.595   2.068   2.149 -1.5525 -0.7962 -1.0071
11905TIP3   OH257129   2.413   2.485  16.989 -0.3944  0.7500 -0.2215
11905TIP3    H157130   2.330   2.471  17.035 -1.0867  1.0195 -1.3486
11905TIP3    H257131   2.405   2.574  16.953  0.6491  1.0140  0.1987
11906TIP3   OH257132   3.184   0.743  15.427  0.1776 -0.1822 -0.2332
11906TIP3    H157133   3.159   0.738  15.520 -0.7152 -0.0716 -0.4619
11906TIP3    H257134   3.236   0.823  15.421 -0.4726  0.2684  0.0175
11907TIP3   OH257135   2.034   5.078  14.460  0.0439 -1.0095 -0.2036
11907TIP3    H157136   2.087   5.133  14.518 -0.0020 -1.0345 -0.1374
11907TIP3    H257137   1.975   5.031  14.519 -0.3067 -0.7026 -0.3103
11908TIP3   OH257138   4.666   6.224  14.842  0.4854 -0.2467  0.6061
11908TIP3    H157139   4.614   6.282  14.899 -0.3989  0.3698 -0.8022
11908TIP3    H257140   4.752   6.222  14.882 -0.0416  0.4272  1.8094
11909TIP3   OH257141   1.835   2.489  12.123  0.4463 -0.2912  0.7233
11909TIP3    H157142   1.777   2.479  12.198 -1.5148  0.6640 -0.6271
11909TIP3    H257143   1.829   2.406  12.076 -0.0259 -0.0940  0.4381
11910TIP3   OH257144   4.836   5.365  15.453  0.3584  0.0114  0.7935
11910TIP3    H157145   4.917   5.412  15.471  0.8733 -0.8177  0.6531
11910TIP3    H257146   4.853   5.275  15.481  0.6816 -0.9831 -2.4162
11911TIP3   OH257147   4.521   1.963   5.148 -0.1610 -0.3018 -0.2039
11911TIP3    H157148   4.440   1.985   5.196 -0.8343 -0.6565 -1.1661
11911TIP3    H257149   4.579   1.927   5.215 -1.1299 -0.8757  0.3421
11912TIP3   OH257150   1.890   4.451  14.024 -0.2387  0.3273  0.2180
11912TIP3    H157151   1.836   4.451  14.103  1.4036  1.8452  1.3699
11912TIP3    H257152   1.943   4.371  14.031 -2.3898 -1.2524 -0.9948
11913TIP3   OH257153   5.569   5.540  17.190  0.8683 -0.0105  0.2029
11913TIP3    H157154   5.585   5.633  17.177 -2.0545  0.7454  1.6098
11913TIP3    H257155   5.616   5.518  17.270  0.4403  0.5960  0.6237
11914TIP3   OH257156   2.894   5.756   3.240 -0.5327  0.3187  0.3647
11914TIP3    H157157   2.903   5.702   3.318 -2.9311  1.4364  1.4667
11914TIP3    H257158   2.907   5.696   3.167 -0.2797 -1.1461  1.6007
11915TIP3   OH257159   3.258   2.052   1.596 -0.4100 -0.0855  0.5186
11915TIP3    H157160   3.343   2.056   1.553 -0.2833 -3.5362  0.3039
11915TIP3    H257161   3.211   2.129   1.563  1.0507 -0.5624 -2.8536
11916TIP3   OH257162   3.324   1.382   5.703 -0.1496  0.6015  0.2125
11916TIP3    H157163   3.407   1.422   5.681  0.6464 -0.2608  1.6045
11916TIP3    H257164   3.346   1.291   5.725 -1.3706  0.5106  1.1221
11917TIP3   OH257165   1.187   0.169  14.688 -0.4368 -0.1812  0.0566
11917TIP3    H157166   1.160   0.138  14.601  3.5333  0.0341 -1.3295
11917TIP3    H257167   1.216   0.259  14.673  2.1102 -0.7656  1.1831
11918TIP3   OH257168   3.183   1.717  15.926  0.5613  0.1444 -0.1063
11918TIP3    H157169   3.138   1.801  15.937  0.1080  0.2307 -2.4221
11918TIP3    H257170   3.223   1.722  15.839  1.6941 -1.5109  0.2891
11919TIP3   OH257171   0.614   1.652   2.077  0.3346  0.3709  0.1321
11919TIP3    H157172   0.529   1.609   2.080  1.0286 -0.9667  0.7435
11919TIP3    H257173   0.670   1.601   2.135  1.6479  1.0464 -0.5060
11920TIP3   OH257174   6.545   3.596   2.010 -0.9358  0.4444 -0.4605
11920TIP3    H157175   6.539   3.585   1.915  0.5153 -2.4647 -0.2528
11920TIP3    H257176   6.476   3.541   2.045  1.2709 -1.9139  0.3071
11921TIP3   OH257177   2.007   4.760  16.081 -0.2852 -0.4730 -0.3729
11921TIP3    H157178   1.933   4.721  16.035 -0.5696  0.9910 -1.1901
11921TIP3    H257179   2.084   4.714  16.047 -0.7303 -1.3479 -0.2101
11922TIP3   OH257180   3.816   6.514   3.638  0.3580  0.6450  0.6162
11922TIP3    H157181   3.880   6.584   3.651 -0.0128  0.9705  0.6806
11922TIP3    H257182   3.849   6.441   3.690  1.6654  0.1813 -0.8001
11923TIP3   OH257183   3.200   4.374  11.863  0.1757  0.0528 -0.5145
11923TIP3    H157184   3.144   4.376  11.785 -1.4743  1.2159  0.6740
11923TIP3    H257185   3.154   4.314  11.923 -0.4172  1.9028  0.9086
11924TIP3   OH257186   4.493   2.417  14.632 -0.5551  0.3098 -0.3135
11924TIP3    H157187   4.406   2.444  14.663 -0.2387  2.1519 -1.0150
11924TIP3    H257188   4.545   2.412  14.712 -0.4675  2.3608 -0.2229
11925TIP3   OH257189   0.287   3.479  12.277  0.5449 -0.0096 -0.3003
11925TIP3    H157190   0.383   3.477  12.283  0.5478  0.0128 -0.3379
11925TIP3    H257191   0.269   3.473  12.183  0.4643 -1.5729 -0.1908
11926TIP3   OH257192   3.111   5.232  16.640 -0.0254  0.2089  0.0954
11926TIP3    H157193   3.162   5.224  16.560 -0.9473  0.7272 -0.5666
11926TIP3    H257194   3.174   5.221  16.711  0.7206 -0.7236 -0.7004
11927TIP3   OH257195   2.111   2.551  12.401  0.5501  0.3958  0.4496
11927TIP3    H157196   2.198   2.514  12.384  0.1746  0.5845 -2.2350
11927TIP3    H257197   2.051   2.478  12.383 -0.0602  1.5536 -2.5483
11928TIP3   OH257198   1.573   4.093   5.355  0.1184 -0.1837  0.0451
11928TIP3    H157199   1.556   4.081   5.262 -0.5017 -0.7883  0.2385
11928TIP3    H257200   1.492   4.130   5.390  0.7479  1.1627  0.1328
11929TIP3   OH257201   4.295   1.905   2.209  0.4481  0.2531  0.5227
11929TIP3    H157202   4.292   1.967   2.136  0.0720 -0.9028 -0.4699
11929TIP3    H257203   4.234   1.836   2.183  2.1207 -1.3729  0.8251
11930TIP3   OH257204   0.483   0.919  14.831 -0.7924  0.2939 -0.1538
11930TIP3    H157205   0.409   0.881  14.878 -1.4511  0.8905 -0.7049
11930TIP3    H257206   0.556   0.913  14.893 -0.8529 -1.9384 -0.2550
11931TIP3   OH257207   2.851   0.819  11.081 -0.1856  0.6123 -0.1576
11931TIP3    H157208   2.833   0.817  10.987  0.0170  1.0868 -0.2069
11931TIP3    H257209   2.876   0.909  11.099 -0.0821  0.4904  0.3281
11932TIP3   OH257210   2.367   0.617  15.160  0.6209  0.0274  0.4508
11932TIP3    H157211   2.312   0.543  15.134  0.9890 -0.7813  1.9096
11932TIP3    H257212   2.431   0.625  15.089  0.7795 -1.2584  0.4337
11933TIP3   OH257213   0.670   0.411  12.842 -0.0876 -0.1145  0.2354
11933TIP3    H157214   0.721   0.492  12.840  1.0560 -0.7590  2.4356
11933TIP3    H257215   0.731   0.344  12.809 -1.0530 -0.1132 -1.6575
11934TIP3   OH257216   0.500   0.900   3.527  0.0477  0.3532 -0.5810
11934TIP3    H157217   0.410   0.870   3.538 -0.1049  0.6232 -1.0832
11934TIP3    H257218   0.517   0.954   3.605 -0.9389  2.0520 -1.5248
11935TIP3   OH257219   1.845   0.622  14.873 -0.5023 -0.8049 -0.0741
11935TIP3    H157220   1.913   0.621  14.940 -1.2147 -2.9964  0.6543
11935TIP3    H257221   1.777   0.678  14.909  0.5307  0.7475 -0.4607
11936TIP3   OH257222   4.059   5.068   4.165 -0.1602 -0.5959 -0.0144
11936TIP3    H157223   3.993   5.080   4.233 -0.6226 -0.3995 -0.4940
11936TIP3    H257224   4.134   5.118   4.196 -0.6704  0.2177 -0.0550
11937TIP3   OH257225   0.166   5.421  14.165 -0.6966  0.0974  0.6224
11937TIP3    H157226   0.139   5.511  14.181  0.7687  0.3827  1.5912
11937TIP3    H257227   0.108   5.368  14.218 -0.8537  0.5471  0.9011
11938TIP3   OH257228   0.142   5.924   3.801  0.2318  0.7896  0.1401
11938TIP3    H157229   0.084   5.853   3.774  0.5556  0.4749  0.2669
11938TIP3    H257230   0.228   5.898   3.768  0.2768  1.3198 -0.1650
11939TIP3   OH257231   4.392   6.275   0.427 -0.3710 -0.3051 -0.1175
11939TIP3    H157232   4.353   6.302   0.344 -1.3950 -1.0266  0.1142
11939TIP3    H257233   4.482   6.251   0.405 -1.0073 -1.6991 -1.2583
11940TIP3   OH257234   1.570   2.650  13.158 -0.1003  0.3689  0.4551
11940TIP3    H157235   1.555   2.626  13.250  1.3395 -1.4062  0.2408
11940TIP3    H257236   1.634   2.721  13.163  1.2338 -0.8478  0.7555
11941TIP3   OH257237   0.453   4.291   4.144  0.4180 -0.1445  0.0304
11941TIP3    H157238   0.373   4.317   4.189  0.5054 -0.3427  0.3031
11941TIP3    H257239   0.452   4.196   4.146  1.2929 -0.1505  1.1749
11942TIP3   OH257240   3.176   0.945  11.059 -0.4789 -0.0169  0.0264
11942TIP3    H157241   3.094   0.993  11.067  0.3363  1.1594  1.5151
11942TIP3    H257242   3.236   0.991  11.117  0.6766 -2.0790  0.4838
11943TIP3   OH257243   0.110   1.020  16.520  0.4522 -0.1314  0.5137
11943TIP3    H157244   0.126   0.995  16.429 -1.2074  0.0067  0.1627
11943TIP3    H257245   0.195   1.052  16.551  0.9394  0.2159 -1.1192
11944TIP3   OH257246   6.459   3.354   6.147  0.8565 -0.0828 -0.0808
11944TIP3    H157247   6.418   3.416   6.087  1.6924 -0.1745 -0.7569
11944TIP3    H257248   6.386   3.314   6.194  0.0345 -1.5991 -2.5694
11945TIP3   OH257249   1.198   0.540  11.731  0.3746 -0.0960  0.5352
11945TIP3    H157250   1.261   0.597  11.688  1.3588 -1.1235  0.5860
11945TIP3    H257251   1.237   0.453  11.725 -1.0929 -0.7616  0.4725
11946TIP3   OH257252   6.067   1.582  14.475 -0.1019  0.0096 -1.0340
11946TIP3    H157253   6.082   1.515  14.409 -0.2757 -0.7034 -0.3613
11946TIP3    H257254   6.037   1.658  14.426  0.3295 -0.3277 -1.8278
11947TIP3   OH257255   2.089   0.396  13.583  0.1712  0.5777  0.4767
11947TIP3    H157256   2.009   0.362  13.544 -0.8723  3.3012  0.1806
11947TIP3    H257257   2.088   0.362  13.673 -0.0618 -1.3716 -0.2463
11948TIP3   OH257258   2.053   4.858   3.525 -0.1852  0.0566 -0.1117
11948TIP3    H157259   1.961   4.852   3.499  0.5611 -0.5127 -2.7828
11948TIP3    H257260   2.066   4.783   3.583 -1.0764 -0.6414 -0.7929
11949TIP3   OH257261   3.038   6.571   1.945 -0.1204 -0.3112  0.1954
11949TIP3    H157262   2.953   6.535   1.970 -1.3473  1.8619 -0.6700
11949TIP3    H257263   3.048   6.648   2.001 -0.0644  1.0661 -1.6465
11950TIP3   OH257264   1.131   6.686  14.785  0.0294  0.4220  0.4827
11950TIP3    H157265   1.218   6.648  14.797  0.4159  1.1463  0.0425
11950TIP3    H257266   1.148   6.776  14.758 -0.8488  0.0578 -1.3519
11951TIP3   OH257267   0.115   5.781  11.395  0.0156  0.2366  0.0086
11951TIP3    H157268   0.146   5.740  11.314  0.2969 -0.6340  0.5454
11951TIP3    H257269   0.113   5.709  11.459  0.3780  1.0317  0.9294
11952TIP3   OH257270   5.164   2.696   0.840 -0.1965 -0.7855 -0.3828
11952TIP3    H157271   5.083   2.742   0.864  0.3505 -0.6991  1.3742
11952TIP3    H257272   5.135   2.609   0.811 -0.8699 -0.9852  0.8634
11953TIP3   OH257273   5.850   4.759  11.229 -0.0690 -0.4004  0.3567
11953TIP3    H157274   5.880   4.777  11.318  0.1774  0.0603  0.1763
11953TIP3    H257275   5.824   4.844  11.194 -1.6503 -0.7912  0.5299
11954TIP3   OH257276   6.349   1.175   1.913  0.2737  0.1060  0.3626
11954TIP3    H157277   6.285   1.215   1.972 -0.9401 -1.4698  0.1333
11954TIP3    H257278   6.366   1.088   1.951 -1.3084 -1.3438 -2.1277
11955TIP3   OH257279   4.584   2.402   5.807 -0.1958 -0.0781  0.4843
11955TIP3    H157280   4.532   2.396   5.887 -0.6081 -0.0652  0.2202
11955TIP3    H257281   4.614   2.313   5.791 -0.2721 -0.1159  0.5477
11956TIP3   OH257282   3.714   4.229  11.275  0.0563  0.0988  0.3461
11956TIP3    H157283   3.804   4.260  11.291  0.0502  1.2906 -1.6336
11956TIP3    H257284   3.663   4.264  11.348  0.9328  0.7443  0.6674
11957TIP3   OH257285   4.548   0.936   3.768 -0.2662  0.1215 -0.0217
11957TIP3    H157286   4.530   0.907   3.857  1.1177  0.5815  0.4286
11957TIP3    H257287   4.580   1.026   3.778 -0.5315  0.3305 -1.0151
11958TIP3   OH257288   2.501   4.997   3.464  0.3558 -0.2416 -0.4663
11958TIP3    H157289   2.542   4.953   3.390  2.6755  1.1022 -0.0061
11958TIP3    H257290   2.524   4.944   3.540  0.2540 -0.1310 -0.3578
11959TIP3   OH257291   1.091   1.724   0.236 -0.1504  0.2448  0.6475
11959TIP3    H157292   1.109   1.630   0.228  0.6315  0.4404  0.1732
11959TIP3    H257293   1.132   1.764   0.160 -0.4005  0.9915  0.8959
11960TIP3   OH257294   4.458   6.736   1.641  0.1090  1.1779 -0.8254
11960TIP3    H157295   4.504   6.678   1.581  0.9013  2.7089 -1.7333
11960TIP3    H257296   4.522   6.755   1.710 -0.5274  0.0805  0.0891
11961TIP3   OH257297   1.958   1.880  16.329  0.1727  0.2133  0.3934
11961TIP3    H157298   1.949   1.891  16.235  0.3325  1.0751  0.4708
11961TIP3    H257299   2.047   1.910  16.348  0.8011 -1.6968  0.5664
11962TIP3   OH257300   5.769   5.224  17.130 -0.4304 -0.3556  0.2986
11962TIP3    H157301   5.708   5.222  17.057 -0.2836 -3.9941  0.1909
11962TIP3    H257302   5.855   5.221  17.089 -0.3230 -0.9263  0.5570
11963TIP3   OH257303   3.494   5.156  16.624 -0.4098 -0.2274  0.2513
11963TIP3    H157304   3.468   5.135  16.714  0.2700  0.6469  0.6546
11963TIP3    H257305   3.539   5.240  16.631  0.3028 -0.5182 -0.8075
11964TIP3   OH257306   3.341   6.163   4.347 -0.5551 -0.4861  0.7374
11964TIP3    H157307   3.333   6.080   4.300 -3.7091 -0.0881  0.4883
11964TIP3    H257308   3.422   6.201   4.314 -1.6165 -1.1774 -2.8487
11965TIP3   OH257309   0.231   4.839  13.303 -0.0320  0.7455  0.0165
11965TIP3    H157310   0.146   4.805  13.328 -0.0078  0.3206 -0.4634
11965TIP3    H257311   0.211   4.914  13.247 -0.0953  0.5334 -0.2484
11966TIP3   OH257312   3.973   0.409   0.129 -0.4226  0.2405  0.1782
11966TIP3    H157313   3.904   0.348   0.156 -0.6685  1.2016  1.7948
11966TIP3    H257314   3.927   0.491   0.112  0.1017  0.3958 -0.4859
11967TIP3   OH257315   6.751   4.392   5.628 -0.2108 -0.8943 -0.0404
11967TIP3    H157316   6.714   4.377   5.540 -1.9721  0.3067  0.4645
11967TIP3    H257317   6.701   4.334   5.685  0.2789 -0.9671  0.3126
11968TIP3   OH257318   6.290   5.656   2.051  0.2135 -0.0285  0.4722
11968TIP3    H157319   6.325   5.573   2.020  0.2628 -0.3281  1.3209
11968TIP3    H257320   6.271   5.642   2.144 -0.3654  0.7106  0.4806
11969TIP3   OH257321   1.165   0.901  10.914  0.4253  0.3631 -0.0202
11969TIP3    H157322   1.114   0.925  10.992  0.3645  0.9971 -0.2540
11969TIP3    H257323   1.100   0.893  10.844  0.1372 -2.8580  0.5685
11970TIP3   OH257324   5.044   6.090  10.758  0.5218 -0.4210  0.1218
11970TIP3    H157325   5.012   6.114  10.845  0.8282  1.0746 -0.1609
11970TIP3    H257326   5.093   6.009  10.772  1.1508  0.1775  1.4633
11971TIP3   OH257327   5.405   0.978   5.641 -0.3227 -0.4223  0.5193
11971TIP3    H157328   5.325   1.029   5.655  0.2925  0.1828  1.8497
11971TIP3    H257329   5.471   1.042   5.616 -0.6676 -1.1310 -2.4010
11972TIP3   OH257330   3.131   2.500  11.651  0.1657 -0.2695  0.0196
11972TIP3    H157331   3.200   2.463  11.596 -1.7371 -1.6178 -1.5147
11972TIP3    H257332   3.160   2.590  11.670  1.5097 -0.2572 -2.0340
11973TIP3   OH257333   4.460   1.584  17.045  0.1800 -0.0583  0.5381
11973TIP3    H157334   4.396   1.532  16.996  0.2969  1.5760 -1.3842
11973TIP3    H257335   4.423   1.590  17.133 -0.6176 -2.0346  0.3654
11974TIP3   OH257336   4.286   0.118  12.686 -0.0034  0.3837 -0.3934
11974TIP3    H157337   4.342   0.074  12.623  2.1511 -2.0107  2.9917
11974TIP3    H257338   4.201   0.076  12.676  0.4818 -0.4128 -1.2272
11975TIP3   OH257339   0.746   5.597   0.408  0.2448 -0.3943 -0.1598
11975TIP3    H157340   0.795   5.571   0.486 -1.0080 -0.5311  0.5947
11975TIP3    H257341   0.741   5.693   0.413 -0.7512 -0.4711  0.5059
11976TIP3   OH257342   4.747   5.125   5.908  0.6416 -0.7560  0.3529
11976TIP3    H157343   4.815   5.111   5.842  1.8681  2.3184  0.8398
11976TIP3    H257344   4.671   5.155   5.858  0.9963 -0.1921  0.1314
11977TIP3   OH257345   5.006   2.811  13.512  0.1129  0.1164 -0.3455
11977TIP3    H157346   4.943   2.749  13.476 -0.4585 -0.2138  1.1820
11977TIP3    H257347   5.049   2.849  13.436  0.4505 -2.1282 -1.2973
11978TIP3   OH257348   6.145   0.628   3.029  0.4943  0.3629 -0.2625
11978TIP3    H157349   6.214   0.562   3.025  0.4988  0.3966 -0.7000
11978TIP3    H257350   6.072   0.591   2.980  0.1224  0.2406  0.3664
11979TIP3   OH257351   3.913   1.307   3.462 -0.0849 -0.0126 -0.8028
11979TIP3    H157352   3.893   1.319   3.555  0.4546  0.0446 -0.6926
11979TIP3    H257353   3.922   1.212   3.451  2.0003  0.1089 -0.3397
11980TIP3   OH257354   0.306   1.303   4.354 -0.0391  0.0343  0.5341
11980TIP3    H157355   0.392   1.298   4.396  0.5848 -2.5408 -0.9286
11980TIP3    H257356   0.246   1.320   4.426  1.6040  1.2040  1.6728
11981TIP3   OH257357   1.438   2.111  13.011  0.1701 -0.3178 -0.2894
11981TIP3    H157358   1.485   2.195  13.006 -1.1570  0.4651  0.0245
11981TIP3    H257359   1.507   2.045  13.009  1.2342  0.7783 -0.7035
11982TIP3   OH257360   5.720   2.863  16.096 -0.2109  0.1234 -0.0176
11982TIP3    H157361   5.679   2.874  16.010  0.4343 -0.1167 -0.3546
11982TIP3    H257362   5.734   2.769  16.104  0.1512  0.1923  0.1564
11983TIP3   OH257363   6.039   0.684  16.264  0.0783 -0.7386 -0.1331
11983TIP3    H157364   6.056   0.738  16.341 -2.4951 -0.3804  0.2271
11983TIP3    H257365   6.052   0.594  16.294  2.6075 -0.4626 -0.2668
11984TIP3   OH257366   6.274   3.841  17.163  0.4493 -0.4393  0.3860
11984TIP3    H157367   6.271   3.892  17.082  0.9163 -1.4355 -0.2675
11984TIP3    H257368   6.353   3.871  17.208 -0.1307  0.5413  0.7658
11985TIP3   OH257369   2.685   6.034   5.745 -0.4187  0.1840 -0.4502
11985TIP3    H157370   2.688   6.110   5.688 -0.9008  1.9282  1.8049
11985TIP3    H257371   2.592   6.021   5.763 -0.3471 -0.9961 -0.8897
11986TIP3   OH257372   5.309   4.711   0.666  0.7326 -0.1905  0.8526
11986TIP3    H157373   5.235   4.685   0.611  2.5392 -1.9738 -0.7872
11986TIP3    H257374   5.299   4.660   0.746  0.9293 -1.4326  0.0873
11987TIP3   OH257375   3.343   5.655  13.147  0.2352 -0.7669  0.1230
11987TIP3    H157376   3.334   5.697  13.233 -1.7899  0.4663 -0.6585
11987TIP3    H257377   3.291   5.575  13.154  0.7556 -1.0922  0.3036
11988TIP3   OH257378   1.524   2.338   2.153  0.1417  0.0155  0.0674
11988TIP3    H157379   1.462   2.400   2.191 -0.2204  0.6180 -1.5023
11988TIP3    H257380   1.497   2.253   2.189 -0.4411  0.5179  0.8434
11989TIP3   OH257381   3.173   4.230   0.753  0.0617  0.4756  0.7132
11989TIP3    H157382   3.097   4.182   0.720  1.0079 -1.0257  0.6818
11989TIP3    H257383   3.224   4.165   0.802  1.0013  1.6081  1.2669
11990TIP3   OH257384   0.032   4.567   6.238 -0.0613  0.2255 -0.2690
11990TIP3    H157385   0.078   4.568   6.322 -0.7442 -1.0948  0.1344
11990TIP3    H257386   0.094   4.606   6.177  0.6773  0.6550  0.7267
11991TIP3   OH257387   1.969   6.626  12.865  0.6235 -0.0846  0.2261
11991TIP3    H157388   2.028   6.675  12.808  0.3382  1.5332  1.2707
11991TIP3    H257389   1.895   6.603  12.808  0.9800  0.3014 -0.4064
11992TIP3   OH257390   4.433   3.492   2.738 -0.7919  0.2933  0.3347
11992TIP3    H157391   4.382   3.561   2.698  1.5525  1.0905 -1.3708
11992TIP3    H257392   4.474   3.533   2.814  0.2128  0.6904 -0.4027
11993TIP3   OH257393   2.478   3.688   3.181  0.3068 -0.6795 -0.1278
11993TIP3    H157394   2.415   3.753   3.150 -0.3199  0.8543  4.0667
11993TIP3    H257395   2.561   3.736   3.188  0.2921 -0.8301  1.1597
11994TIP3   OH257396   6.214   4.309   1.534  0.2952  0.9520 -0.3080
11994TIP3    H157397   6.188   4.394   1.499 -0.3457  0.3685 -1.2513
11994TIP3    H257398   6.248   4.329   1.622  1.1161  2.2951 -0.9206
11995TIP3   OH257399   3.706   4.960   1.080  0.7583  0.1926 -0.8573
11995TIP3    H157400   3.716   5.055   1.087 -0.4821  0.2708  0.1280
11995TIP3    H257401   3.682   4.932   1.169  1.8242 -1.1391 -0.9652
11996TIP3   OH257402   1.020   0.187  13.797 -0.0754  0.2912 -0.2480
11996TIP3    H157403   0.936   0.178  13.750 -0.1555  1.9835 -0.4596
11996TIP3    H257404   0.997   0.178  13.889 -0.5150  0.7897 -0.3026
11997TIP3   OH257405   6.189   4.598  15.134  0.5507  0.0249  0.4870
11997TIP3    H157406   6.277   4.588  15.171  1.0081  1.0756 -0.3259
11997TIP3    H257407   6.187   4.686  15.096 -0.2920 -0.6098 -1.0023
11998TIP3   OH257408   2.898   0.147  13.549 -0.7370 -0.1449 -0.2715
11998TIP3    H157409   2.821   0.187  13.590 -0.7177  0.3025 -0.6749
11998TIP3    H257410   2.881   0.153  13.455 -0.7527 -1.1094 -0.3345
11999TIP3   OH257411   5.251   0.455  16.337 -0.1937  0.2098  0.4431
11999TIP3    H157412   5.310   0.507  16.283 -0.7574  0.5036  0.1083
11999TIP3    H257413   5.195   0.409  16.274 -0.0642 -0.3759  0.7465
12000TIP3   OH257414   3.495   5.521   5.615  0.2539  0.4311 -0.1843
12000TIP3    H157415   3.528   5.444   5.568 -2.5897 -0.5572 -0.6558
12000TIP3    H257416   3.402   5.523   5.594 -0.4876  1.7162  3.0481
12001TIP3   OH257417   5.633   5.822  17.182  0.4785 -0.2510  0.3453
12001TIP3    H157418   5.622   5.861  17.095 -0.0875  0.6214  0.8059
12001TIP3    H257419   5.635   5.897  17.241  2.8109 -0.7169  0.9031
12002TIP3   OH257420   3.699   1.926  15.151  0.5583  0.4550  0.3412
12002TIP3    H157421   3.635   1.991  15.180  0.9409  0.8140  0.3827
12002TIP3    H257422   3.744   1.967  15.078 -0.6195 -0.5763 -0.9932
12003TIP3   OH257423   5.345   1.350   4.931 -0.3899 -0.6931 -0.1112
12003TIP3    H157424   5.375   1.273   4.978  0.6023  0.6276  1.4943
12003TIP3    H257425   5.283   1.392   4.992  1.3100  1.3234  0.2839
12004TIP3   OH257426   0.145   1.043   0.257  0.1785 -1.0670  0.1663
12004TIP3    H157427   0.201   0.966   0.268  0.9726 -0.4825  0.1932
12004TIP3    H257428   0.167   1.100   0.330  0.1889 -0.4391 -0.3281
12005TIP3   OH257429   6.384   1.516  16.880 -0.2858 -0.4505  0.2083
12005TIP3    H157430   6.423   1.520  16.967  0.1276  0.2902  0.0018
12005TIP3    H257431   6.408   1.430  16.846 -0.0732 -0.5664  0.6568
12006TIP3   OH257432   5.410   0.809   5.398 -0.0709 -0.2017  0.8548
12006TIP3    H157433   5.430   0.886   5.344  0.2536 -0.8035  0.1177
12006TIP3    H257434   5.420   0.840   5.488 -1.5136  1.0604  0.6040
12007TIP3   OH257435   1.672   1.656   3.567  0.3066 -0.1965 -0.6839
12007TIP3    H157436   1.700   1.639   3.477  2.0167  0.2364 -0.2533
12007TIP3    H257437   1.753   1.678   3.614 -0.4210 -1.3194  1.1796
12008TIP3   OH257438   0.085   1.230   3.575 -0.2104  0.2552 -0.0907
12008TIP3    H157439   0.152   1.272   3.629 -1.3433  0.3582  1.2773
12008TIP3    H257440   0.134   1.186   3.506  1.2973  0.0744  1.0603
12009TIP3   OH257441   5.628   2.223   5.277 -0.0566  0.3287  0.6581
12009TIP3    H157442   5.638   2.177   5.360  0.5209  0.0010  0.4070
12009TIP3    H257443   5.538   2.204   5.250  0.3040 -1.0289  0.3446
12010TIP3   OH257444   2.553   3.934   4.925 -0.7219  0.5210 -0.0344
12010TIP3    H157445   2.600   4.014   4.951 -0.9070  0.7362 -0.3506
12010TIP3    H257446   2.613   3.863   4.946 -0.4581  0.7620  0.0326
12011TIP3   OH257447   5.647   4.194  13.348 -0.1038  0.3574  0.0376
12011TIP3    H157448   5.603   4.271  13.313 -0.7002 -0.3703 -0.8323
12011TIP3    H257449   5.710   4.169  13.279 -1.9562 -1.6542 -1.0026
12012TIP3   OH257450   0.429   6.106   5.197  0.4485  0.3877 -0.4943
12012TIP3    H157451   0.505   6.069   5.154 -0.3618 -0.4605 -1.2087
12012TIP3    H257452   0.422   6.195   5.162  1.3046  0.5983 -0.1535
12013TIP3   OH257453   5.930   0.880   4.337  0.4142 -0.2082  0.0422
12013TIP3    H157454   6.008   0.891   4.283 -0.1807  0.1997 -0.7508
12013TIP3    H257455   5.941   0.944   4.408 -0.3933  1.6836 -1.4847
12014TIP3   OH257456   5.018   4.181  15.290 -0.1822 -0.1715 -0.2786
12014TIP3    H157457   4.998   4.176  15.196  1.0522 -1.4279 -0.4777
12014TIP3    H257458   5.103   4.224  15.294  0.0997 -0.7724  0.2307
12015TIP3   OH257459   5.793   1.741   1.450  0.5848 -0.1104 -0.2344
12015TIP3    H157460   5.883   1.711   1.435  0.7814 -0.4709  1.6143
12015TIP3    H257461   5.802   1.828   1.487  0.1159  0.3878 -1.2530
12016TIP3   OH257462   1.449   0.158  16.265  0.1094 -0.3930  0.6531
12016TIP3    H157463   1.372   0.163  16.322  0.8923 -0.3858  1.7470
12016TIP3    H257464   1.418   0.118  16.184 -1.4563  1.3630  0.3522
12017TIP3   OH257465   5.173   2.576   4.181  0.1969  0.2748 -0.0169
12017TIP3    H157466   5.107   2.579   4.250 -1.3096 -0.1974 -1.3957
12017TIP3    H257467   5.183   2.482   4.162  1.2019  0.3463  0.0882
12018TIP3   OH257468   4.122   5.694   6.217 -0.0488  0.5014  0.2136
12018TIP3    H157469   4.182   5.621   6.200  0.3596  0.9751 -0.3998
12018TIP3    H257470   4.069   5.701   6.138 -1.1520 -0.1291  0.8910
12019TIP3   OH257471   6.719   4.638  15.575  0.4195 -0.0370  0.0812
12019TIP3    H157472   6.683   4.688  15.648  1.3414  0.2185  0.3721
12019TIP3    H257473   6.752   4.558  15.616 -1.2682 -1.0029 -0.4161
12020TIP3   OH257474   0.821   0.893  11.952  0.2551 -0.1209 -0.0536
12020TIP3    H157475   0.869   0.860  11.876  0.3555 -1.6476  0.6506
12020TIP3    H257476   0.732   0.860  11.940  0.4456 -0.9786  0.8499
12021TIP3   OH257477   2.390   1.375   5.465 -0.2629  0.3554  0.6879
12021TIP3    H157478   2.366   1.292   5.423  0.2381  0.6197 -0.1182
12021TIP3    H257479   2.306   1.417   5.484 -0.5061 -0.0537  0.5307
12022TIP3   OH257480   6.481   1.581  10.858  0.2620 -0.1363 -0.2413
12022TIP3    H157481   6.544   1.619  10.919 -0.9305  0.8226  0.4175
12022TIP3    H257482   6.514   1.606  10.771  0.3481  1.0496  0.1286
12023TIP3   OH257483   4.188   2.833  12.720  0.6058  0.4952 -0.8661
12023TIP3    H157484   4.158   2.917  12.685  1.3605  0.5068 -1.4934
12023TIP3    H257485   4.239   2.857  12.798  0.3903  0.5871 -0.7541
12024TIP3   OH257486   4.814   4.709  15.591 -0.1662 -0.9195 -0.3203
12024TIP3    H157487   4.841   4.631  15.543  0.7657 -0.2143 -0.9770
12024TIP3    H257488   4.883   4.722  15.656  1.5357  1.3103 -2.4776
12025TIP3   OH257489   5.655   5.864   4.339 -0.7980 -0.0379 -0.0299
12025TIP3    H157490   5.705   5.934   4.380  2.1229 -1.0348 -1.7166
12025TIP3    H257491   5.590   5.839   4.404 -1.2208  3.4980  0.9968
12026TIP3   OH257492   3.825   1.567  15.854  0.0467 -0.2880  0.4075
12026TIP3    H157493   3.786   1.648  15.887 -1.8872 -0.8821 -0.3688
12026TIP3    H257494   3.823   1.577  15.758  0.1672 -1.0967  0.3200
12027TIP3   OH257495   3.966   4.040   1.341 -0.9719  0.0239 -0.9281
12027TIP3    H157496   3.891   4.008   1.391 -0.5130  1.0605  0.4234
12027TIP3    H257497   3.973   3.979   1.268 -1.0044 -2.1201  0.8255
12028TIP3   OH257498   4.154   6.477   5.241 -0.0947  0.3497  0.3972
12028TIP3    H157499   4.248   6.480   5.224 -0.2106 -1.1343 -0.6425
12028TIP3    H257500   4.142   6.533   5.317  1.6883  0.2924  0.7591
12029TIP3   OH257501   4.941   3.821  11.058  0.8941 -1.0467  0.1552
12029TIP3    H157502   4.946   3.760  11.131  0.7803 -0.1952  0.8953
12029TIP3    H257503   4.882   3.890  11.089  1.9732  0.0575 -0.1995
12030TIP3   OH257504   2.510   0.607   3.789 -0.0403  0.1732 -0.0634
12030TIP3    H157505   2.597   0.649   3.793 -0.3232  0.7064  0.6023
12030TIP3    H257506   2.508   0.564   3.704  0.9217  0.0781 -0.0442
12031TIP3   OH257507   5.265   5.702  16.223  0.7282 -0.3048 -0.7089
12031TIP3    H157508   5.255   5.719  16.129  1.2081 -0.2503 -0.7488
12031TIP3    H257509   5.359   5.686  16.235  0.7602  0.2715 -0.1468
12032TIP3   OH257510   6.443   0.176   5.678  0.0674 -0.2961  0.3932
12032TIP3    H157511   6.503   0.246   5.653 -3.2350  1.8255 -1.9232
12032TIP3    H257512   6.424   0.130   5.596 -1.4459 -0.9200  1.0637
12033TIP3   OH257513   4.081   0.889   5.298  0.0702  0.5593 -0.1048
12033TIP3    H157514   4.115   0.805   5.331  0.4309 -0.0914 -2.0974
12033TIP3    H257515   3.995   0.867   5.262 -0.1030  1.1835 -0.0792
12034TIP3   OH257516   1.612   5.740  13.218 -0.1388  0.0888  0.4245
12034TIP3    H157517   1.537   5.693  13.255 -0.8461  0.9181  0.0597
12034TIP3    H257518   1.640   5.686  13.144  0.8010 -1.1799  1.6778
12035TIP3   OH257519   3.077   0.298   4.363 -0.2110 -0.6125  0.4901
12035TIP3    H157520   3.171   0.285   4.370 -0.0263  0.9454  0.9490
12035TIP3    H257521   3.063   0.390   4.385 -1.5905 -0.2106 -1.8299
12036TIP3   OH257522   3.405   4.930   0.401 -0.1336 -0.5859 -0.5159
12036TIP3    H157523   3.480   4.872   0.415 -1.4599 -2.7809 -2.2167
12036TIP3    H257524   3.441   5.018   0.410  2.2012 -1.6359  0.8085
12037TIP3   OH257525   3.324   5.072   3.742  0.3673  0.3869  0.8899
12037TIP3    H157526   3.358   5.079   3.831 -0.8271  2.1310  1.2546
12037TIP3    H257527   3.353   5.152   3.699 -0.4044  0.3123  0.2067
12038TIP3   OH257528   1.596   3.857  15.733 -0.2326 -0.2355  0.8328
12038TIP3    H157529   1.508   3.857  15.696 -1.0578  0.9180  2.7204
12038TIP3    H257530   1.608   3.947  15.765  1.2376 -0.6663  1.5139
12039TIP3   OH257531   0.444   2.203  16.085 -0.1706 -0.1936 -0.3260
12039TIP3    H157532   0.488   2.172  16.164  0.0283  3.0867  0.9361
12039TIP3    H257533   0.512   2.250  16.036 -0.2796 -2.2102 -2.5188
12040TIP3   OH257534   4.325   1.196  16.335 -0.1483  0.0025 -0.0819
12040TIP3    H157535   4.402   1.138  16.335  0.1676  0.4092 -1.1923
12040TIP3    H257536   4.273   1.166  16.261  0.1258  1.2679 -0.8023
12041TIP3   OH257537   4.869   2.427   4.297  0.8940  1.0191 -0.4555
12041TIP3    H157538   4.803   2.375   4.250  1.0897  0.9063 -0.6078
12041TIP3    H257539   4.950   2.378   4.285  1.0715  1.3441 -0.5723
12042TIP3   OH257540   1.746   2.637   2.572 -0.2730  0.0416  0.1944
12042TIP3    H157541   1.691   2.590   2.509  0.9957  0.0794 -0.9839
12042TIP3    H257542   1.712   2.727   2.572 -1.8851 -0.5508  1.4839
12043TIP3   OH257543   1.100   1.069   5.543 -0.1050 -0.5725  0.1756
12043TIP3    H157544   1.101   1.098   5.452 -0.4683 -0.1541  0.3034
12043TIP3    H257545   1.077   0.976   5.538 -0.6515 -0.4202 -0.1235
12044TIP3   OH257546   0.340   2.351   3.156 -0.7422 -0.0218  0.2242
12044TIP3    H157547   0.301   2.403   3.085  0.8413  0.9343  0.0220
12044TIP3    H257548   0.422   2.319   3.119 -1.5833 -2.5070  0.4446
12045TIP3   OH257549   4.446   2.908  16.489  0.2607  0.4406  0.2405
12045TIP3    H157550   4.535   2.937  16.469  0.2880  1.3356  1.5599
12045TIP3    H257551   4.391   2.984  16.469 -0.1771 -0.0221 -0.3205
12046TIP3   OH257552   2.339   0.056  14.198 -0.4682 -0.3903  0.5355
12046TIP3    H157553   2.433   0.069  14.207 -0.4677 -0.8942  1.3560
12046TIP3    H257554   2.306   0.060  14.288 -1.1019 -1.1729  0.3415
12047TIP3   OH257555   5.180   1.377  12.216  0.0193 -0.2824 -0.1053
12047TIP3    H157556   5.190   1.422  12.132 -1.4842 -0.1458 -0.2247
12047TIP3    H257557   5.182   1.284  12.193 -5.6983 -0.3203 -1.0581
12048TIP3   OH257558   5.249   6.680  16.717  0.6963  0.0630  0.0100
12048TIP3    H157559   5.299   6.668  16.637  1.6556  0.7930  0.4821
12048TIP3    H257560   5.290   6.621  16.780  1.2716  1.0018  0.5303
12049TIP3   OH257561   1.355   2.871   2.633 -0.1448  0.1777  0.1967
12049TIP3    H157562   1.327   2.951   2.677 -0.4055  0.0574  0.2502
12049TIP3    H257563   1.450   2.881   2.624  0.0627 -0.2537  1.7318
12050TIP3   OH257564   3.747   6.773  11.378 -0.4070 -0.1041 -0.6910
12050TIP3    H157565   3.694   6.830  11.434  1.6020 -1.4812  2.8052
12050TIP3    H257566   3.695   6.693  11.370  0.3511 -0.8547  1.4104
12051TIP3   OH257567   2.821   3.848   2.899  0.1680  0.2782 -0.0512
12051TIP3    H157568   2.913   3.836   2.924  0.0965 -1.4289 -0.5212
12051TIP3    H257569   2.810   3.792   2.822 -1.4516 -0.0964  0.4307
12052TIP3   OH257570   0.675   2.472   0.157  0.8615  0.1056  0.1509
12052TIP3    H157571   0.694   2.452   0.065  1.1890 -0.2166  0.2825
12052TIP3    H257572   0.709   2.396   0.205 -1.7279 -0.9877  0.3150
12053TIP3   OH257573   2.797   5.685   0.418  0.2614 -0.0490 -0.2953
12053TIP3    H157574   2.714   5.693   0.371 -0.0343  0.1688  0.2547
12053TIP3    H257575   2.771   5.684   0.510  0.8475 -0.3085 -0.1388
12054TIP3   OH257576   1.922   4.982  15.131  0.4084 -0.2110  0.0898
12054TIP3    H157577   1.992   4.949  15.188  0.4030 -0.2449  0.0762
12054TIP3    H257578   1.874   4.904  15.103 -0.4615 -0.0780  1.1845
12055TIP3   OH257579   3.848   1.262   5.981 -0.0405 -0.1314  0.4257
12055TIP3    H157580   3.826   1.246   6.072 -1.9641  1.6786  0.2993
12055TIP3    H257581   3.866   1.175   5.945  1.2990 -0.7993  2.6433
12056TIP3   OH257582   4.808   6.231  11.541 -0.1289  0.1727 -0.4257
12056TIP3    H157583   4.884   6.196  11.587 -0.0315  0.0685 -0.6668
12056TIP3    H257584   4.841   6.310  11.497 -0.3756  0.6300  0.2095
12057TIP3   OH257585   1.400   1.603   6.107 -0.0451  0.1322 -0.8271
12057TIP3    H157586   1.475   1.608   6.049  0.4963  1.8923 -0.0179
12057TIP3    H257587   1.436   1.574   6.191 -0.5344 -0.6341 -0.8774
12058TIP3   OH257588   4.998   0.882   2.427 -0.3038  0.1803 -0.0381
12058TIP3    H157589   4.928   0.819   2.443  1.4282 -1.4470  1.2039
12058TIP3    H257590   4.992   0.901   2.333 -2.8667  0.6391  0.1784
12059TIP3   OH257591   2.968   2.365  10.617 -0.0203  0.3784  0.7677
12059TIP3    H157592   3.053   2.333  10.587 -0.0880  1.4546 -0.6394
12059TIP3    H257593   2.988   2.447  10.663 -0.3059  0.7504  0.2390
12060TIP3   OH257594   3.336   1.071  13.097  0.3451  0.0118 -0.4198
12060TIP3    H157595   3.360   1.132  13.027  1.0632 -0.6000 -0.7126
12060TIP3    H257596   3.402   1.002  13.092 -0.5021 -0.8261 -0.1411
12061TIP3   OH257597   0.026   6.404   3.599  0.7249 -0.1054 -0.1671
12061TIP3    H157598  -0.010   6.320   3.626 -1.3795  0.8252  0.0090
12061TIP3    H257599   0.116   6.384   3.572  0.5260 -2.2519  0.6642
12062TIP3   OH257600   5.154   1.773  15.561  0.3710 -0.6525 -0.8132
12062TIP3    H157601   5.096   1.828  15.614 -0.2341 -0.7971 -1.3071
12062TIP3    H257602   5.094   1.723  15.506  0.9601 -1.0833 -1.0640
12063TIP3   OH257603   5.630   2.064   1.470 -0.8974 -0.3970  0.1748
12063TIP3    H157604   5.553   2.016   1.501 -1.4360 -0.5610 -1.3809
12063TIP3    H257605   5.595   2.140   1.425 -0.0717  0.6818  1.3003
12064TIP3   OH257606   0.451   6.745   4.152 -0.4553 -0.6495 -0.8686
12064TIP3    H157607   0.506   6.666   4.154  1.6676  0.8033 -0.0505
12064TIP3    H257608   0.459   6.783   4.239 -0.4535  1.1371 -1.6182
12065TIP3   OH257609   6.405   2.606  14.702  0.2649 -0.0018 -0.0050
12065TIP3    H157610   6.368   2.684  14.662  2.0453  0.0632 -1.6276
12065TIP3    H257611   6.385   2.535  14.641  0.3281 -0.4596  0.4999
12066TIP3   OH257612   2.300   6.227   3.617 -0.5202  0.4448 -0.3342
12066TIP3    H157613   2.394   6.245   3.612 -0.3617  0.3602  1.7649
12066TIP3    H257614   2.263   6.270   3.540  0.6660  4.4836  1.2228
12067TIP3   OH257615   3.278   0.787  16.137 -0.0483  0.4605 -0.1995
12067TIP3    H157616   3.289   0.694  16.155  0.0136  0.7919  1.4754
12067TIP3    H257617   3.196   0.811  16.180  0.6686  1.5051  0.6039
12068TIP3   OH257618   4.599   5.630  13.568 -0.8168 -0.4949 -0.1733
12068TIP3    H157619   4.657   5.682  13.512 -3.1637  1.3367 -1.0206
12068TIP3    H257620   4.648   5.550  13.587  0.3710 -0.8235 -4.2241
12069TIP3   OH257621   6.562   1.468  14.064 -0.9199  0.3117 -0.1245
12069TIP3    H157622   6.617   1.461  13.986 -0.8719 -0.6508 -0.0115
12069TIP3    H257623   6.482   1.420  14.042  0.8914 -3.9234  1.9829
12070TIP3   OH257624   2.396   6.305  13.365 -0.6058 -0.6421  0.3137
12070TIP3    H157625   2.368   6.227  13.413 -0.6786 -0.6977  0.1803
12070TIP3    H257626   2.488   6.315  13.387 -0.6155 -0.7222  0.3913
12071TIP3   OH257627   4.665   1.301   2.402 -0.5516  0.1461 -0.1289
12071TIP3    H157628   4.709   1.225   2.365  0.6918  1.9503 -2.4635
12071TIP3    H257629   4.578   1.299   2.363 -1.3046 -1.2760  1.5386
12072TIP3   OH257630   5.190   2.693  12.105  0.2598 -0.0772  0.4546
12072TIP3    H157631   5.224   2.775  12.069  0.6725 -0.0042  0.9969
12072TIP3    H257632   5.167   2.641  12.028  0.7673  0.2313  0.0896
12073TIP3   OH257633   3.229   1.916  12.592 -0.3555 -0.1083  0.3024
12073TIP3    H157634   3.243   1.846  12.655  1.1962  0.9811  1.2187
12073TIP3    H257635   3.188   1.986  12.644 -1.2126 -0.0644 -0.4304
12074TIP3   OH257636   3.272   4.683   0.716 -0.1389  0.1765  0.4853
12074TIP3    H157637   3.264   4.778   0.714  0.8794  0.2454 -1.0189
12074TIP3    H257638   3.274   4.658   0.623 -1.7599 -1.4303  0.8524
12075TIP3   OH257639   2.805   4.258  11.876 -0.1781 -0.6551  0.5237
12075TIP3    H157640   2.832   4.193  11.810 -0.8360 -0.6517  0.2506
12075TIP3    H257641   2.785   4.336  11.825 -2.1616 -1.1050  0.5606
12076TIP3   OH257642   6.392   2.704  11.699  0.0186 -0.0485  0.2874
12076TIP3    H157643   6.448   2.662  11.635 -0.6121 -0.6038  0.0944
12076TIP3    H257644   6.342   2.769  11.649 -0.8272 -0.8211  0.1188
12077TIP3   OH257645   0.796   0.648  12.908  0.4081  0.2506  0.2121
12077TIP3    H157646   0.872   0.680  12.859  0.0289  0.0194 -0.5415
12077TIP3    H257647   0.813   0.674  12.998  0.9936  0.9194 -0.0827
12078TIP3   OH257648   0.712   0.894   1.139  0.5665  0.0676 -0.5760
12078TIP3    H157649   0.650   0.848   1.083 -1.9051 -0.1667  2.1682
12078TIP3    H257650   0.719   0.982   1.101 -1.7591  0.2029 -0.7803
12079TIP3   OH257651   2.145   5.370  13.885 -0.1397 -0.2660  0.2046
12079TIP3    H157652   2.115   5.392  13.973 -1.1080 -2.4352  0.4313
12079TIP3    H257653   2.210   5.438  13.864 -0.3259  0.5926  2.3391
12080TIP3   OH257654   2.242   5.268   5.515  0.3804 -0.0808  0.3902
12080TIP3    H157655   2.194   5.334   5.465 -2.2521 -2.4354 -0.3193
12080TIP3    H257656   2.217   5.285   5.606  1.2701  1.1007  0.4271
12081TIP3   OH257657   3.852   6.303  15.582  0.1299  0.1745  0.0843
12081TIP3    H157658   3.770   6.308  15.630 -0.1181  0.8586 -0.4131
12081TIP3    H257659   3.842   6.227  15.525  0.3630 -0.5419  0.9839
12082TIP3   OH257660   1.119   1.419  16.182  0.1627  0.4774 -0.2285
12082TIP3    H157661   1.035   1.427  16.227 -0.1321  0.3320 -0.7423
12082TIP3    H257662   1.122   1.495  16.123  0.6874  0.8446  0.2612
12083TIP3   OH257663   3.371   5.621   0.210 -0.0968 -0.2900 -0.1826
12083TIP3    H157664   3.441   5.593   0.268  0.2747 -1.1476 -1.0338
12083TIP3    H257665   3.398   5.591   0.123 -1.0781  0.1814 -0.6624
12084TIP3   OH257666   0.051   4.597  17.101 -0.1402  0.1908 -0.7020
12084TIP3    H157667   0.079   4.576  17.012 -1.8890 -0.2833 -1.1649
12084TIP3    H257668   0.044   4.693  17.102  2.5039  0.4051 -0.2437
12085TIP3   OH257669   1.487   2.929  12.501 -0.0158 -0.0156 -0.5307
12085TIP3    H157670   1.405   2.977  12.516  0.4810  0.6800  0.0099
12085TIP3    H257671   1.550   2.997  12.479  1.2559 -0.1471  2.5206
12086TIP3   OH257672   6.001   5.892   1.442  0.2334  0.2726  0.3019
12086TIP3    H157673   6.085   5.903   1.487  1.5980 -0.0262 -2.1088
12086TIP3    H257674   5.981   5.980   1.408 -0.7704  0.4864  1.4010
12087TIP3   OH257675   6.771   3.855  17.149  0.1632  0.4953  0.3462
12087TIP3    H157676   6.789   3.803  17.227  0.5473  0.7527  0.4341
12087TIP3    H257677   6.838   3.924  17.151  0.2269  0.4524 -0.2501
12088TIP3   OH257678   5.433   3.018   6.849  0.4154  0.0072 -0.0861
12088TIP3    H157679   5.453   2.936   6.804 -0.0187  1.1175 -2.3829
12088TIP3    H257680   5.481   3.084   6.799 -3.1765  1.7913 -1.3364
12089TIP3   OH257681   4.940   0.931   2.153  0.7570 -0.6591 -0.0837
12089TIP3    H157682   4.904   0.843   2.143 -2.7939  0.7276 -0.3658
12089TIP3    H257683   4.970   0.954   2.065  0.2347 -1.0053 -0.3597
12090TIP3   OH257684   5.829   0.541  12.229 -0.6001  0.1087  0.3419
12090TIP3    H157685   5.920   0.522  12.209 -0.3472  1.9792 -0.3947
12090TIP3    H257686   5.828   0.565  12.322 -0.1001  1.4966 -0.0051
12091TIP3   OH257687   4.717   6.645  13.779 -0.1766  0.1102 -0.2866
12091TIP3    H157688   4.633   6.646  13.825  0.3604 -1.0662  0.7357
12091TIP3    H257689   4.697   6.608  13.693 -0.8367  0.5495 -0.3271
12092TIP3   OH257690   4.365   0.759   5.714 -0.5640 -0.4719 -0.9149
12092TIP3    H157691   4.308   0.684   5.698 -2.4574  0.7963 -0.2897
12092TIP3    H257692   4.348   0.818   5.642 -1.6183  0.8350  0.3816
12093TIP3   OH257693   3.128   1.202   2.788  0.6819  0.2151  0.4245
12093TIP3    H157694   3.123   1.117   2.744  0.3042 -0.1048  1.0591
12093TIP3    H257695   3.203   1.245   2.749 -0.6245  0.6355 -1.7171
12094TIP3   OH257696   1.153   0.229  14.267 -0.1204 -0.3030 -0.0424
12094TIP3    H157697   1.142   0.169  14.341 -1.0456 -2.4256 -1.8727
12094TIP3    H257698   1.221   0.189  14.213 -0.5053  0.4754 -1.1100
12095TIP3   OH257699   1.427   5.993   1.739  0.3313 -0.3819 -0.4203
12095TIP3    H157700   1.380   5.937   1.678  0.6044 -1.0037 -0.0598
12095TIP3    H257701   1.448   6.072   1.688  0.1665 -0.7131 -0.9978
12096TIP3   OH257702   2.519   6.481  13.995  0.5442 -0.3953  0.1555
12096TIP3    H157703   2.500   6.390  14.015 -0.1856 -0.4007 -0.5445
12096TIP3    H257704   2.518   6.486  13.899  1.1186  0.2285  0.1766
12097TIP3   OH257705   3.415   3.567   2.157 -0.3482 -0.1337 -0.1570
12097TIP3    H157706   3.488   3.532   2.208 -0.6711 -0.2631  0.2154
12097TIP3    H257707   3.337   3.544   2.207 -0.5912  0.7845 -0.0966
12098TIP3   OH257708   6.626   2.601  11.523 -0.1209  0.2494  0.9672
12098TIP3    H157709   6.700   2.627  11.577 -1.2148  1.6279  1.8477
12098TIP3    H257710   6.657   2.524  11.475  1.3891 -0.0616  2.3897
12099TIP3   OH257711   2.229   1.459   3.742  0.4857 -0.0991  0.7409
12099TIP3    H157712   2.180   1.522   3.689  2.6822  1.1198  0.1055
12099TIP3    H257713   2.232   1.380   3.688  1.0760  0.5189 -0.1273
12100TIP3   OH257714   2.293   0.413   5.495  0.9287 -0.2158  0.3529
12100TIP3    H157715   2.212   0.463   5.495  0.5899 -0.7189  2.0600
12100TIP3    H257716   2.267   0.323   5.479  1.1328 -0.3747  0.8734
12101TIP3   OH257717   0.164   3.970  16.792 -0.2441 -0.4139  0.2913
12101TIP3    H157718   0.113   3.994  16.715 -0.8853  0.3635  0.9516
12101TIP3    H257719   0.170   3.874  16.788 -2.4692 -0.5797  0.6497
12102TIP3   OH257720   5.285   5.649  15.717  0.6215 -0.3612 -0.2383
12102TIP3    H157721   5.275   5.565  15.671 -0.6860 -0.0165 -0.5954
12102TIP3    H257722   5.293   5.625  15.809  1.7238 -0.9668 -0.4841
12103TIP3   OH257723   1.615   2.518   2.990 -0.6991  0.4638 -0.0725
12103TIP3    H157724   1.680   2.449   3.004 -1.3050 -0.3672 -1.2749
12103TIP3    H257725   1.665   2.599   2.989 -0.0878  0.1608  2.3749
12104TIP3   OH257726   5.263   3.448  12.617  0.0865 -0.0803  0.2524
12104TIP3    H157727   5.331   3.449  12.684  1.0203 -1.2168 -0.6628
12104TIP3    H257728   5.259   3.357  12.588 -3.3051 -0.5188  1.7699
12105TIP3   OH257729   5.025   3.185   5.923  0.1636  0.4047 -0.0058
12105TIP3    H157730   5.078   3.189   6.002  0.3908 -0.0068 -0.1338
12105TIP3    H257731   4.970   3.107   5.936 -1.4288  1.6251  0.7657
12106TIP3   OH257732   0.279   6.396  12.156 -0.8700  0.2470 -0.2590
12106TIP3    H157733   0.202   6.453  12.146 -1.7546 -0.9883 -0.5042
12106TIP3    H257734   0.352   6.450  12.125 -1.4778  1.7767  0.8678
12107TIP3   OH257735   4.729   3.663  11.663  0.5535 -0.1150  0.4572
12107TIP3    H157736   4.700   3.687  11.751  1.2398  0.6732  0.4799
12107TIP3    H257737   4.799   3.726  11.643 -0.4965  0.5533 -1.1776
12108TIP3   OH257738   6.425   0.307  15.857 -0.3330  0.4764  0.5821
12108TIP3    H157739   6.486   0.350  15.798 -0.1568 -0.9205 -0.2753
12108TIP3    H257740   6.436   0.352  15.941 -0.1812  2.1013 -0.2875
12109TIP3   OH257741   4.139   1.158  14.740 -0.4330 -0.0037 -0.0875
12109TIP3    H157742   4.200   1.194  14.805 -1.9699  1.1381  0.7410
12109TIP3    H257743   4.179   1.180  14.656  0.2977  0.7448  0.4443
12110TIP3   OH257744   4.531   6.498   3.813  0.5916  0.0858  0.3248
12110TIP3    H157745   4.533   6.434   3.742  2.6442  1.8045 -1.2627
12110TIP3    H257746   4.549   6.448   3.892  1.0036 -1.4575 -0.7376
12111TIP3   OH257747   1.774   4.854  14.188 -0.0788  0.1753  0.1334
12111TIP3    H157748   1.755   4.780  14.246 -0.6644  0.6713  0.5862
12111TIP3    H257749   1.764   4.931  14.244 -0.1034  0.6301 -0.4937
12112TIP3   OH257750   4.658   3.254  14.482  0.0928 -0.0141  0.2601
12112TIP3    H157751   4.712   3.192  14.433 -0.0419 -0.7652  1.0662
12112TIP3    H257752   4.655   3.220  14.571  1.4245  2.0528  1.1426
12113TIP3   OH257753   0.516   0.432   3.594  0.1452 -0.1113 -0.3233
12113TIP3    H157754   0.538   0.523   3.576  0.9084 -0.0491  0.8263
12113TIP3    H257755   0.425   0.423   3.566  0.0683  0.9970 -0.4584
12114TIP3   OH257756   2.452   3.647   1.837  0.2689 -0.3693 -0.4265
12114TIP3    H157757   2.417   3.677   1.921  1.7823  1.5144 -0.4258
12114TIP3    H257758   2.376   3.611   1.790 -1.2556  1.6899  0.3943
12115TIP3   OH257759   2.668   1.480  11.967  0.6374 -0.6488  0.1973
12115TIP3    H157760   2.650   1.537  12.042  0.0925 -1.3810  0.6232
12115TIP3    H257761   2.762   1.489  11.952  0.5131  0.5663  0.1011
12116TIP3   OH257762   6.745   6.434   4.535 -0.2453  0.2624  0.0472
12116TIP3    H157763   6.815   6.369   4.536  0.4156  0.9502 -0.4919
12116TIP3    H257764   6.777   6.504   4.593  0.9713  2.0524 -2.7122
12117TIP3   OH257765   2.067   5.362   0.262  0.1013  0.1805 -0.2603
12117TIP3    H157766   2.141   5.422   0.276  0.2967  0.2249 -1.4521
12117TIP3    H257767   2.021   5.398   0.187 -2.2274  1.2133  1.5737
12118TIP3   OH257768   5.125   1.639   0.409 -0.0557  0.4048  0.1813
12118TIP3    H157769   5.044   1.590   0.420  0.6337 -0.6450  0.6520
12118TIP3    H257770   5.163   1.644   0.497  0.6728  0.3687 -0.1220
12119TIP3   OH257771   3.008   6.028  16.711  0.0044 -0.0061 -0.0040
12119TIP3    H157772   3.028   5.935  16.711  0.8473  0.1654  0.2957
12119TIP3    H257773   2.913   6.033  16.719  0.1173 -0.8099  2.0666
12120TIP3   OH257774   5.322   1.836  11.846  0.2295  0.0841 -0.5981
12120TIP3    H157775   5.405   1.791  11.859  0.4474  0.0493 -2.0979
12120TIP3    H257776   5.343   1.929  11.857  0.2613  0.0002  0.0522
12121TIP3   OH257777   3.353   6.450   4.269  0.1812  0.7089  0.2416
12121TIP3    H157778   3.401   6.370   4.253 -0.4472  0.8424 -2.5466
12121TIP3    H257779   3.279   6.423   4.323  1.2172 -0.1612  1.2471
12122TIP3   OH257780   1.981   6.173  16.248  0.1309  0.1315  0.0608
12122TIP3    H157781   1.964   6.079  16.240  0.7664 -0.3317  3.3923
12122TIP3    H257782   1.905   6.214  16.206 -1.1297 -1.8879  0.2606
12123TIP3   OH257783   5.630   1.113   3.066 -0.5847  0.2922 -0.3369
12123TIP3    H157784   5.638   1.027   3.108  0.0175  0.2373 -0.5653
12123TIP3    H257785   5.708   1.120   3.011 -0.5263  1.0848 -0.1484
12124TIP3   OH257786   4.025   6.686   3.029  0.1681 -0.1666  0.2723
12124TIP3    H157787   4.054   6.694   3.120 -0.5039  1.0764  0.3892
12124TIP3    H257788   4.046   6.771   2.990  1.1343 -0.9468 -0.9360
12125TIP3   OH257789   0.560   5.157   2.116 -0.0103  0.0163  0.0398
12125TIP3    H157790   0.579   5.182   2.026 -2.1601  0.6768 -0.2536
12125TIP3    H257791   0.607   5.074   2.128  2.0441  0.9919 -0.9823
12126TIP3   OH257792   6.188   5.836  15.237 -0.2410 -0.5659 -0.2876
12126TIP3    H157793   6.147   5.780  15.172 -2.2570 -0.1172  0.5600
12126TIP3    H257794   6.127   5.909  15.248  0.7260  0.0565  1.1032
12127TIP3   OH257795   3.467   5.493   4.360  0.3430 -0.2230 -0.6457
12127TIP3    H157796   3.512   5.550   4.422  1.6113 -1.9300  0.0459
12127TIP3    H257797   3.528   5.484   4.287  0.7225 -1.7173 -0.1673
12128TIP3   OH257798   4.314   6.103   2.968 -0.2874  0.0839  0.1129
12128TIP3    H157799   4.301   6.047   2.891  0.1637 -0.7462  0.6310
12128TIP3    H257800   4.395   6.150   2.950  0.9328 -1.6381  0.9709
12129TIP3   OH257801   4.911   3.400  13.167  0.4219  0.1308  0.0002
12129TIP3    H157802   4.920   3.495  13.175 -2.0788  0.4189 -0.4334
12129TIP3    H257803   4.983   3.365  13.219  0.0952  2.2513  1.9339
12130TIP3   OH257804   3.578   0.277  12.864  0.0712  0.2238 -0.3734
12130TIP3    H157805   3.661   0.324  12.873  0.5872 -0.4731 -1.4656
12130TIP3    H257806   3.559   0.245  12.953  1.6450 -0.7563 -0.3803
12131TIP3   OH257807   4.954   5.602  11.717  0.4932  0.2934  1.0817
12131TIP3    H157808   5.004   5.680  11.739 -1.3913  1.6626  0.6516
12131TIP3    H257809   4.905   5.626  11.638 -0.3614 -1.1925  1.1299
12132TIP3   OH257810   4.239   5.327  15.501 -0.4305  0.0245 -0.0048
12132TIP3    H157811   4.147   5.351  15.487 -0.5983 -0.2903  0.5390
12132TIP3    H257812   4.244   5.305  15.594 -0.0017 -0.8068 -0.2197
12133TIP3   OH257813   2.052   3.903  16.621  0.5293 -0.3462 -0.3064
12133TIP3    H157814   2.038   3.817  16.582  0.5125 -0.6711  0.4147
12133TIP3    H257815   2.147   3.907  16.636  0.6066 -0.0076 -0.8718
12134TIP3   OH257816   0.661   1.687  15.945  0.0059  0.4303 -0.0834
12134TIP3    H157817   0.594   1.740  15.988  0.4724  1.5022 -0.6375
12134TIP3    H257818   0.646   1.598  15.976 -2.1234  0.5265 -0.7314
12135TIP3   OH257819   0.608   5.232  13.266 -0.0944 -0.3873 -0.1728
12135TIP3    H157820   0.657   5.182  13.331  2.1309  0.7297 -0.9324
12135TIP3    H257821   0.585   5.313  13.312 -0.1464 -0.3930 -0.1891
12136TIP3   OH257822   3.979   4.653  12.707 -0.2711  0.7658  0.1123
12136TIP3    H157823   3.921   4.577  12.719 -1.2468  1.3699 -0.6575
12136TIP3    H257824   4.035   4.653  12.785 -0.0906 -0.8828  0.0151
12137TIP3   OH257825   2.277   2.446  12.648  0.3058  0.2480  0.4692
12137TIP3    H157826   2.259   2.353  12.662  0.4675 -0.0275 -1.1172
12137TIP3    H257827   2.337   2.449  12.573  3.3050  1.4154  2.7775
12138TIP3   OH257828   5.818   4.662   3.815  0.5277  0.4190  0.5385
12138TIP3    H157829   5.798   4.654   3.722 -0.2004  2.7109  0.4704
12138TIP3    H257830   5.739   4.629   3.859 -0.1809  1.7732  0.3101
12139TIP3   OH257831   5.935   1.568   6.675 -0.0761  0.1071 -0.3341
12139TIP3    H157832   5.900   1.638   6.729 -0.4536  0.2469 -0.7561
12139TIP3    H257833   5.859   1.534   6.627  0.1936 -0.2424 -0.5215
12140TIP3   OH257834   0.439   0.011  10.385  0.0538  0.1476  0.4704
12140TIP3    H157835   0.465  -0.036  10.306  0.5689 -0.9959  1.3150
12140TIP3    H257836   0.344  -0.000  10.390 -0.2071  1.6104 -0.8666
12141TIP3   OH257837   0.764   4.657  13.215 -0.0280  0.0803  0.0778
12141TIP3    H157838   0.796   4.741  13.183 -0.7050 -0.1877 -1.3604
12141TIP3    H257839   0.671   4.671  13.232  0.3131  0.2011  1.9266
12142TIP3   OH257840   6.599   4.179   3.304  0.3170  0.2111 -0.3276
12142TIP3    H157841   6.617   4.248   3.366 -0.5685 -0.5201  0.7692
12142TIP3    H257842   6.525   4.131   3.342  0.4442 -0.8843 -1.4158
12143TIP3   OH257843   3.496   1.631  11.772 -0.3446 -0.2625  0.3439
12143TIP3    H157844   3.541   1.577  11.837  0.4327 -1.2245 -0.9680
12143TIP3    H257845   3.553   1.628  11.695  0.5246  3.6794  0.7140
12144TIP3   OH257846   5.994   0.591   4.336  0.8505 -0.1199 -0.5471
12144TIP3    H157847   5.918   0.646   4.319  0.5241 -0.3761  0.0404
12144TIP3    H257848   5.971   0.543   4.416  1.0874 -1.1656 -1.0917
12145TIP3   OH257849   3.770   3.091  10.668  0.3235 -0.0367  0.0726
12145TIP3    H157850   3.724   3.016  10.705 -2.1807  1.6125  0.3691
12145TIP3    H257851   3.834   3.116  10.735 -1.0403  0.0913  1.3440
12146TIP3   OH257852   4.843   4.312   5.517  0.5006 -0.0645 -0.2119
12146TIP3    H157853   4.893   4.248   5.567  1.8765  0.9222 -0.2864
12146TIP3    H257854   4.786   4.260   5.460 -0.5890 -1.1948  1.8720
12147TIP3   OH257855   2.247   2.620  15.230  0.4538  0.0908  0.6697
12147TIP3    H157856   2.286   2.700  15.265  1.8148 -1.4120  2.7035
12147TIP3    H257857   2.278   2.616  15.139  1.6636  1.0661  1.0300
12148TIP3   OH257858   1.538   1.898   2.939  0.5385  0.1223 -0.1240
12148TIP3    H157859   1.633   1.888   2.940  0.3763 -1.8325  2.9564
12148TIP3    H257860   1.504   1.810   2.958 -1.8631  0.8611 -0.8213
12149TIP3   OH257861   6.708   3.689  13.881  0.1369 -0.1866  0.3144
12149TIP3    H157862   6.718   3.784  13.880  0.0420 -0.1755  0.4834
12149TIP3    H257863   6.764   3.659  13.809 -1.6524  0.1807 -1.2626
12150TIP3   OH257864   4.276   6.157  15.650 -0.2273  0.1591 -0.0142
12150TIP3    H157865   4.217   6.230  15.632 -0.5287 -0.3117 -1.0006
12150TIP3    H257866   4.227   6.079  15.624  0.2384 -0.3672  0.6476
12151TIP3   OH257867   6.627   3.239   5.876 -0.3662  0.3769 -0.0390
12151TIP3    H157868   6.606   3.332   5.868  0.1179  0.3942 -1.1370
12151TIP3    H257869   6.692   3.235   5.946 -0.7193  0.8138  0.3176
12152TIP3   OH257870   5.863   4.689   3.368  0.2554 -0.1703 -0.7016
12152TIP3    H157871   5.895   4.644   3.445 -0.9337 -0.2187 -0.2206
12152TIP3    H257872   5.812   4.623   3.321  1.9057 -0.4648 -2.1322
12153TIP3   OH257873   4.138   2.155   5.376  0.7846 -0.4610  0.9679
12153TIP3    H157874   4.051   2.158   5.415  0.5542 -0.9732  0.4950
12153TIP3    H257875   4.191   2.211   5.432 -0.7123  2.9980 -0.9229
12154TIP3   OH257876   6.440   4.229   2.445 -0.0466 -0.7411 -0.4488
12154TIP3    H157877   6.435   4.159   2.380  0.5475 -1.3373  0.1457
12154TIP3    H257878   6.528   4.222   2.482 -0.3215 -0.3018  0.3070
12155TIP3   OH257879   1.703   3.037   0.276 -0.0871 -0.3924  0.3658
12155TIP3    H157880   1.719   3.102   0.346 -1.1408 -1.1551  1.3200
12155TIP3    H257881   1.670   3.089   0.203  0.9421  0.4057  0.4487
12156TIP3   OH257882   0.724   3.987   5.887  0.1512 -0.7063 -0.1580
12156TIP3    H157883   0.718   4.079   5.911 -1.1137 -0.8526  0.0932
12156TIP3    H257884   0.768   3.946   5.961  1.3450 -0.1958 -0.5706
12157TIP3   OH257885   3.422   3.405  15.331  0.0425 -0.0480  0.1073
12157TIP3    H157886   3.334   3.385  15.362  0.1872  0.2693  0.7312
12157TIP3    H257887   3.463   3.451  15.404  0.9556 -0.8091  0.0790
12158TIP3   OH257888   4.786   5.261  12.268  0.3673  0.3885  0.3341
12158TIP3    H157889   4.704   5.250  12.220  0.7859 -0.5536 -0.1733
12158TIP3    H257890   4.802   5.356  12.268  0.3855  0.3967 -1.4201
12159TIP3   OH257891   4.731   6.735   3.476 -0.2020  0.0159  0.3603
12159TIP3    H157892   4.752   6.661   3.419 -0.4397  0.5188 -0.3828
12159TIP3    H257893   4.815   6.762   3.512  0.1181  0.4821 -0.7126
12160TIP3   OH257894   5.481   0.693  12.381  0.7201 -0.1411 -0.0340
12160TIP3    H157895   5.545   0.737  12.324  0.9501 -0.2688  0.1258
12160TIP3    H257896   5.523   0.612  12.407  0.3227 -0.4222 -0.2660
12161TIP3   OH257897   1.389   4.219  16.990 -0.2864 -0.3877  1.1988
12161TIP3    H157898   1.459   4.181  16.937 -0.2621 -0.0468  0.9840
12161TIP3    H257899   1.361   4.148  17.048 -1.4482 -1.2962 -0.4229
12162TIP3   OH257900   1.738   3.489   1.598  0.6257 -0.1408  0.1945
12162TIP3    H157901   1.794   3.411   1.601  1.0896  0.0511 -2.1269
12162TIP3    H257902   1.664   3.468   1.654  1.9734 -1.2620  1.5947
12163TIP3   OH257903   3.220   1.764  12.844  0.2819 -0.3092  0.3506
12163TIP3    H157904   3.238   1.825  12.915  1.8329 -0.1993 -0.1222
12163TIP3    H257905   3.277   1.689  12.862  0.6629 -0.2876 -0.7466
12164TIP3   OH257906   2.468   3.933   0.496  0.1013 -0.3549  0.3709
12164TIP3    H157907   2.426   3.849   0.478  0.1518 -0.5477  1.1146
12164TIP3    H257908   2.396   3.991   0.521  0.2750 -0.7079  1.7246
12165TIP3   OH257909   0.887   0.790  16.754 -0.2233  0.4543 -0.0423
12165TIP3    H157910   0.866   0.879  16.780 -0.0413  0.5022 -0.0591
12165TIP3    H257911   0.802   0.750  16.735 -0.4219  0.1374  1.5026
12166TIP3   OH257912   2.205   5.164   1.871  0.2609 -0.0852  0.2290
12166TIP3    H157913   2.280   5.220   1.891 -0.0281  0.5455 -0.4431
12166TIP3    H257914   2.133   5.203   1.920  0.7667 -1.7985  2.4192
12167TIP3   OH257915   3.687   0.879   5.513 -0.1606 -0.0246 -0.0123
12167TIP3    H157916   3.759   0.825   5.546 -0.8322 -0.4978  0.7093
12167TIP3    H257917   3.628   0.816   5.471  0.9672  0.6387 -2.6681
12168TIP3   OH257918   3.952   2.411   4.317  0.9326 -0.3523 -0.5755
12168TIP3    H157919   3.859   2.431   4.330  0.6747 -0.9357 -1.5074
12168TIP3    H257920   3.997   2.459   4.387 -0.1265 -0.5803  0.2608
12169TIP3   OH257921   0.367   6.352  10.238 -0.2374 -0.0847  0.4994
12169TIP3    H157922   0.278   6.326  10.261 -0.4205  0.9112  0.9435
12169TIP3    H257923   0.422   6.281  10.271 -0.9586 -1.3363 -0.9212
12170TIP3   OH257924   1.233   2.372  16.006  0.1060 -0.0413 -0.0278
12170TIP3    H157925   1.219   2.318  15.929  0.2202  1.1031 -0.8581
12170TIP3    H257926   1.295   2.440  15.978 -0.8086  1.1248  0.6999
12171TIP3   OH257927   1.398   1.589   4.196 -0.7056 -0.0566 -0.1101
12171TIP3    H157928   1.444   1.668   4.170 -0.0705 -0.4278 -0.1419
12171TIP3    H257929   1.330   1.577   4.130 -1.1585  0.7658  0.2113
12172TIP3   OH257930   4.032   4.482  11.047  0.6275  0.2606 -0.7294
12172TIP3    H157931   4.094   4.548  11.080 -0.8292  0.9924  0.5774
12172TIP3    H257932   4.066   4.459  10.960  1.8739  1.7917 -0.6692
12173TIP3   OH257933   5.441   0.596  16.164  0.1626  0.6385  0.4253
12173TIP3    H157934   5.536   0.590  16.167  0.0743 -1.7067 -0.2369
12173TIP3    H257935   5.423   0.680  16.121  1.9381  0.6488 -0.3266
12174TIP3   OH257936   6.000   1.092   1.099 -0.5985  0.5825 -0.1365
12174TIP3    H157937   6.094   1.074   1.096 -0.7880 -0.6378  0.5620
12174TIP3    H257938   5.984   1.116   1.190 -1.1159 -0.1448 -0.0342
12175TIP3   OH257939   3.766   4.577  13.477  1.0006  0.2455 -0.7365
12175TIP3    H157940   3.753   4.491  13.517  1.6984  0.2834 -0.4107
12175TIP3    H257941   3.836   4.563  13.413  0.3306  0.3266 -1.4890
12176TIP3   OH257942   5.547   0.585  11.559  0.4178 -0.1101 -0.5856
12176TIP3    H157943   5.571   0.558  11.647  1.6075 -1.7266 -1.3832
12176TIP3    H257944   5.565   0.679  11.557  0.7253 -0.1334  0.7701
12177TIP3   OH257945   5.781   1.718   2.081  0.3644  0.2230 -0.0242
12177TIP3    H157946   5.786   1.801   2.128 -0.3405  0.8482 -1.0403
12177TIP3    H257947   5.861   1.671   2.106  1.2789  1.6420 -0.2543
12178TIP3   OH257948   0.021   0.608  15.079 -0.2894 -0.2642 -0.0963
12178TIP3    H157949  -0.058   0.662  15.072 -0.5807 -0.5257  1.0387
12178TIP3    H257950   0.011   0.542  15.011  0.0438  1.0626 -1.4808
12179TIP3   OH257951   2.186   1.740   4.887  0.3109 -0.1251  0.3006
12179TIP3    H157952   2.141   1.821   4.865  2.4607  1.2466  0.8758
12179TIP3    H257953   2.213   1.704   4.802  0.0247  0.1541  0.0918
12180TIP3   OH257954   5.216   1.193  12.739 -0.1042 -0.1418  0.2192
12180TIP3    H157955   5.174   1.140  12.807 -1.1040 -1.8232 -1.6396
12180TIP3    H257956   5.177   1.161  12.657  3.2452 -0.2827 -1.3951
12181TIP3   OH257957   0.957   1.255  10.987  0.7679  0.1591 -0.1165
12181TIP3    H157958   0.894   1.325  10.970  2.0128  0.7986 -2.3008
12181TIP3    H257959   0.913   1.175  10.958  0.7039  0.5262 -1.0574
12182TIP3   OH257960   0.322   4.384   3.076 -0.4341  0.1936  0.1562
12182TIP3    H157961   0.314   4.297   3.113 -2.8030 -0.4105 -1.6504
12182TIP3    H257962   0.324   4.442   3.152  0.1250 -1.3645  1.3489
12183TIP3   OH257963   1.937   4.405   4.372 -0.1022 -0.0163  0.0703
12183TIP3    H157964   1.947   4.311   4.357  0.6767  0.2061 -0.9491
12183TIP3    H257965   1.879   4.412   4.447 -0.3996 -1.3102 -0.0239
12184TIP3   OH257966   6.568   6.327   0.351 -1.0730 -0.0999  0.3027
12184TIP3    H157967   6.508   6.260   0.382 -2.6626  0.5686 -1.2991
12184TIP3    H257968   6.650   6.280   0.336 -2.1435 -1.6701 -0.7323
12185TIP3   OH257969   1.557   3.551   3.992 -0.6168 -0.2350 -0.6518
12185TIP3    H157970   1.552   3.493   4.068 -2.3936 -0.3019 -0.8068
12185TIP3    H257971   1.638   3.525   3.948 -0.0548 -0.8330  0.7017
12186TIP3   OH257972   4.914   1.915   1.646  0.0128  0.2699  0.2062
12186TIP3    H157973   4.934   2.008   1.655  0.0790  0.2655  0.1118
12186TIP3    H257974   4.903   1.902   1.552 -3.9149  0.9807  0.5071
12187TIP3   OH257975   2.438   6.077  15.246 -0.1490 -0.6778  0.1231
12187TIP3    H157976   2.474   6.081  15.335 -0.6154  0.8970  0.2557
12187TIP3    H257977   2.469   5.994  15.212  0.8660 -0.8540  1.4148
12188TIP3   OH257978   1.629   0.802  14.626  0.0893  0.0374 -0.3011
12188TIP3    H157979   1.541   0.766  14.620 -0.1345  0.6351 -0.6168
12188TIP3    H257980   1.650   0.798  14.720  0.8153 -2.6526 -0.5353
12189TIP3   OH257981   4.458   6.492  15.865  0.2577  0.4315 -0.0475
12189TIP3    H157982   4.402   6.553  15.913  2.6376  1.7439  1.1514
12189TIP3    H257983   4.431   6.502  15.773 -0.7038  1.8567  0.3700
12190TIP3   OH257984   5.842   3.582   2.918  0.1341 -0.6647  0.1369
12190TIP3    H157985   5.902   3.508   2.920  0.3895 -0.4414  0.8201
12190TIP3    H257986   5.814   3.592   3.009 -0.4990 -0.4102 -0.0847
12191TIP3   OH257987   1.104   6.709  13.483 -0.0031  0.0571 -0.3968
12191TIP3    H157988   1.133   6.650  13.414  0.7936  0.0688 -0.0880
12191TIP3    H257989   1.034   6.761  13.444 -1.9922 -2.3478 -0.1114
12192TIP3   OH257990   0.246   4.096   5.420 -0.6808 -0.1589 -0.2819
12192TIP3    H157991   0.199   4.054   5.348 -1.1640  1.1615 -0.7538
12192TIP3    H257992   0.224   4.188   5.412  0.6307  0.2372  0.5455
12193TIP3   OH257993   6.451   4.838   0.606 -0.4283  0.2303  0.3908
12193TIP3    H157994   6.359   4.820   0.625 -0.6753  0.9081 -0.1226
12193TIP3    H257995   6.468   4.923   0.648  0.0217  0.0083  0.6656
12194TIP3   OH257996   0.673   1.938  17.170 -0.2160  0.5700  0.4630
12194TIP3    H157997   0.678   1.843  17.159 -1.1517  0.3916  1.5216
12194TIP3    H257998   0.582   1.960  17.150  0.5399  1.5677 -2.1008
12195TIP3   OH257999   3.609   2.507   5.336 -0.0704  0.3974 -1.0740
12195TIP3    H158000   3.569   2.594   5.346 -0.8476 -0.2338  1.8149
12195TIP3    H258001   3.691   2.513   5.386 -0.6683 -0.8430  0.0716
12196TIP3   OH258002   0.193   2.726  13.313  0.0550  0.5377 -0.3130
12196TIP3    H158003   0.114   2.697  13.359  0.1066 -0.3831 -0.7839
12196TIP3    H258004   0.185   2.821  13.310 -0.2822  0.5589  0.9925
12197TIP3   OH258005   2.726   1.160   3.026  0.3609  0.0948  0.4631
12197TIP3    H158006   2.694   1.213   2.953 -0.5639 -0.0522  0.7528
12197TIP3    H258007   2.819   1.147   3.008  0.3840  1.0311 -0.0851
12198TIP3   OH258008   2.242   4.359   3.886 -0.3750  0.0993  0.5868
12198TIP3    H158009   2.323   4.407   3.904 -0.4959  1.0778 -1.2768
12198TIP3    H258010   2.177   4.400   3.943 -0.0974  1.0096  0.2604
12199TIP3   OH258011   1.831   3.254  12.893  0.5400  0.0870 -0.1366
12199TIP3    H158012   1.737   3.256  12.913  0.6186  1.6858  0.1274
12199TIP3    H258013   1.842   3.178  12.836 -1.2226  1.0095 -1.7494
12200TIP3   OH258014   6.129   5.073   3.599 -0.3331 -0.7347 -0.0947
12200TIP3    H158015   6.093   5.103   3.515  0.4937 -0.9363 -0.5290
12200TIP3    H258016   6.056   5.029   3.642 -1.4235  1.4633  0.3454
12201TIP3   OH258017   1.734   5.333   5.601  0.5933 -0.3383 -0.0798
12201TIP3    H158018   1.747   5.259   5.661 -2.1038 -0.4286  0.4419
12201TIP3    H258019   1.680   5.395   5.650 -0.2012  0.3566 -1.7977
12202TIP3   OH258020   3.774   5.531   2.163  0.4037 -0.1246  0.1986
12202TIP3    H158021   3.787   5.440   2.135 -2.6828  0.2166 -2.7090
12202TIP3    H258022   3.688   5.531   2.205 -0.4547  1.7319 -1.4444
12203TIP3   OH258023   1.000   4.898  14.850  0.1020 -1.0372 -0.6011
12203TIP3    H158024   1.094   4.908  14.832 -0.3622  1.8981 -1.6942
12203TIP3    H258025   0.969   4.837  14.782  1.0133 -1.1639 -0.9096
12204TIP3   OH258026   4.000   0.463   5.703 -0.6990 -0.2765 -0.0704
12204TIP3    H158027   3.988   0.369   5.691 -0.6993 -0.1936 -0.7447
12204TIP3    H258028   4.063   0.488   5.635  0.9126 -0.1492  1.4363
12205TIP3   OH258029   3.184   0.836  14.578  0.5875  0.4726 -0.0993
12205TIP3    H158030   3.274   0.859  14.555  0.4678  0.8799 -0.1563
12205TIP3    H258031   3.132   0.911  14.549 -0.1876 -1.1392 -3.0647
12206TIP3   OH258032   0.590   2.321   6.117 -0.2789  0.1818  0.1326
12206TIP3    H158033   0.527   2.304   6.186 -1.0219  1.6427 -0.1741
12206TIP3    H258034   0.669   2.275   6.145 -0.9857 -0.3571  1.2815
12207TIP3   OH258035   1.855   6.495  15.486 -0.0538  0.2681 -0.1138
12207TIP3    H158036   1.910   6.556  15.437  0.8866 -0.5770 -0.1130
12207TIP3    H258037   1.859   6.414  15.436 -1.0046  0.0839  0.0851
12208TIP3   OH258038   2.944   0.454  16.828  0.4715  0.7291  0.3149
12208TIP3    H158039   3.014   0.392  16.808  0.9140  0.6059  2.1451
12208TIP3    H258040   2.959   0.527  16.768  0.5560 -0.4728 -1.1566
12209TIP3   OH258041   6.610   5.564  10.775  0.5584  0.3217 -0.4104
12209TIP3    H158042   6.581   5.474  10.784  0.8151  0.5184  2.9324
12209TIP3    H258043   6.643   5.570  10.685  0.0981 -2.7601 -0.8306
12210TIP3   OH258044   1.398   5.554   3.358 -0.3424 -0.3030 -0.0622
12210TIP3    H158045   1.470   5.521   3.412 -0.3629  0.0968  0.2167
12210TIP3    H258046   1.351   5.476   3.329  0.0379 -0.5514 -0.0102
12211TIP3   OH258047   4.957   5.994   3.575  0.4918 -0.3938 -0.4713
12211TIP3    H158048   4.894   6.044   3.626  0.0216 -1.1108 -0.3324
12211TIP3    H258049   4.982   5.921   3.632  2.0965  0.3466 -0.2083
12212TIP3   OH258050   3.431   3.545  12.696 -0.2266 -0.0104  0.3486
12212TIP3    H158051   3.453   3.482  12.765 -0.2541 -0.9949 -0.5234
12212TIP3    H258052   3.404   3.490  12.622 -0.0356  1.0294 -0.4953
12213TIP3   OH258053   6.094   4.766  16.178 -0.0607 -0.0025 -0.2112
12213TIP3    H158054   6.022   4.709  16.203  2.3304 -2.5317  1.2194
12213TIP3    H258055   6.102   4.755  16.083 -0.7926 -0.6474 -0.2035
12214TIP3   OH258056   0.058   2.039   0.098  0.0807 -0.0436 -0.1655
12214TIP3    H158057   0.020   2.008   0.015  0.7903  0.0237 -0.5159
12214TIP3    H258058   0.121   2.106   0.072  1.8668 -1.5202  0.2765
12215TIP3   OH258059   3.139   1.337   4.517 -0.0428 -0.1118  0.2396
12215TIP3    H158060   3.161   1.351   4.425 -0.9122  0.2867  0.0859
12215TIP3    H258061   3.119   1.244   4.524 -0.3327 -0.0726 -0.0573
12216TIP3   OH258062   4.526   1.647  13.883  0.4071  0.0097 -0.3772
12216TIP3    H158063   4.453   1.605  13.929  0.5104  0.6459  0.3827
12216TIP3    H258064   4.543   1.590  13.808  0.7073 -1.4574  0.7716
12217TIP3   OH258065   4.843   5.250  12.730  0.3389 -0.5661  0.6979
12217TIP3    H158066   4.876   5.320  12.786  1.1181 -0.3114 -0.0811
12217TIP3    H258067   4.894   5.173  12.757  1.0325 -0.3444  0.0349
12218TIP3   OH258068   1.911   6.079  12.852 -0.1100 -0.1550  0.8518
12218TIP3    H158069   1.850   6.020  12.898  1.4441 -1.4920  1.2592
12218TIP3    H258070   1.901   6.163  12.896 -2.9756  0.1576 -0.2583
12219TIP3   OH258071   0.859   0.455   4.840  0.5522  0.2060  0.0810
12219TIP3    H158072   0.878   0.478   4.749 -2.0085 -0.0424 -0.5342
12219TIP3    H258073   0.910   0.376   4.856 -1.4945 -1.6260 -2.1825
12220TIP3   OH258074   1.229   0.804  13.876 -0.5818  0.1380 -0.7097
12220TIP3    H158075   1.277   0.860  13.814  1.5448 -0.1683  0.5952
12220TIP3    H258076   1.253   0.715  13.851  0.4639  0.0242  0.6741
12221TIP3   OH258077   5.464   6.607   3.071  0.5476  0.4985 -0.2912
12221TIP3    H158078   5.397   6.597   3.139 -1.1159 -0.4273 -2.0356
12221TIP3    H258079   5.547   6.604   3.119 -0.6055  0.6725  1.7909
12222TIP3   OH258080   2.852   1.309   3.548  0.2584  0.2316  0.6186
12222TIP3    H158081   2.917   1.365   3.505 -0.4175 -0.3322 -1.1795
12222TIP3    H258082   2.772   1.362   3.550  0.7972  1.0603  3.1494
12223TIP3   OH258083   2.208   4.275  13.766 -0.0637 -0.1321 -0.2016
12223TIP3    H158084   2.177   4.365  13.758 -0.0694 -0.0313  0.9628
12223TIP3    H258085   2.214   4.259  13.860  1.4163 -0.8371 -0.3946
12224TIP3   OH258086   4.244   0.208   0.447 -0.1579  0.0016 -0.7613
12224TIP3    H158087   4.291   0.162   0.377  0.1361 -0.7209 -0.0917
12224TIP3    H258088   4.277   0.168   0.528 -0.9912  0.3782 -0.2385
12225TIP3   OH258089   6.783   2.608   0.778 -0.6435  0.3591 -0.3063
12225TIP3    H158090   6.810   2.693   0.813 -0.8567  0.5364 -0.5660
12225TIP3    H258091   6.710   2.581   0.834  0.7746 -0.6380  1.0843
12226TIP3   OH258092   4.474   1.364   3.963 -0.4378  0.1314  0.0920
12226TIP3    H158093   4.515   1.351   4.049  0.2260  0.6476 -0.1469
12226TIP3    H258094   4.398   1.419   3.982 -1.9441 -2.1289  0.7672
12227TIP3   OH258095   0.893   3.485   3.447  0.3648 -0.2359  0.1495
12227TIP3    H158096   0.830   3.486   3.519  0.6872  2.2313  0.4578
12227TIP3    H258097   0.859   3.420   3.386 -2.1818  0.6099  0.5943
12228TIP3   OH258098   5.202   0.342   3.848  0.0112 -0.0643 -0.2641
12228TIP3    H158099   5.178   0.426   3.808 -0.3943  0.8311  1.8276
12228TIP3    H258100   5.285   0.359   3.892 -0.5693 -0.4711  1.0221
12229TIP3   OH258101   2.262   2.107  13.458 -0.1999 -0.1590  0.1555
12229TIP3    H158102   2.286   2.095  13.366 -1.0904 -2.1464  0.1471
12229TIP3    H258103   2.346   2.115  13.504  0.2245  1.8195 -0.9251
12230TIP3   OH258104   5.852   2.575   6.305 -0.7734 -0.2025 -0.1483
12230TIP3    H158105   5.787   2.539   6.364  0.3412 -0.6960  0.8040
12230TIP3    H258106   5.879   2.657   6.346  0.5333 -0.9046  0.4224
12231TIP3   OH258107   4.986   4.183  16.037 -0.1115  0.3202  0.6105
12231TIP3    H158108   5.079   4.205  16.028  0.3147 -0.5721  2.6423
12231TIP3    H258109   4.975   4.102  15.987 -0.2243  1.3565 -1.1235
12232TIP3   OH258110   5.563   6.685   6.288  0.0552  0.1592 -0.1454
12232TIP3    H158111   5.504   6.612   6.305 -1.7432  1.5502 -0.2377
12232TIP3    H258112   5.597   6.709   6.375 -1.0390  0.5788  0.1776
12233TIP3   OH258113   1.014   1.375   0.923  0.1154  0.0432  0.3168
12233TIP3    H158114   0.991   1.293   0.880  0.9814 -0.1980  0.3042
12233TIP3    H258115   0.930   1.417   0.941 -0.2970 -0.4335 -0.4735
12234TIP3   OH258116   0.288   0.940  16.980  0.1239  0.3207 -0.1186
12234TIP3    H158117   0.364   0.996  16.965 -0.6324  1.4803  0.2810
12234TIP3    H258118   0.216   0.986  16.936 -0.4263 -0.5426 -0.1249
12235TIP3   OH258119   3.509   5.373  11.235 -0.1599 -0.0638 -0.2432
12235TIP3    H158120   3.496   5.312  11.162 -1.1904  0.8611 -0.8317
12235TIP3    H258121   3.459   5.451  11.211  3.3808  2.1830 -0.8475
12236TIP3   OH258122   0.102   2.323   3.780  0.7353  0.1083  0.4826
12236TIP3    H158123   0.058   2.379   3.717  1.2237 -0.8617 -0.7428
12236TIP3    H258124   0.031   2.277   3.825  0.3466  1.4913  1.3064
12237TIP3   OH258125   2.482   4.979  14.907 -0.6512  0.5366 -0.6634
12237TIP3    H158126   2.422   5.011  14.839 -0.9058 -0.3014 -0.8373
12237TIP3    H258127   2.569   4.986  14.867 -0.5842  2.0887 -0.2833
12238TIP3   OH258128   3.024   6.052  14.992  0.1997  0.7453  0.1581
12238TIP3    H158129   2.970   6.058  15.070 -0.0485 -0.1760  0.0576
12238TIP3    H258130   3.042   5.959  14.981  0.7460  0.9226 -0.5326
12239TIP3   OH258131   6.439   3.376   0.276 -0.1730  0.2268 -0.0174
12239TIP3    H158132   6.376   3.307   0.297  2.4607 -2.1382  0.3315
12239TIP3    H258133   6.450   3.370   0.181  0.6344 -0.3614  0.1099
12240TIP3   OH258134   6.215   4.795  13.691 -0.5543 -0.2220 -0.2814
12240TIP3    H158135   6.136   4.830  13.732 -0.4299  0.7377 -0.8620
12240TIP3    H258136   6.182   4.740  13.619 -0.6879  0.3195 -0.6330
12241TIP3   OH258137   6.691   4.465   3.978 -0.0130  0.2080  0.3819
12241TIP3    H158138   6.753   4.415   4.031  1.6130 -0.6881 -2.2364
12241TIP3    H258139   6.721   4.451   3.888 -1.4715  3.3020 -0.6423
12242TIP3   OH258140   4.493   0.604   6.188  0.6059  0.3323 -0.3149
12242TIP3    H158141   4.540   0.561   6.116  0.6985 -0.9793  0.5151
12242TIP3    H258142   4.436   0.667   6.145  2.0888  0.9503 -1.4313
12243TIP3   OH258143   5.661   0.066  14.996 -0.0497  0.3048 -0.0733
12243TIP3    H158144   5.685   0.081  15.087  0.9189  2.2987 -0.6242
12243TIP3    H258145   5.578   0.018  15.001  1.2923 -1.9427  1.8250
12244TIP3   OH258146   6.009   3.405   0.952  0.2547  0.2287 -0.4515
12244TIP3    H158147   6.028   3.478   0.894 -0.2629  0.2417 -0.6104
12244TIP3    H258148   6.055   3.425   1.033 -0.5240  1.1256 -0.2188
12245TIP3   OH258149   0.198   2.884   2.303 -0.2229 -1.1752 -0.2862
12245TIP3    H158150   0.200   2.965   2.251 -0.4637 -0.5996  0.5945
12245TIP3    H258151   0.203   2.814   2.238 -2.3109 -0.5008 -1.2445
12246TIP3   OH258152   4.262   5.818   4.321 -0.1533 -0.6442 -0.2426
12246TIP3    H158153   4.222   5.734   4.300  0.7193 -0.7218 -1.6707
12246TIP3    H258154   4.233   5.876   4.250  2.0588 -0.6540 -1.1783
12247TIP3   OH258155   2.481   4.257   1.437  0.8078  0.1937 -0.6399
12247TIP3    H158156   2.534   4.337   1.436  4.0815 -1.8737 -0.3489
12247TIP3    H258157   2.528   4.196   1.380 -2.1563 -1.2380 -1.6574
12248TIP3   OH258158   6.413   4.371  12.280 -0.4731  0.5079  0.3104
12248TIP3    H158159   6.424   4.433  12.207 -0.0122 -0.0517 -0.0988
12248TIP3    H258160   6.457   4.413  12.354  2.7272 -0.7788 -0.7798
12249TIP3   OH258161   4.894   0.933   4.988 -0.4271 -0.2481 -0.3303
12249TIP3    H158162   4.799   0.944   4.984 -0.1971  1.7290 -1.0155
12249TIP3    H258163   4.910   0.849   4.946 -1.8002 -0.1175 -1.1452
12250TIP3   OH258164   1.578   0.904   0.177 -0.1174  0.1623 -1.0738
12250TIP3    H158165   1.667   0.937   0.164  0.0217 -0.1281 -0.8490
12250TIP3    H258166   1.566   0.902   0.272  0.0509 -0.9062 -1.0727
12251TIP3   OH258167   3.817   0.920   4.232 -0.0063 -0.2645 -0.1314
12251TIP3    H158168   3.731   0.949   4.264  0.3879  1.3295 -0.4833
12251TIP3    H258169   3.799   0.836   4.189 -1.2983 -0.2067  0.2679
12252TIP3   OH258170   0.743   5.748  15.812  0.1625  0.0620 -0.4348
12252TIP3    H158171   0.655   5.784  15.827  0.4625  0.6225  0.0009
12252TIP3    H258172   0.797   5.791  15.878  0.9799  0.5012 -1.3913
12253TIP3   OH258173   5.375   6.582   0.569  0.0492 -0.2383  0.1771
12253TIP3    H158174   5.368   6.559   0.662 -1.4204  0.9084  0.3702
12253TIP3    H258175   5.410   6.670   0.568  0.2370 -0.3154 -0.3684
12254TIP3   OH258176   4.629   4.676   2.162 -0.3115 -0.1180  0.1197
12254TIP3    H158177   4.720   4.646   2.170 -0.3926 -0.1282  1.0579
12254TIP3    H258178   4.584   4.604   2.118  0.5149  0.6401 -2.0333
12255TIP3   OH258179   5.475   4.198  14.874 -0.0439  0.6961 -0.2964
12255TIP3    H158180   5.497   4.290  14.858  0.2519  0.9457  1.4182
12255TIP3    H258181   5.400   4.181  14.818  0.9063  1.5209 -1.8466
12256TIP3   OH258182   0.979   4.340   3.053  0.5606  0.5015  0.4160
12256TIP3    H158183   0.968   4.245   3.043 -1.1179  0.5289  1.8521
12256TIP3    H258184   1.071   4.351   3.074  0.3356 -1.0096  2.3251
12257TIP3   OH258185   2.421   0.124  10.860  0.0091  0.1587 -0.4981
12257TIP3    H158186   2.412   0.029  10.846 -0.4156  0.2027 -0.5482
12257TIP3    H258187   2.494   0.133  10.921 -0.5205 -0.2599  0.2123
12258TIP3   OH258188   5.997   3.957  17.225 -0.0561 -0.1774  0.2547
12258TIP3    H158189   5.949   3.893  17.277 -0.5179  1.2363  1.6026
12258TIP3    H258190   6.077   3.912  17.199 -0.0914 -1.0979  1.6997
12259TIP3   OH258191   6.415   3.096  11.393 -0.1652 -0.0850  0.5233
12259TIP3    H158192   6.468   3.168  11.427  2.0357 -0.9027 -1.0336
12259TIP3    H258193   6.341   3.139  11.351  1.5044  1.3514 -1.0368
12260TIP3   OH258194   3.132   6.251  16.783  0.5713 -0.0502  0.0689
12260TIP3    H158195   3.076   6.180  16.752 -1.0106  0.9556  0.5924
12260TIP3    H258196   3.119   6.321  16.720  1.1027  0.2615  0.3032
12261TIP3   OH258197   3.864   4.848   3.194 -0.8526 -0.2351  0.1354
12261TIP3    H158198   3.896   4.872   3.107 -1.3850 -0.5131 -0.1389
12261TIP3    H258199   3.783   4.897   3.204  0.9766  2.5578  1.9103
12262TIP3   OH258200   4.249   5.784  14.149  0.5698 -0.0424  0.8599
12262TIP3    H158201   4.210   5.710  14.102  0.7106 -0.8854  2.0361
12262TIP3    H258202   4.175   5.839  14.174  0.2892 -0.7132  1.5217
12263TIP3   OH258203   6.537   0.871  13.648  0.1619 -0.2057  1.0016
12263TIP3    H158204   6.617   0.821  13.656  0.9786  0.5511 -1.7263
12263TIP3    H258205   6.468   0.806  13.641  0.9742 -0.9462 -0.3398
12264TIP3   OH258206   2.613   0.663  13.940  0.2543 -0.1746  0.0386
12264TIP3    H158207   2.675   0.736  13.933  0.1267 -0.1625 -1.0800
12264TIP3    H258208   2.639   0.603  13.870 -0.1017 -0.8556  0.4843
12265TIP3   OH258209   2.161   0.561   4.389  0.4665  0.0175 -0.1903
12265TIP3    H158210   2.247   0.598   4.372  0.8247 -0.5401  0.3616
12265TIP3    H258211   2.121   0.551   4.303  0.6482  0.9985 -0.3921
12266TIP3   OH258212   1.649   6.689  17.110 -0.1065  0.1763 -0.2218
12266TIP3    H158213   1.568   6.640  17.099  1.3443 -2.3258 -0.0091
12266TIP3    H258214   1.621   6.780  17.120 -3.0019 -0.8765  1.7417
12267TIP3   OH258215   2.804   1.342   4.249  0.3770  0.0869  0.5422
12267TIP3    H158216   2.832   1.422   4.293  0.1215  0.7337 -0.4639
12267TIP3    H258217   2.787   1.368   4.159  0.0204 -1.0427  0.2688
12268TIP3   OH258218   6.566   3.364  15.802  0.3461 -0.1422 -0.1313
12268TIP3    H158219   6.609   3.280  15.816 -2.0685 -1.2370  0.8495
12268TIP3    H258220   6.582   3.413  15.883  0.2249 -0.3418  0.0138
12269TIP3   OH258221   2.887   2.478  14.503  0.1542 -0.9012  0.0501
12269TIP3    H158222   2.974   2.511  14.525 -0.7822  0.4633  1.8283
12269TIP3    H258223   2.828   2.529  14.558 -1.6777 -2.6216 -0.2933
12270TIP3   OH258224   2.270   4.497   3.587 -0.0487  0.5975  0.1071
12270TIP3    H158225   2.195   4.520   3.643  0.5734  1.4704  0.6020
12270TIP3    H258226   2.346   4.506   3.645  0.4052 -0.7780 -0.2575
12271TIP3   OH258227   2.740   2.325  16.238 -0.4269 -0.0483 -0.3248
12271TIP3    H158228   2.773   2.284  16.159  2.4426  1.0085  0.2476
12271TIP3    H258229   2.744   2.419  16.220 -1.1580  0.1572  0.5393
12272TIP3   OH258230   4.413   6.135  12.600  0.7460  0.0165  0.1849
12272TIP3    H158231   4.437   6.042  12.595  0.9189  0.1202 -0.9109
12272TIP3    H258232   4.463   6.176  12.530  0.2314  0.8522  0.3084
12273TIP3   OH258233   4.557   4.109  15.545  0.7475 -0.6028  0.0584
12273TIP3    H158234   4.640   4.062  15.544  1.1134  0.0509 -0.4373
12273TIP3    H258235   4.555   4.152  15.631  0.3134 -1.6766  0.6018
12274TIP3   OH258236   1.673   6.194  14.489 -0.2541 -0.1731 -0.4426
12274TIP3    H158237   1.769   6.199  14.485 -0.2146 -0.8342 -0.3963
12274TIP3    H258238   1.650   6.124  14.428 -0.5729 -1.3059  0.9462
12275TIP3   OH258239   1.076   3.264   0.716 -0.0856  0.2610  0.0694
12275TIP3    H158240   1.035   3.211   0.647  0.7414  0.0376 -0.2551
12275TIP3    H258241   1.019   3.341   0.722 -1.3667 -0.7045  0.6351
12276TIP3   OH258242   5.284   0.055  12.336 -0.7949 -0.2874  0.1709
12276TIP3    H158243   5.262   0.023  12.424 -1.7333 -0.7397 -0.2238
12276TIP3    H258244   5.274  -0.022  12.280  0.2254 -0.1001 -0.2687
12277TIP3   OH258245   5.838   6.390   5.283  0.2198  0.3626 -0.6851
12277TIP3    H158246   5.780   6.355   5.350  2.6693  0.9054  1.7696
12277TIP3    H258247   5.869   6.312   5.236  2.1042 -0.4297  1.8178
12278TIP3   OH258248   4.904   4.350   4.309  0.0392  0.5784 -0.1584
12278TIP3    H158249   4.863   4.264   4.317  1.0217  0.1231  0.0310
12278TIP3    H258250   4.849   4.408   4.362  0.7756 -0.4247  1.7092
12279TIP3   OH258251   3.582   0.517  14.883  0.4097 -0.2493  0.3174
12279TIP3    H158252   3.545   0.596  14.844  0.5377  0.7142  2.0839
12279TIP3    H258253   3.619   0.469  14.809  2.5771  2.5701 -0.5453
12280TIP3   OH258254   5.538   6.676   5.197  0.3326 -0.4335  0.1200
12280TIP3    H158255   5.607   6.674   5.263 -0.4297  1.4717  1.0148
12280TIP3    H258256   5.462   6.637   5.241 -0.4452  1.7197  0.7148
12281TIP3   OH258257   0.828   3.267   5.224  0.0027  0.0100 -0.0675
12281TIP3    H158258   0.758   3.316   5.268  0.8430  2.4683 -1.3547
12281TIP3    H258259   0.880   3.229   5.295 -0.5817  1.1239  0.9677
12282TIP3   OH258260   3.409   1.747  12.263  0.0665 -0.2823 -0.1731
12282TIP3    H158261   3.396   1.829  12.216 -0.4420 -0.6934 -0.7507
12282TIP3    H258262   3.322   1.724  12.295  0.6004  0.6597  2.0896
12283TIP3   OH258263   1.595   6.094   4.925  0.0368  0.5006 -0.3009
12283TIP3    H158264   1.631   6.041   4.995 -0.3125  0.2254 -0.3297
12283TIP3    H258265   1.665   6.156   4.903  0.4516  0.0408 -0.2824
12284TIP3   OH258266   4.740   5.820  14.367  0.5018  0.4363 -0.1592
12284TIP3    H158267   4.799   5.788  14.435  0.8761  2.6575  0.6073
12284TIP3    H258268   4.778   5.903  14.339 -1.6184  1.3397 -0.4796
12285TIP3   OH258269   6.746   2.046   5.821  0.5091  0.0520  0.6635
12285TIP3    H158270   6.706   2.038   5.734 -0.0175  1.7802  0.7316
12285TIP3    H258271   6.737   1.959   5.860 -3.7946  0.5368  0.9588
12286TIP3   OH258272   3.858   5.650   1.568  0.1279 -0.1905  0.4814
12286TIP3    H158273   3.915   5.699   1.626  0.7096  1.5962 -1.5468
12286TIP3    H258274   3.892   5.560   1.570  3.3051  0.9417 -1.0770
12287TIP3   OH258275   3.045   1.712  13.769  0.0365 -0.1000  0.0334
12287TIP3    H158276   3.063   1.748  13.856  1.4774 -1.3785  0.2879
12287TIP3    H258277   3.131   1.691  13.733 -0.5851 -0.1533 -1.4651
12288TIP3   OH258278   0.180   3.345  13.166 -0.2656  0.7553  0.1612
12288TIP3    H158279   0.154   3.393  13.087 -2.3107  0.2260  0.4757
12288TIP3    H258280   0.223   3.266  13.133 -1.2379  0.4645 -0.4391
12289TIP3   OH258281   5.359   6.204  11.339  0.1480 -0.2656  0.0365
12289TIP3    H158282   5.308   6.143  11.285 -0.2291 -0.4867  0.6332
12289TIP3    H258283   5.449   6.193  11.308 -0.2916  0.8452 -1.6946
12290TIP3   OH258284   5.575   6.146   4.047  0.6528  0.0044  0.1607
12290TIP3    H158285   5.568   6.221   3.988  1.1732 -0.5887 -0.6584
12290TIP3    H258286   5.635   6.086   4.003  0.8536 -0.5532  1.1790
12291TIP3   OH258287   4.383   2.907  11.720  0.7083 -0.0476 -0.2321
12291TIP3    H158288   4.349   2.997  11.723 -1.8510 -0.9540 -0.8217
12291TIP3    H258289   4.441   2.901  11.796  0.2258  1.8401  0.3165
12292TIP3   OH258290   6.333   6.257   4.771  0.1973  0.5833 -0.4150
12292TIP3    H158291   6.397   6.328   4.785  1.4114 -0.8638  1.5580
12292TIP3    H258292   6.345   6.232   4.679  2.7810  0.0804  0.0226
12293TIP3   OH258293   4.412   0.553   5.940  0.0853  0.1219  0.4552
12293TIP3    H158294   4.402   0.635   5.893 -0.4649  0.2594  0.8159
12293TIP3    H258295   4.504   0.529   5.926 -0.3166 -0.3237 -1.4696
12294TIP3   OH258296   4.839   4.547   4.508 -0.0437 -0.5021 -0.1013
12294TIP3    H158297   4.877   4.507   4.586 -0.8628 -1.7707 -0.3384
12294TIP3    H258298   4.788   4.621   4.542  2.4992  1.1728  0.2233
12295TIP3   OH258299   4.036   3.724  11.417  0.3557 -0.2625 -0.1249
12295TIP3    H158300   4.064   3.811  11.392  0.6126 -0.4764 -0.5769
12295TIP3    H258301   4.110   3.667  11.396  0.2473 -0.5697  0.3019
12296TIP3   OH258302   1.161   6.197  12.866 -0.1242  0.1303  0.3908
12296TIP3    H158303   1.168   6.112  12.821  0.1057  1.1118 -1.4655
12296TIP3    H258304   1.163   6.174  12.959 -0.0657 -1.9070 -0.0725
12297TIP3   OH258305   0.472   5.481  15.025 -0.2230 -0.5551  0.1175
12297TIP3    H158306   0.402   5.426  14.992 -1.8861 -0.7491  3.6976
12297TIP3    H258307   0.549   5.425  15.026 -0.8626 -1.4461 -0.4255
12298TIP3   OH258308   6.472   1.747  16.089  0.0764 -0.0447  0.5318
12298TIP3    H158309   6.509   1.829  16.055 -0.5484  0.0709  0.0982
12298TIP3    H258310   6.479   1.686  16.015 -1.4748  0.2629  0.0925
12299TIP3   OH258311   3.010   4.437  12.528 -0.0368 -0.1593  1.5350
12299TIP3    H158312   2.936   4.473  12.577 -0.4964 -1.3030  1.6984
12299TIP3    H258313   2.989   4.345  12.517  1.1219 -0.3842  1.1174
12300TIP3   OH258314   4.758   6.633   2.118  0.1680 -0.2607 -0.2754
12300TIP3    H158315   4.707   6.595   2.046 -0.3943  0.0900 -0.0688
12300TIP3    H258316   4.707   6.612   2.196 -1.6604  3.3250 -0.3877
12301TIP3   OH258317   5.418   4.523   3.154  0.4148  0.3682  0.1505
12301TIP3    H158318   5.390   4.447   3.104 -0.5497 -0.2967  1.6764
12301TIP3    H258319   5.336   4.564   3.184  0.9386  1.6088 -0.0666
12302TIP3   OH258320   5.966   6.259  16.928  1.1224  0.3664 -0.1303
12302TIP3    H158321   5.946   6.311  17.006  0.5646 -0.2509  0.1322
12302TIP3    H258322   6.061   6.243  16.934  1.0935  0.3742  0.3849
12303TIP3   OH258323   1.956   2.784   6.271  0.1302  0.1892  0.2155
12303TIP3    H158324   1.933   2.736   6.192  3.0044  1.1132 -1.2756
12303TIP3    H258325   2.016   2.853   6.240 -1.2300  2.6122  2.7328
12304TIP3   OH258326   2.063   2.117   0.754 -0.1204  0.3818  0.0659
12304TIP3    H158327   1.975   2.093   0.724  0.0085  0.5235 -0.4286
12304TIP3    H258328   2.111   2.034   0.756  0.0874  0.4787 -0.8455
12305TIP3   OH258329   0.362   0.001  16.390 -0.0388 -0.2323 -0.0313
12305TIP3    H158330   0.436   0.031  16.443 -0.9607  1.8647  0.1140
12305TIP3    H258331   0.369  -0.095  16.391  1.3510 -0.1422  1.8642
12306TIP3   OH258332   1.963   3.325   1.185 -0.6553  0.7018  1.0202
12306TIP3    H158333   2.047   3.366   1.207 -0.1040 -0.7496  1.6844
12306TIP3    H258334   1.968   3.309   1.091  0.9509 -1.8194  1.4762
12307TIP3   OH258335   5.437   4.991  16.868 -0.6872 -0.0173 -0.0351
12307TIP3    H158336   5.395   5.062  16.819 -1.7135 -0.7080 -0.1698
12307TIP3    H258337   5.502   4.956  16.807 -1.0572 -0.0198 -0.4316
12308TIP3   OH258338   1.222   0.792   4.723  0.4372 -0.1156  0.3030
12308TIP3    H158339   1.130   0.817   4.725 -0.0498 -1.7157 -1.1489
12308TIP3    H258340   1.221   0.697   4.729  1.9811 -0.1729 -0.2572
12309TIP3   OH258341   4.888   1.010  16.173  0.6187  0.2328  0.3111
12309TIP3    H158342   4.975   0.984  16.143  0.2107 -0.2556 -0.4604
12309TIP3    H258343   4.839   0.927  16.178  0.4389  0.3938  1.5513
12310TIP3   OH258344   5.868   6.130  11.675  0.4258  0.1067  0.1285
12310TIP3    H158345   5.857   6.038  11.652 -0.2939  0.0649  0.6207
12310TIP3    H258346   5.784   6.171  11.653  0.0208  0.2337  1.7996
12311TIP3   OH258347   4.042   5.586   0.381  0.0539  0.0420  0.2830
12311TIP3    H158348   3.991   5.538   0.446 -0.9951  0.4265 -0.2361
12311TIP3    H258349   3.978   5.643   0.338  0.9038  0.4431 -0.4685
12312TIP3   OH258350   3.418   6.224  14.272  0.1098 -0.1004  0.0115
12312TIP3    H158351   3.457   6.144  14.304 -0.4807 -0.4019 -0.0065
12312TIP3    H258352   3.326   6.201  14.256  0.6981 -0.4005 -3.3319
12313TIP3   OH258353   5.907   2.076   4.894 -0.1235 -0.5486 -0.2900
12313TIP3    H158354   5.841   2.112   4.953  1.0929 -1.0564  1.4008
12313TIP3    H258355   5.891   2.120   4.810 -1.1269  1.0428  0.7166
12314TIP3   OH258356   3.394   5.539   0.644  0.6846 -0.3828  0.5086
12314TIP3    H158357   3.478   5.505   0.614  0.2503 -1.4300  0.4791
12314TIP3    H258358   3.354   5.576   0.566  0.8541 -0.4193  0.4040
12315TIP3   OH258359   5.962   1.540   4.544  0.0861  0.0378 -0.2556
12315TIP3    H158360   5.881   1.516   4.588 -0.5152  0.3823 -1.1710
12315TIP3    H258361   6.010   1.593   4.609 -0.3146 -0.3620  0.3624
12316TIP3   OH258362   5.165   5.241   1.161  0.1312  0.5733 -0.4662
12316TIP3    H158363   5.222   5.190   1.103  0.5416  0.9685 -0.4106
12316TIP3    H258364   5.205   5.231   1.248  0.2989  1.1213 -0.4824
12317TIP3   OH258365   4.138   3.294  14.180  0.3447 -0.4338 -0.2005
12317TIP3    H158366   4.095   3.378  14.167 -0.7394 -0.7208  1.3173
12317TIP3    H258367   4.230   3.316  14.196  0.3046  0.3587 -0.9864
12318TIP3   OH258368   1.355   6.086   4.320  0.0756 -0.0893  0.0864
12318TIP3    H158369   1.348   6.173   4.360 -2.0060  0.5981 -1.6834
12318TIP3    H258370   1.265   6.057   4.310  0.7241 -2.1120 -0.1494
12319TIP3   OH258371   0.594   1.013   3.276 -0.5006 -0.1095  0.4670
12319TIP3    H158372   0.636   1.098   3.287 -1.6191  0.6964 -1.3879
12319TIP3    H258373   0.512   1.020   3.325 -1.1379  0.2944 -0.6440
12320TIP3   OH258374   5.617   0.217   4.079 -0.3923  0.0993  0.0382
12320TIP3    H158375   5.614   0.179   4.167  0.0819  0.8766  0.3885
12320TIP3    H258376   5.567   0.155   4.025  0.5743 -1.1653  0.5582
12321TIP3   OH258377   0.012   3.171   3.281 -0.4223  0.4176 -0.4012
12321TIP3    H158378  -0.015   3.079   3.284 -2.2569  0.8789 -1.8016
12321TIP3    H258379   0.088   3.171   3.223 -0.5620 -0.1744 -0.5921
12322TIP3   OH258380   2.425   6.198  13.760  0.7575  0.4706 -0.9243
12322TIP3    H158381   2.493   6.138  13.730 -0.4585 -0.7736 -1.2589
12322TIP3    H258382   2.442   6.209  13.853 -1.1799 -3.4039 -0.0108
12323TIP3   OH258383   5.953   3.545  11.705 -0.2035 -0.0971  0.0643
12323TIP3    H158384   6.023   3.575  11.764  0.4396 -1.3590 -0.0369
12323TIP3    H258385   5.890   3.503  11.762  1.6862 -3.6845 -0.3694
12324TIP3   OH258386   1.978   4.483  11.363  0.1259  0.2634  0.7916
12324TIP3    H158387   1.899   4.508  11.411 -0.9456 -1.0530 -0.2276
12324TIP3    H258388   1.950   4.408  11.309  1.8140  0.4171 -0.3316
12325TIP3   OH258389   4.449   5.702  16.509  0.1514 -0.0848 -0.7993
12325TIP3    H158390   4.465   5.668  16.421  0.2659  0.1557 -0.8742
12325TIP3    H258391   4.478   5.633  16.568  0.3535 -0.1287 -0.9488
12326TIP3   OH258392   3.912   3.663  15.855 -0.6788 -0.6574  0.2119
12326TIP3    H158393   3.976   3.625  15.915 -0.9816 -1.9402 -0.2576
12326TIP3    H258394   3.853   3.590  15.834 -2.1364  0.4375  0.4282
12327TIP3   OH258395   1.272   5.193  11.358 -0.0688 -0.1452  0.1225
12327TIP3    H158396   1.195   5.250  11.358  0.2690  0.3719 -2.0652
12327TIP3    H258397   1.340   5.245  11.400  0.2552  1.1511 -1.9131
12328TIP3   OH258398   3.140   2.310   1.561 -0.1274  0.1087  0.3376
12328TIP3    H158399   3.133   2.402   1.534  0.7371 -0.1277 -0.7208
12328TIP3    H258400   3.109   2.309   1.652 -3.4945  0.8558 -0.7337
12329TIP3   OH258401   0.130   6.652  10.440 -0.1776 -0.4941  0.7569
12329TIP3    H158402   0.046   6.644  10.485 -0.9871  0.8424 -0.4936
12329TIP3    H258403   0.150   6.745  10.442  0.3118 -0.5567 -0.6747
12330TIP3   OH258404   3.948   6.372   1.197  0.2554  0.3541 -0.6538
12330TIP3    H158405   3.977   6.463   1.187 -0.8888  0.9736  1.2661
12330TIP3    H258406   3.853   6.378   1.203  0.3228 -0.6356  2.2683
12331TIP3   OH258407   4.646   6.297  13.861  0.3441  0.1745  0.9073
12331TIP3    H158408   4.625   6.276  13.770  1.3104 -2.1541  1.1848
12331TIP3    H258409   4.574   6.259  13.912  1.3284 -1.2027  1.3078
12332TIP3   OH258410   4.823   0.590   5.751  0.9934 -0.3199 -0.4607
12332TIP3    H158411   4.905   0.640   5.752  0.4080  0.6464 -0.4077
12332TIP3    H258412   4.758   0.651   5.718  0.1510 -0.8716  0.1637
12333TIP3   OH258413   4.234   4.682   2.524  0.2080  0.3923 -0.2385
12333TIP3    H158414   4.173   4.755   2.524  0.9902  1.0634  0.7550
12333TIP3    H258415   4.283   4.691   2.442 -1.0357 -0.1739 -1.0559
12334TIP3   OH258416   6.203   0.877   4.183 -0.7800  0.2187 -0.0574
12334TIP3    H158417   6.187   0.878   4.089 -0.0361  0.0585 -0.1889
12334TIP3    H258418   6.284   0.927   4.194  0.6534 -2.0415  0.1843
12335TIP3   OH258419   5.988   5.541  10.445  0.5801 -0.6641  0.1970
12335TIP3    H158420   5.916   5.486  10.473 -0.0170 -0.0085 -0.0409
12335TIP3    H258421   6.007   5.597  10.521 -0.4850  0.5369 -0.4186
12336TIP3   OH258422   1.207   4.428  12.375  0.2818 -0.4340 -0.5477
12336TIP3    H158423   1.211   4.521  12.351  0.1283 -0.5001 -0.8286
12336TIP3    H258424   1.159   4.427  12.457  1.1173 -0.1705 -0.0468
12337TIP3   OH258425   1.332   0.385  15.019  0.7066  0.8370  0.2583
12337TIP3    H158426   1.427   0.391  15.013  0.8359 -1.4382 -0.5540
12337TIP3    H258427   1.311   0.414  15.108  2.0793  2.0926  0.1783
12338TIP3   OH258428   6.258   1.835  13.235 -0.5309  0.6441 -0.1102
12338TIP3    H158429   6.340   1.874  13.267 -1.3171  1.2544  1.1931
12338TIP3    H258430   6.255   1.749  13.276 -0.3244  0.4440 -0.5134
12339TIP3   OH258431   2.017   3.675   3.816 -0.6638  0.7118 -0.5576
12339TIP3    H158432   2.066   3.605   3.771  0.9912  2.5417 -1.7107
12339TIP3    H258433   2.069   3.754   3.800 -2.8183  2.3258  0.1909
12340TIP3   OH258434   1.764   1.483  16.416  0.3241 -0.2980  0.5748
12340TIP3    H158435   1.800   1.422  16.351  0.2903 -0.0645  0.3356
12340TIP3    H258436   1.678   1.446  16.438 -0.9618  1.1776 -1.7147
12341TIP3   OH258437   5.912   2.440  11.225 -0.0980  0.3307  0.3897
12341TIP3    H158438   5.939   2.427  11.316 -1.1531 -1.1359  0.5152
12341TIP3    H258439   5.994   2.446  11.176  0.4706  0.8963  1.4002
12342TIP3   OH258440   3.192   4.725   1.372  0.4439 -0.3719 -0.2685
12342TIP3    H158441   3.150   4.734   1.457 -0.7600 -1.6745 -0.6947
12342TIP3    H258442   3.285   4.716   1.392  0.5811  2.6874  0.6757
12343TIP3   OH258443   0.727   1.246   3.270 -0.1130  0.3887 -0.2409
12343TIP3    H158444   0.711   1.302   3.194 -1.3564  0.1988 -0.1190
12343TIP3    H258445   0.742   1.308   3.342 -2.9757  0.6238  0.2208
12344TIP3   OH258446   3.563   2.146   3.798  0.2915 -0.6239  0.1687
12344TIP3    H158447   3.547   2.099   3.716  2.1436  0.7326 -1.0272
12344TIP3    H258448   3.552   2.238   3.775 -0.9446 -0.3358  1.8997
12345TIP3   OH258449   6.132   6.423   5.513 -0.7023 -0.4628  0.8685
12345TIP3    H158450   6.170   6.337   5.531  0.1888 -0.1816  0.3790
12345TIP3    H258451   6.193   6.485   5.554  0.5901  0.1023 -1.7968
12346TIP3   OH258452   5.281   4.849  14.633  0.0892  0.2846 -0.0344
12346TIP3    H158453   5.271   4.944  14.640 -0.8812  0.1238  0.8194
12346TIP3    H258454   5.296   4.833  14.540 -1.7547  1.1053 -0.4958
12347TIP3   OH258455   2.567   4.077  11.743 -0.1703 -0.7018 -0.7010
12347TIP3    H158456   2.586   4.126  11.823  2.5449  0.2415 -1.8668
12347TIP3    H258457   2.513   4.137  11.692  0.6593 -0.0775 -0.8602
12348TIP3   OH258458   4.824   3.466   5.270  0.0024 -0.5713  0.3498
12348TIP3    H158459   4.766   3.395   5.244  0.3725 -0.1620 -1.6321
12348TIP3    H258460   4.780   3.546   5.241  0.4959 -0.1040  0.8580
12349TIP3   OH258461   5.346   6.577  10.517  0.3453 -0.2332 -0.0205
12349TIP3    H158462   5.441   6.571  10.510  0.4731  0.6812  0.8887
12349TIP3    H258463   5.329   6.572  10.611 -0.5652 -1.2199 -0.2284
12350TIP3   OH258464   3.371   1.500  12.881 -0.3213 -0.9290  0.3113
12350TIP3    H158465   3.463   1.515  12.861 -0.8821  0.1451 -1.6026
12350TIP3    H258466   3.360   1.532  12.970  0.9554 -0.2691  0.2459
12351TIP3   OH258467   2.050   1.460  13.084 -0.0650  0.6459  0.0586
12351TIP3    H158468   2.004   1.415  13.155  0.7768 -0.9111 -0.3585
12351TIP3    H258469   2.005   1.432  13.005  2.4036 -1.9751 -0.4775
12352TIP3   OH258470   5.714   4.659  16.608 -0.3121 -0.4181  0.5257
12352TIP3    H158471   5.632   4.611  16.614  0.2652 -1.2693  2.0528
12352TIP3    H258472   5.781   4.592  16.594  0.1112  0.2817 -0.8784
12353TIP3   OH258473   4.045   3.053   4.485  0.1722  0.3485 -0.2300
12353TIP3    H158474   4.069   3.067   4.393  0.0742 -1.8417 -0.6139
12353TIP3    H258475   3.950   3.053   4.485  0.1659  1.1960  0.0240
12354TIP3   OH258476   3.033   5.038   2.159  0.1246  0.6862 -0.0078
12354TIP3    H158477   2.972   5.091   2.209 -1.2538 -0.7521 -0.1596
12354TIP3    H258478   3.018   5.064   2.068  0.5562  1.1650  0.0560
12355TIP3   OH258479   1.796   3.135  15.394  0.3661  0.2041  0.0390
12355TIP3    H158480   1.842   3.087  15.325  0.0834  0.4675 -0.3365
12355TIP3    H258481   1.849   3.214  15.408  0.7226 -0.1158  0.5165
12356TIP3   OH258482   4.112   0.712  13.246  0.1008  0.1388 -0.4688
12356TIP3    H158483   4.172   0.769  13.295  0.2255 -1.7464  1.6662
12356TIP3    H258484   4.037   0.702  13.304  0.5318 -2.6752 -0.3257
12357TIP3   OH258485   4.516   2.398   3.248  0.4338 -0.0803  0.0376
12357TIP3    H158486   4.514   2.370   3.340 -0.0378 -0.3830 -0.0637
12357TIP3    H258487   4.496   2.491   3.251 -0.1382 -0.2064  0.1994
12358TIP3   OH258488   2.888   2.743   4.030 -0.6456  0.0749  0.2306
12358TIP3    H158489   2.937   2.810   3.982 -1.0078  0.4937  0.4363
12358TIP3    H258490   2.814   2.722   3.972  0.2017 -1.1336 -0.4326
12359TIP3   OH258491   0.992   1.818  12.077 -0.1975  1.0880 -0.5734
12359TIP3    H158492   1.001   1.784  12.166 -0.7628  0.2646 -0.8201
12359TIP3    H258493   1.017   1.745  12.020  0.5285  1.7297 -1.0860
12360TIP3   OH258494   2.942   6.657  10.728 -0.2169 -0.1589 -0.9614
12360TIP3    H158495   2.952   6.714  10.805  2.9611  0.0676 -1.4951
12360TIP3    H258496   2.854   6.677  10.696 -2.2478 -1.3326  3.4365
12361TIP3   OH258497   5.460   6.193  15.512  0.1064 -0.2005 -0.0535
12361TIP3    H158498   5.538   6.225  15.557 -0.3421  0.7995  0.0261
12361TIP3    H258499   5.410   6.147  15.580  0.1363  0.0455  0.1367
12362TIP3   OH258500   3.717   5.835  12.454  0.0349  0.3942 -0.0946
12362TIP3    H158501   3.793   5.809  12.402 -1.4202 -0.0408 -2.0334
12362TIP3    H258502   3.685   5.914  12.411 -0.9223  0.2700  0.3865
12363TIP3   OH258503   3.613   0.673  11.562 -0.3790 -0.6048  0.1361
12363TIP3    H158504   3.678   0.682  11.491 -0.1865 -1.0734  0.2495
12363TIP3    H258505   3.654   0.612  11.623 -0.2560  0.3090  0.9844
12364TIP3   OH258506   2.444   5.821   4.189 -0.2927  0.3370  0.1711
12364TIP3    H158507   2.466   5.872   4.267  1.6439  0.5288 -0.4620
12364TIP3    H258508   2.420   5.734   4.222 -0.5919  0.7582  1.0552
12365TIP3   OH258509   5.057   6.090   1.374 -0.1317  0.3882 -0.1569
12365TIP3    H158510   5.015   6.156   1.319  0.7264  1.0243 -0.0665
12365TIP3    H258511   4.986   6.033   1.404 -0.4171 -1.0084 -3.3107
12366TIP3   OH258512   0.732   2.223   5.081  0.0068 -0.2205  0.3605
12366TIP3    H158513   0.819   2.261   5.066  1.0164 -2.0118  1.4357
12366TIP3    H258514   0.713   2.242   5.173 -0.2273 -0.8061  0.4370
12367TIP3   OH258515   2.051   1.311   5.742 -0.5336 -0.5260  0.6227
12367TIP3    H158516   2.052   1.389   5.686 -0.7793 -1.0588 -0.1291
12367TIP3    H258517   2.129   1.319   5.796 -0.7044  0.3829  0.7399
12368TIP3   OH258518   4.095   3.647   5.174 -0.4330  0.2417  0.0147
12368TIP3    H158519   4.143   3.564   5.169 -2.5345 -1.0658  0.7454
12368TIP3    H258520   4.131   3.700   5.104  1.6487 -0.9140  0.1678
12369TIP3   OH258521   3.104   1.138  12.775  0.1266 -0.8063  0.8287
12369TIP3    H158522   3.151   1.082  12.838 -2.1508 -2.9464  0.6824
12369TIP3    H258523   3.069   1.077  12.711 -2.6714  0.7661  0.8120
12370TIP3   OH258524   0.457   0.773   6.531 -0.2428 -0.3263  0.0906
12370TIP3    H158525   0.545   0.776   6.494 -0.2131  0.0655  0.1961
12370TIP3    H258526   0.400   0.792   6.456 -0.2756 -1.1754 -0.1100
12371TIP3   OH258527   2.488   0.138  15.103  0.2667 -0.5279 -0.3358
12371TIP3    H158528   2.583   0.125  15.101  0.4728  0.8787 -0.1216
12371TIP3    H258529   2.469   0.196  15.029 -0.5531 -1.5539 -0.9409
12372TIP3   OH258530   4.121   1.758  17.026  0.3642 -0.5968  0.3227
12372TIP3    H158531   4.161   1.833  17.071  1.1719 -1.0446  0.3603
12372TIP3    H258532   4.055   1.725  17.086  1.5175 -1.2685  1.2490
12373TIP3   OH258533   2.893   0.520   1.573  0.0318  0.0181 -0.8782
12373TIP3    H158534   2.895   0.456   1.502 -0.0782  0.1699 -1.0174
12373TIP3    H258535   2.980   0.514   1.614 -0.5150 -1.3507  0.1040
12374TIP3   OH258536   4.784   0.100   5.490  0.4914 -0.2242 -0.2239
12374TIP3    H158537   4.748   0.021   5.530 -0.2515 -0.5951 -1.6000
12374TIP3    H258538   4.862   0.071   5.444  0.0417 -0.2200 -0.9963
12375TIP3   OH258539   3.622   6.172   2.261 -0.5342  0.3760 -0.0613
12375TIP3    H158540   3.541   6.184   2.311  0.4817 -2.3061  2.3476
12375TIP3    H258541   3.679   6.244   2.290 -1.5622  1.5210 -0.8194
12376TIP3   OH258542   6.400   3.377   2.436 -0.0609  0.3631  0.4625
12376TIP3    H158543   6.306   3.364   2.427 -0.1871  0.0341  2.1005
12376TIP3    H258544   6.419   3.356   2.528  1.5099  0.9821  0.3038
12377TIP3   OH258545   2.221   2.076   3.441  0.0307 -0.5069 -0.3470
12377TIP3    H158546   2.145   2.133   3.452 -0.5515 -1.5682  1.2811
12377TIP3    H258547   2.213   2.041   3.352  0.3796  1.8889 -1.3644
12378TIP3   OH258548   0.793   5.525  11.395  0.1206  0.1519  0.2095
12378TIP3    H158549   0.824   5.519  11.485  0.3944  2.4325  0.3037
12378TIP3    H258550   0.784   5.435  11.366  1.3599 -0.5884  2.0714
12379TIP3   OH258551   4.427   5.959   5.686  0.9831  0.5031  0.2279
12379TIP3    H158552   4.355   5.895   5.683 -0.3241  1.8994  0.8238
12379TIP3    H258553   4.441   5.983   5.595  1.2327 -0.3676  0.0351
12380TIP3   OH258554   1.526   1.205  16.940 -0.8414 -0.3884 -0.1363
12380TIP3    H158555   1.469   1.131  16.964 -1.4904 -0.5572 -2.1151
12380TIP3    H258556   1.608   1.164  16.914 -0.4648 -0.2691  0.8619
12381TIP3   OH258557   6.605   6.760   3.400  0.3565  0.4744  0.1984
12381TIP3    H158558   6.511   6.741   3.410 -0.0741  2.2354 -0.4751
12381TIP3    H258559   6.642   6.742   3.486 -0.5055 -0.7254  0.3322
12382TIP3   OH258560   5.396   2.872  13.333 -0.2535  0.1597  0.2331
12382TIP3    H158561   5.376   2.893  13.242  0.8743  0.6291  0.0838
12382TIP3    H258562   5.335   2.925  13.384  0.8498  1.9152 -0.2031
12383TIP3   OH258563   6.483   1.466   1.707  0.0801 -0.2219 -0.1144
12383TIP3    H158564   6.440   1.399   1.654 -0.6171 -0.4346  0.7132
12383TIP3    H258565   6.567   1.480   1.663  1.2885 -3.3681  0.9804
12384TIP3   OH258566   5.947   4.692  15.511 -0.1427 -0.0192 -0.0954
12384TIP3    H158567   5.867   4.653  15.474  0.5984  1.2258 -3.0463
12384TIP3    H258568   5.914   4.762  15.568 -1.2143 -0.5271 -0.0640
12385TIP3   OH258569   1.645   5.189   0.602  0.1723 -0.2686 -0.3543
12385TIP3    H158570   1.577   5.136   0.560  0.9784 -2.2923  0.7801
12385TIP3    H258571   1.693   5.229   0.529 -1.6593  0.4609 -1.1791
12386TIP3   OH258572   4.294   1.327  16.588 -0.7615  0.2891  0.1045
12386TIP3    H158573   4.265   1.332  16.497 -0.4532  0.6557  0.0243
12386TIP3    H258574   4.331   1.239  16.597 -1.9268 -0.2050  0.2166
12387TIP3   OH258575   1.573   2.880  13.489  0.1550 -0.3939  0.4657
12387TIP3    H158576   1.562   2.917  13.576  0.5873 -1.3142  0.9248
12387TIP3    H258577   1.605   2.952  13.435 -0.4446  0.2666  0.9843
12388TIP3   OH258578   2.629   4.721   4.381  0.6537 -0.0990  0.2414
12388TIP3    H158579   2.619   4.726   4.476  1.3439 -0.3455  0.3293
12388TIP3    H258580   2.698   4.784   4.361  1.1235 -0.6923  0.0009
12389TIP3   OH258581   2.699   5.694  16.657 -0.1467  0.5203 -0.2029
12389TIP3    H158582   2.719   5.768  16.714 -2.4850  0.7017  0.4503
12389TIP3    H258583   2.746   5.712  16.576  2.4582  0.7398  1.3118
12390TIP3   OH258584   4.080   0.432   3.378  0.3530  0.3333  0.2331
12390TIP3    H158585   3.999   0.484   3.379  0.2518  0.1922 -0.6355
12390TIP3    H258586   4.126   0.459   3.299 -0.0461 -1.4214 -0.6255
12391TIP3   OH258587   4.856   2.659   6.288 -0.2845  0.0135  0.3171
12391TIP3    H158588   4.919   2.610   6.235  0.0412  0.2256  0.5074
12391TIP3    H258589   4.882   2.642   6.379 -0.4318  0.1941  0.3938
12392TIP3   OH258590   3.052   1.270  15.745 -0.2937  0.4482 -0.6001
12392TIP3    H158591   3.034   1.198  15.805 -0.3477 -0.9281 -2.2062
12392TIP3    H258592   2.965   1.297  15.713 -0.1526 -0.0935 -1.4658
12393TIP3   OH258593   5.053   0.609   1.245 -0.2347 -0.7282  0.6538
12393TIP3    H158594   5.077   0.593   1.337  0.9403 -2.8962 -0.0051
12393TIP3    H258595   4.980   0.671   1.251  0.4213 -0.0959  3.0088
12394TIP3   OH258596   1.331   3.127  11.080 -0.1175  0.1655  0.3729
12394TIP3    H158597   1.286   3.098  11.159  0.2722 -1.7038 -0.0546
12394TIP3    H258598   1.272   3.103  11.009 -0.2280  1.3533  0.0627
12395TIP3   OH258599   0.153   6.321   2.389  0.1316 -0.3088 -0.2884
12395TIP3    H158600   0.182   6.250   2.331  1.2195 -0.9572  1.0124
12395TIP3    H258601   0.101   6.276   2.457  0.6873  0.1483  0.4464
12396TIP3   OH258602   6.464   4.893   0.342  0.4161  0.3588  0.3630
12396TIP3    H158603   6.445   4.887   0.435  0.6277  1.3936  0.4715
12396TIP3    H258604   6.436   4.808   0.306 -0.3364  0.2403  1.2392
12397TIP3   OH258605   2.641   6.309  13.505  0.7222 -0.4306  0.3655
12397TIP3    H158606   2.637   6.215  13.523  2.8359 -0.4230  1.0230
12397TIP3    H258607   2.714   6.319  13.442  1.2152  0.8629  1.1087
12398TIP3   OH258608   0.280   0.125   4.510 -0.2906  0.2938 -0.3876
12398TIP3    H158609   0.232   0.208   4.517  2.1022  1.6121  1.2071
12398TIP3    H258610   0.358   0.147   4.460  1.3476 -0.5090  1.7259
12399TIP3   OH258611   0.651   6.147   1.537  0.0019 -0.1478 -0.3232
12399TIP3    H158612   0.659   6.061   1.496  0.9514 -0.5077  0.5958
12399TIP3    H258613   0.616   6.128   1.624 -1.2906  0.5437 -0.6807
12400TIP3   OH258614   5.483   0.364   3.901  0.1576 -0.0063  0.4153
12400TIP3    H158615   5.557   0.344   3.957  0.7212  1.7621  0.3193
12400TIP3    H258616   5.474   0.459   3.905 -1.6617 -0.1246 -0.1364
12401TIP3   OH258617   0.722   3.372   2.957  0.1983  0.4244 -0.3469
12401TIP3    H158618   0.706   3.286   2.918  3.3514 -1.5634  2.3923
12401TIP3    H258619   0.637   3.400   2.991 -0.5667 -2.4153  0.1898
12402TIP3   OH258620   2.832   1.572   4.400  0.0979  0.5255 -0.3186
12402TIP3    H158621   2.839   1.666   4.414  0.7360  0.2743  1.1459
12402TIP3    H258622   2.816   1.536   4.487 -3.4210 -0.4431 -1.2947
12403TIP3   OH258623   4.504   4.706   3.813  0.1314 -0.0516 -0.3090
12403TIP3    H158624   4.518   4.735   3.722 -2.1653  0.5416 -0.5190
12403TIP3    H258625   4.558   4.765   3.866  3.0610 -1.6768 -1.3984
12404TIP3   OH258626   2.687   4.070   0.402  0.0556 -0.2658  0.6188
12404TIP3    H158627   2.642   3.996   0.443 -0.3503  0.5836  1.7291
12404TIP3    H258628   2.617   4.133   0.382  0.5749  0.5059  1.1758
12405TIP3   OH258629   0.371   2.469   2.672  0.6129 -0.1331 -0.1222
12405TIP3    H158630   0.334   2.393   2.629  0.6372 -0.4349  0.3840
12405TIP3    H258631   0.412   2.519   2.602  0.1407 -0.3194 -0.5312
12406TIP3   OH258632   3.737   2.566  16.629  0.1257 -0.6282 -0.1645
12406TIP3    H158633   3.670   2.511  16.671 -0.3177 -0.2117 -0.3122
12406TIP3    H258634   3.817   2.513  16.631  0.9789  0.6758  4.2345
12407TIP3   OH258635   4.882   1.198   1.372  0.8384 -0.4282  0.3338
12407TIP3    H158636   4.914   1.112   1.345  2.9919 -0.4030  2.6204
12407TIP3    H258637   4.879   1.193   1.467  1.0821  2.0826  0.4943
12408TIP3   OH258638   2.923   3.340  12.665  0.0291  0.1286 -0.3347
12408TIP3    H158639   3.013   3.367  12.687 -0.2404  0.3876  0.4518
12408TIP3    H258640   2.889   3.413  12.613 -0.6411  1.2387  1.6489
12409TIP3   OH258641   4.042   6.131   6.077 -0.1810 -0.0027 -0.1844
12409TIP3    H158642   4.079   6.185   6.146  1.3047  1.1763 -1.8639
12409TIP3    H258643   3.962   6.177   6.050 -1.7946 -1.4240  1.9469
12410TIP3   OH258644   5.986   3.861  14.947  0.2216 -0.4867 -0.3044
12410TIP3    H158645   6.062   3.804  14.947 -0.3916 -1.3296 -1.3354
12410TIP3    H258646   6.021   3.949  14.937  1.3249 -0.4384  3.3763
12411TIP3   OH258647   6.345   3.029  14.543  0.1860 -0.3769  0.5972
12411TIP3    H158648   6.374   3.103  14.597  2.4672 -0.5015 -0.3925
12411TIP3    H258649   6.322   3.068  14.459  1.4601 -0.8013  0.0508
12412TIP3   OH258650   0.706   0.758  12.560 -0.0120  0.4649 -0.0754
12412TIP3    H158651   0.794   0.728  12.583 -0.6397 -2.4003 -1.1790
12412TIP3    H258652   0.718   0.851  12.537  2.9351 -0.1732 -1.3722
12413TIP3   OH258653   4.189   1.659   2.116 -0.1894 -0.1337  0.8689
12413TIP3    H158654   4.128   1.586   2.109 -0.0977 -0.1341  0.0649
12413TIP3    H258655   4.233   1.662   2.031  1.4822 -0.6273  1.6950
12414TIP3   OH258656   5.159   5.967  14.858 -0.2865  0.1251 -0.2570
12414TIP3    H158657   5.187   6.040  14.914 -1.1261 -0.1776  0.5682
12414TIP3    H258658   5.159   5.891  14.917 -3.6137  0.2537 -0.0278
12415TIP3   OH258659   3.214   5.852   0.109  0.4868  0.7034 -0.6367
12415TIP3    H158660   3.225   5.834   0.016  1.0510 -0.0882 -0.4258
12415TIP3    H258661   3.241   5.771   0.153 -0.3603  0.8482  0.1875
12416TIP3   OH258662   5.679   1.070   1.363 -0.4026 -0.0301  0.1345
12416TIP3    H158663   5.685   1.103   1.273  0.3361  1.7346  0.8254
12416TIP3    H258664   5.600   1.110   1.398  0.0374  0.3424  0.7073
12417TIP3   OH258665   1.609   3.183  16.402 -0.1587 -0.0265 -0.2124
12417TIP3    H158666   1.552   3.106  16.397 -1.7134  1.0312  0.7251
12417TIP3    H258667   1.655   3.184  16.318 -3.7193  0.6895 -2.2950
12418TIP3   OH258668   5.459   0.647   3.500 -0.2842 -0.3872  0.6856
12418TIP3    H158669   5.396   0.718   3.488  1.3246  0.8725 -0.4907
12418TIP3    H258670   5.450   0.594   3.421  1.5894  0.9804 -0.4774
12419TIP3   OH258671   2.549   4.995   2.030 -0.2314 -0.1317 -0.1625
12419TIP3    H158672   2.512   5.082   2.016  0.7625  0.3003 -0.1429
12419TIP3    H258673   2.613   5.007   2.099 -0.6715 -1.0476  0.4137
12420TIP3   OH258674   0.610   0.382  12.443  0.6558  0.0323  0.1280
12420TIP3    H158675   0.573   0.368  12.356  0.7821 -1.3963  0.2923
12420TIP3    H258676   0.538   0.365  12.503  0.7017  0.5314  0.3280
12421TIP3   OH258677   5.532   1.621  16.146 -0.8262  0.5092 -0.0745
12421TIP3    H158678   5.453   1.673  16.159 -0.4042  1.2454 -0.4390
12421TIP3    H258679   5.604   1.683  16.153 -0.3215 -0.0057 -0.5682
12422TIP3   OH258680   5.458   4.891  16.541  0.2469 -0.6034  0.2192
12422TIP3    H158681   5.492   4.981  16.534  1.5327 -1.0353  0.6945
12422TIP3    H258682   5.496   4.847  16.465 -1.1746 -0.5073 -0.5600
12423TIP3   OH258683   1.699   1.841   0.575  0.0368 -0.2418 -0.1238
12423TIP3    H158684   1.764   1.781   0.540  1.3608  0.2174  1.4890
12423TIP3    H258685   1.667   1.889   0.498  1.0132 -1.0233 -1.0358
12424TIP3   OH258686   2.540   6.016  15.900  0.0895  0.0977  0.2725
12424TIP3    H158687   2.503   5.935  15.867  0.3497 -0.9402  2.4494
12424TIP3    H258688   2.468   6.079  15.895 -0.2292 -0.3635 -1.0629
12425TIP3   OH258689   1.678   2.980  15.571  0.4966 -0.0644  0.4062
12425TIP3    H158690   1.719   3.032  15.501  2.0033 -0.8736  0.6552
12425TIP3    H258691   1.717   3.013  15.652  1.1342 -1.2776  0.5997
12426TIP3   OH258692   6.256   1.094  14.889  0.7373  0.0751 -0.2540
12426TIP3    H158693   6.293   1.038  14.957 -0.2924 -1.8804 -1.2663
12426TIP3    H258694   6.327   1.104  14.825  1.0144  0.1947  0.0661
12427TIP3   OH258695   0.499   6.288  12.345 -0.0624  0.6455 -0.1791
12427TIP3    H158696   0.523   6.215  12.288 -0.7213  0.5554 -0.3328
12427TIP3    H258697   0.578   6.342  12.348  0.3159  0.1088 -0.3371
12428TIP3   OH258698   1.000   3.686   4.797  0.5179  0.1528  0.0107
12428TIP3    H158699   1.060   3.613   4.783 -1.9028 -1.8003 -0.6664
12428TIP3    H258700   0.985   3.721   4.709 -0.9185 -0.7418 -0.1305
12429TIP3   OH258701   4.824   3.375   4.189 -0.0251 -0.5537  0.3380
12429TIP3    H158702   4.766   3.448   4.208  0.7209  0.1541 -0.0725
12429TIP3    H258703   4.903   3.393   4.240  1.6830  0.9353 -2.6617
12430TIP3   OH258704   6.706   5.125  15.142  0.7239 -0.3843  0.0030
12430TIP3    H158705   6.787   5.169  15.169  1.0441 -0.0958 -1.3462
12430TIP3    H258706   6.736   5.043  15.102  0.2099 -1.2478  1.3739
12431TIP3   OH258707   0.009   6.006  11.288  0.5217  0.5364  0.2769
12431TIP3    H158708   0.007   5.976  11.197 -1.9287 -2.0330  1.1115
12431TIP3    H258709   0.062   5.941  11.334  1.5840  1.7211  0.7879
12432TIP3   OH258710   5.539   3.433  12.204  0.1499  0.0316 -0.0827
12432TIP3    H158711   5.456   3.427  12.251 -0.9774  0.4596 -1.9617
12432TIP3    H258712   5.524   3.386  12.122  1.3953  1.0709 -0.9313
12433TIP3   OH258713   2.561   4.556  15.563  0.2063  0.7120  0.1800
12433TIP3    H158714   2.510   4.637  15.557  1.3545  1.5062  0.7317
12433TIP3    H258715   2.510   4.498  15.618 -0.2955  1.3422  0.3822
12434TIP3   OH258716   2.723   3.576  13.962 -0.0825  0.4045  0.2223
12434TIP3    H158717   2.645   3.527  13.937 -0.4775 -0.1081  2.4300
12434TIP3    H258718   2.789   3.548  13.898 -1.1035 -0.7525 -0.3620
12435TIP3   OH258719   4.422   3.678   0.322  0.7061 -0.4372  0.3133
12435TIP3    H158720   4.412   3.773   0.328  0.9470 -0.3497 -0.7252
12435TIP3    H258721   4.365   3.652   0.250  0.5063 -1.1037  0.7106
12436TIP3   OH258722   2.576   4.075   3.159  0.4361  0.5290  0.1182
12436TIP3    H158723   2.662   4.116   3.158  1.9031 -2.4192 -1.2728
12436TIP3    H258724   2.594   3.981   3.165 -2.6743 -0.1889 -0.6517
12437TIP3   OH258725   4.471   0.092   1.345 -0.4085 -0.1045 -0.1741
12437TIP3    H158726   4.473   0.073   1.438  0.9602 -0.3534 -0.2384
12437TIP3    H258727   4.459   0.007   1.303  1.9408 -0.4039 -0.3168
12438TIP3   OH258728   0.948   0.417   3.458  0.3214  0.1550 -0.1048
12438TIP3    H158729   1.019   0.408   3.394 -0.3963  0.7980 -1.0186
12438TIP3    H258730   0.917   0.328   3.473  0.0367  0.0573 -1.2102
12439TIP3   OH258731   1.274   5.995   3.352  0.0445 -0.2068 -0.7202
12439TIP3    H158732   1.217   6.063   3.388  1.2653  0.7753 -0.6274
12439TIP3    H258733   1.272   6.009   3.258  1.0015  0.5292 -0.6365
12440TIP3   OH258734   2.763   4.694   5.172  0.2568  0.1783  0.1644
12440TIP3    H158735   2.765   4.734   5.258  0.4846 -0.5133  0.4823
12440TIP3    H258736   2.738   4.765   5.113 -1.7205  0.2376  1.0281
12441TIP3   OH258737   6.494   5.556   0.998 -0.4916 -0.4435 -0.0906
12441TIP3    H158738   6.560   5.503   1.044 -0.2434  0.3294  0.4559
12441TIP3    H258739   6.531   5.645   0.997 -1.8538  0.1510  0.8890
12442TIP3   OH258740   2.249   6.522  13.560  0.2396  0.6791 -0.2139
12442TIP3    H158741   2.294   6.566  13.632  2.5451  0.6145 -1.5546
12442TIP3    H258742   2.304   6.540  13.483 -3.3917  2.7123 -2.4181
12443TIP3   OH258743   6.693   3.271   0.115 -0.8310  0.3948 -0.0791
12443TIP3    H158744   6.611   3.310   0.087  0.2058  1.1113 -2.2174
12443TIP3    H258745   6.735   3.241   0.034 -0.0964 -2.1770  1.1984
12444TIP3   OH258746   0.403   5.623   5.240 -0.5437  0.0288  0.5703
12444TIP3    H158747   0.352   5.691   5.284 -1.9558 -0.6204 -0.0212
12444TIP3    H258748   0.422   5.659   5.154 -2.4125 -0.7916 -0.2270
12445TIP3   OH258749   5.918   3.627   5.400  0.2427 -0.3427 -0.8463
12445TIP3    H158750   5.883   3.547   5.438  0.1178 -0.7661 -1.8337
12445TIP3    H258751   5.874   3.698   5.447  1.1560 -0.8321  0.7785
12446TIP3   OH258752   1.829   0.634  16.612 -0.5655  0.5066 -0.2768
12446TIP3    H158753   1.881   0.684  16.674 -2.0887  1.5485  0.1844
12446TIP3    H258754   1.849   0.543  16.632 -0.3525  0.8572  1.1587
12447TIP3   OH258755   2.490   6.709  13.628  0.1570  0.3971 -0.6509
12447TIP3    H158756   2.536   6.745  13.552 -1.1963  0.0412 -1.6580
12447TIP3    H258757   2.398   6.735  13.615 -0.1582 -0.0354  0.6364
12448TIP3   OH258758   5.264   0.721  15.439 -0.1440 -0.2940 -0.3426
12448TIP3    H158759   5.296   0.709  15.529  2.4656 -0.1321 -1.2024
12448TIP3    H258760   5.321   0.666  15.386 -0.7650  0.6956 -2.0686
12449TIP3   OH258761   0.987   3.118   3.197  0.0498 -0.3535  0.8525
12449TIP3    H158762   0.965   3.086   3.110 -1.8603  1.1288  0.7470
12449TIP3    H258763   1.034   3.201   3.181 -1.1828  0.4318  1.2217
12450TIP3   OH258764   6.346   3.216  10.445 -0.2318 -0.2126  0.3985
12450TIP3    H158765   6.409   3.286  10.428 -1.9803  1.4065  0.3819
12450TIP3    H258766   6.379   3.141  10.394  0.5801  1.2088 -1.2189
12451TIP3   OH258767   4.217   3.362   0.461 -0.1296  0.0762 -0.5409
12451TIP3    H158768   4.179   3.408   0.387  0.5553  0.2193 -0.8086
12451TIP3    H258769   4.145   3.351   0.523 -0.7375 -0.1819 -1.2957
12452TIP3   OH258770   5.760   5.459  11.891  0.1590 -1.1083  0.3374
12452TIP3    H158771   5.824   5.518  11.850 -0.5366 -0.5841  0.0082
12452TIP3    H258772   5.701   5.434  11.820 -0.2440 -1.2760  0.7288
12453TIP3   OH258773   1.998   4.084  15.820 -0.5993 -0.9132 -0.5599
12453TIP3    H158774   2.035   4.111  15.736  2.0938 -0.9153  0.5618
12453TIP3    H258775   1.922   4.030  15.797 -0.4608 -0.1233 -2.9577
12454TIP3   OH258776   2.832   6.592   4.014 -0.5635  0.1569  0.1543
12454TIP3    H158777   2.780   6.665   4.048 -2.4450 -1.7573  1.5032
12454TIP3    H258778   2.892   6.570   4.086 -1.2157 -0.7451  0.4366
12455TIP3   OH258779   6.218   2.534   0.253 -0.6162  0.5258  0.1914
12455TIP3    H158780   6.219   2.539   0.349 -0.9312  0.3115  0.2070
12455TIP3    H258781   6.125   2.544   0.230 -0.3584  2.0893 -0.1702
12456TIP3   OH258782   2.950   2.551  14.235 -1.0072 -0.2676 -0.0544
12456TIP3    H158783   2.869   2.565  14.186 -1.5804  2.1861  1.4979
12456TIP3    H258784   2.921   2.516  14.319 -0.4045 -0.1079  0.2225
12457TIP3   OH258785   1.261   4.397   2.428 -0.1089 -0.3497  0.0603
12457TIP3    H158786   1.241   4.477   2.381  0.7897  0.5004  1.0923
12457TIP3    H258787   1.356   4.386   2.418 -0.3783 -1.9384 -1.0706
12458TIP3   OH258788   0.242   5.192  15.964 -0.4016  0.1346 -1.0305
12458TIP3    H158789   0.226   5.179  16.057  0.8462  0.2963 -0.7908
12458TIP3    H258790   0.230   5.286  15.950  1.0100  0.3596 -0.7211
12459TIP3   OH258791   3.767   1.653   5.039 -0.4216 -0.1828 -0.2899
12459TIP3    H158792   3.857   1.663   5.071 -0.3486  2.3833 -1.1253
12459TIP3    H258793   3.713   1.658   5.118 -0.0368  2.3942 -0.1466
12460TIP3   OH258794   2.792   2.199   2.933  0.5857  0.3382 -0.1115
12460TIP3    H158795   2.797   2.265   2.864 -0.4210 -0.2802 -0.7953
12460TIP3    H258796   2.734   2.236   2.999 -1.5611 -0.6256 -1.3952
12461TIP3   OH258797   0.375   4.290   5.157 -0.0513  1.1283  0.0462
12461TIP3    H158798   0.404   4.381   5.150  0.3094  1.0429  0.4217
12461TIP3    H258799   0.302   4.293   5.219 -0.0743  1.1721  0.0172
12462TIP3   OH258800   5.141   5.690  12.774  0.2119  0.8368  0.3024
12462TIP3    H158801   5.092   5.613  12.747 -0.3808  0.7809  1.5019
12462TIP3    H258802   5.087   5.731  12.842  1.2241  1.4742  0.7438
12463TIP3   OH258803   6.435   3.044   3.502  0.5597 -0.4543 -0.4250
12463TIP3    H158804   6.447   3.072   3.592 -2.2349 -2.0921  0.5427
12463TIP3    H258805   6.449   2.950   3.504  2.6018 -0.2048 -2.1489
12464TIP3   OH258806   2.943   3.428  11.687 -0.0235  0.3882  0.0244
12464TIP3    H158807   2.861   3.379  11.693  1.0004 -1.6252 -1.7647
12464TIP3    H258808   2.917   3.512  11.648 -1.1003 -0.6407 -1.5439
12465TIP3   OH258809   0.564   3.285  17.059  0.1231 -0.4269 -0.2986
12465TIP3    H158810   0.479   3.324  17.079 -0.2997 -0.9242 -1.0952
12465TIP3    H258811   0.565   3.276  16.964  0.4497 -1.8183 -0.1754
12466TIP3   OH258812   3.505   2.754   4.774  0.2698  0.7544 -0.0906
12466TIP3    H158813   3.544   2.836   4.804 -0.1822  1.5237 -1.5396
12466TIP3    H258814   3.413   2.761   4.799  0.4963  0.0958  0.9668
12467TIP3   OH258815   3.775   4.841  13.065  0.4457 -0.2871 -0.3491
12467TIP3    H158816   3.731   4.759  13.041 -1.1317  0.1400  1.0591
12467TIP3    H258817   3.814   4.871  12.983 -1.2840 -1.0425 -1.4782
12468TIP3   OH258818   4.680   2.830   6.107  0.0918 -0.5359 -0.3505
12468TIP3    H158819   4.737   2.777   6.164  1.6189  0.4145 -0.9462
12468TIP3    H258820   4.618   2.870   6.167  1.5149  0.2336  0.6549
12469TIP3   OH258821   4.199   0.771  16.026 -0.2126  0.0892  0.3028
12469TIP3    H158822   4.124   0.787  15.969 -0.5027 -0.2469  0.5932
12469TIP3    H258823   4.163   0.775  16.114  0.4170  1.6093  0.5029
12470TIP3   OH258824   5.811   0.538  12.716 -0.3241 -0.6755  0.1300
12470TIP3    H158825   5.717   0.528  12.733 -0.6093  1.8017  0.1775
12470TIP3    H258826   5.820   0.628  12.685  2.1948 -0.5378  1.1644
12471TIP3   OH258827   4.948   6.266  15.514 -0.0373 -0.5034  0.1044
12471TIP3    H158828   4.874   6.302  15.465  0.0962  0.8487  0.8682
12471TIP3    H258829   4.978   6.193  15.461 -0.9519 -0.1017 -0.9952
12472TIP3   OH258830   0.281   3.688   1.818 -0.5149 -0.4061  0.1418
12472TIP3    H158831   0.266   3.734   1.900 -0.9982 -0.5194  0.1178
12472TIP3    H258832   0.215   3.618   1.817  0.5784 -1.4704  0.4621
12473TIP3   OH258833   3.961   4.348   1.296 -0.7349 -0.6192 -0.0648
12473TIP3    H158834   3.916   4.290   1.358 -0.4263 -0.6179  0.1621
12473TIP3    H258835   3.984   4.292   1.223  0.5199 -1.0268  0.6282
12474TIP3   OH258836   5.783   6.317   3.298  0.3540  0.2382  0.3282
12474TIP3    H158837   5.725   6.242   3.282 -0.0025  0.3520  1.0649
12474TIP3    H258838   5.767   6.375   3.224 -0.0530  0.0052  0.2320
12475TIP3   OH258839   5.681   2.727   3.903 -0.1115 -0.0940  0.0737
12475TIP3    H158840   5.733   2.795   3.946 -0.5496 -1.7491  3.3671
12475TIP3    H258841   5.593   2.738   3.938 -0.6141 -1.1752 -0.8073
12476TIP3   OH258842   3.658   6.259  14.130  0.2261 -0.1354 -0.4894
12476TIP3    H158843   3.585   6.202  14.154  0.6703  0.1157  1.5709
12476TIP3    H258844   3.617   6.336  14.093 -0.4542 -0.9916 -1.5382
12477TIP3   OH258845   6.718   3.666  14.914 -0.1368  0.6593  0.8189
12477TIP3    H158846   6.797   3.692  14.868  0.0330 -1.1559  0.0414
12477TIP3    H258847   6.749   3.629  14.997 -0.1288 -0.4046  0.3509
12478TIP3   OH258848   2.190   1.659  14.111  0.1401 -0.0928 -0.2261
12478TIP3    H158849   2.174   1.565  14.121 -2.0127  0.2792  0.0845
12478TIP3    H258850   2.251   1.666  14.038  1.5468 -1.8138  0.7555
12479TIP3   OH258851   4.238   4.099  13.026 -0.1808 -0.0344  0.1252
12479TIP3    H158852   4.295   4.022  13.034  0.1651  0.1611 -0.4131
12479TIP3    H258853   4.163   4.079  13.082  0.0150 -0.6662  0.1698
12480TIP3   OH258854   6.054   1.952   5.504 -0.3346  0.0155 -0.1982
12480TIP3    H158855   6.094   2.036   5.525 -0.7214  0.4689 -1.2490
12480TIP3    H258856   6.037   1.956   5.410 -1.8022 -0.6124  0.0314
12481TIP3   OH258857   1.391   3.337  10.892  0.7088  0.8312  0.1567
12481TIP3    H158858   1.372   3.281  10.968  2.1354  0.5699  0.3430
12481TIP3    H258859   1.441   3.280  10.833  0.4780  1.3368 -0.5208
12482TIP3   OH258860   2.933   6.497  13.578  0.2424  0.3226 -0.2838
12482TIP3    H158861   2.915   6.423  13.521 -0.1435 -0.0126  0.2679
12482TIP3    H258862   2.900   6.573  13.530 -0.8081 -0.0528 -0.1641
12483TIP3   OH258863   6.526   5.001   1.155  0.0269 -0.5508  0.7516
12483TIP3    H158864   6.607   4.994   1.206  0.4428  0.1832  0.2172
12483TIP3    H258865   6.517   4.916   1.112 -0.6814 -1.4050  2.5541
12484TIP3   OH258866   5.220   4.246  12.637 -0.1603  0.1542 -0.3217
12484TIP3    H158867   5.208   4.152  12.641  0.6184  0.0435 -0.4300
12484TIP3    H258868   5.315   4.258  12.626 -0.0719  0.9904  1.1534
12485TIP3   OH258869   5.172   4.036   4.316 -0.0872 -0.3355  0.0363
12485TIP3    H158870   5.263   4.064   4.321 -0.3604  0.1664  2.8328
12485TIP3    H258871   5.177   3.940   4.309  0.6539 -0.4597  1.9532
12486TIP3   OH258872   3.522   2.923  16.855 -0.3087 -0.0585 -0.3985
12486TIP3    H158873   3.530   3.016  16.874 -0.5175 -0.0169 -0.5126
12486TIP3    H258874   3.593   2.905  16.793  0.2008 -0.1391  0.1993
12487TIP3   OH258875   1.254   3.088   2.797  0.4026  0.4153 -0.1707
12487TIP3    H158876   1.195   3.119   2.728  1.3082 -0.0264 -1.1452
12487TIP3    H258877   1.196   3.044   2.860 -0.4332  0.8948 -0.6011
12488TIP3   OH258878   3.888   2.074   1.082 -0.6813 -1.0252  0.2454
12488TIP3    H158879   3.793   2.062   1.076 -1.1619  1.8606  1.4956
12488TIP3    H258880   3.904   2.096   1.174  1.1163 -0.6783 -0.1326
12489TIP3   OH258881   4.300   0.512  16.031 -0.0800  0.0953 -0.1655
12489TIP3    H158882   4.270   0.461  16.106  0.7165  0.5488  0.4680
12489TIP3    H258883   4.269   0.601  16.049  1.5245  0.5509  0.4487
12490TIP3   OH258884   0.382   6.278   4.959 -0.0827 -0.9217  0.0739
12490TIP3    H158885   0.448   6.347   4.958  0.5540 -1.5267 -0.2099
12490TIP3    H258886   0.298   6.325   4.968  0.5076 -0.2494  2.7952
12491TIP3   OH258887   5.547   5.486  12.184  0.7489 -0.4262 -0.0800
12491TIP3    H158888   5.512   5.501  12.096  1.2079 -1.0186 -0.3688
12491TIP3    H258889   5.620   5.425  12.171  1.7122  0.5836  0.5410
12492TIP3   OH258890   6.562   0.862   3.176 -0.0026  0.6649 -0.2409
12492TIP3    H158891   6.531   0.773   3.160 -1.1075  1.3158 -1.8372
12492TIP3    H258892   6.588   0.862   3.268 -0.4276 -1.1789 -0.1020
12493TIP3   OH258893   4.200   0.425   5.230  0.1144 -0.1923 -0.3605
12493TIP3    H158894   4.141   0.351   5.242  0.6205 -0.4746  0.4122
12493TIP3    H258895   4.184   0.482   5.306 -0.7612  0.8353 -1.2915
12494TIP3   OH258896   2.953   5.032   3.452 -0.5550  0.1563 -0.1580
12494TIP3    H158897   2.939   4.942   3.420 -2.0132  0.7843 -1.3488
12494TIP3    H258898   3.008   5.021   3.530  0.1821 -1.6871 -0.8985
12495TIP3   OH258899   5.375   6.171  16.755  0.4611  0.0389 -0.5995
12495TIP3    H158900   5.453   6.187  16.808  0.2879  0.8819 -0.5963
12495TIP3    H258901   5.410   6.147  16.669  0.7241  2.1279 -1.0938
12496TIP3   OH258902   3.315   4.498  15.643 -0.0278 -0.5064 -1.2456
12496TIP3    H158903   3.391   4.546  15.611  0.7372 -0.2968  0.8043
12496TIP3    H258904   3.349   4.412  15.668 -0.6106 -0.6725 -1.0070
12497TIP3   OH258905   0.695   5.243  12.174  0.2355  0.7227  0.1384
12497TIP3    H158906   0.694   5.277  12.263 -1.2399 -0.4818  0.5878
12497TIP3    H258907   0.677   5.320  12.119  2.3043  1.6905  0.7627
12498TIP3   OH258908   6.086   1.606   3.409  0.4771 -0.0168 -0.8289
12498TIP3    H158909   6.037   1.563   3.478  0.1602 -0.8364 -1.5494
12498TIP3    H258910   6.068   1.699   3.421 -0.7125 -0.2595 -0.6700
12499TIP3   OH258911   4.115   3.506   0.258  0.6298 -0.1489 -0.2612
12499TIP3    H158912   4.029   3.521   0.218  0.2595 -2.4429 -0.4164
12499TIP3    H258913   4.127   3.580   0.317 -1.6754 -0.0131  0.0910
12500TIP3   OH258914   0.121   1.790  11.404 -0.3579  0.0973  0.2612
12500TIP3    H158915   0.137   1.696  11.416 -1.1489  0.0920  1.3231
12500TIP3    H258916   0.200   1.832  11.438  0.4209 -0.2215 -1.1380
12501TIP3   OH258917   2.387   6.542   2.814 -0.6531  0.1096 -0.3146
12501TIP3    H158918   2.429   6.625   2.793 -1.5540  0.9533  1.1895
12501TIP3    H258919   2.293   6.559   2.810 -0.8600 -1.0942 -0.9861
12502TIP3   OH258920   1.546   4.285  13.515  0.6641 -0.3804 -0.3378
12502TIP3    H158921   1.530   4.375  13.488  1.0461 -0.4218 -0.7007
12502TIP3    H258922   1.496   4.275  13.596  0.5065  0.1126 -0.3726
12503TIP3   OH258923   6.098   2.636  14.095 -0.1026  0.2131  1.1529
12503TIP3    H158924   6.136   2.654  14.009 -0.1255  1.9468  1.4876
12503TIP3    H258925   6.010   2.603  14.076  0.6007 -1.3341  0.4653
12504TIP3   OH258926   1.475   2.273  16.220  0.2707  0.2239  0.2023
12504TIP3    H158927   1.502   2.364  16.205  0.0984  0.1205 -0.8189
12504TIP3    H258928   1.380   2.278  16.231  0.2999  0.2048  0.4580
12505TIP3   OH258929   1.772   5.356   6.422 -0.5512  0.3415 -0.1730
12505TIP3    H158930   1.789   5.301   6.498 -1.8625  0.7589  0.4392
12505TIP3    H258931   1.688   5.324   6.388  0.4672 -0.4909 -2.0312
12506TIP3   OH258932   4.677   6.083   5.495  0.0606 -0.0885 -0.2232
12506TIP3    H158933   4.710   6.012   5.549 -0.7653 -0.4971 -0.2440
12506TIP3    H258934   4.582   6.066   5.489 -0.2712  1.4746  0.4551
12507TIP3   OH258935   4.808   6.700  12.387  0.1089 -0.3525  0.2054
12507TIP3    H158936   4.761   6.723  12.467  0.1718 -0.0861  0.1644
12507TIP3    H258937   4.900   6.694  12.413  0.1912  0.2443  0.0400
12508TIP3   OH258938   2.109   5.367   1.650  0.3857 -0.0668  0.1943
12508TIP3    H158939   2.114   5.272   1.661  1.4257  0.1997  2.0678
12508TIP3    H258940   2.017   5.388   1.666 -0.2812 -0.9766 -2.2123
12509TIP3   OH258941   6.657   6.605  13.739 -0.0117 -0.0972 -0.1665
12509TIP3    H158942   6.728   6.669  13.743  1.3981 -1.5190 -1.5887
12509TIP3    H258943   6.577   6.657  13.749  1.2134  1.5163  1.5726
12510TIP3   OH258944   2.262   5.294  13.157  0.6354 -0.1472 -0.0020
12510TIP3    H158945   2.209   5.247  13.220  1.0755 -0.5979  0.0364
12510TIP3    H258946   2.348   5.302  13.198 -0.0638  2.8486  1.0400
12511TIP3   OH258947   0.346   2.757   5.318 -0.2094 -0.4946  0.2900
12511TIP3    H158948   0.397   2.783   5.242 -3.1489  1.8797 -0.9604
12511TIP3    H258949   0.280   2.697   5.284 -0.5874 -0.6398  1.2482
12512TIP3   OH258950   6.426   0.963   4.291 -0.0865  0.0106  0.0889
12512TIP3    H158951   6.443   0.901   4.362 -0.2615  1.4077  1.3892
12512TIP3    H258952   6.375   1.033   4.332  0.1950  1.0702 -1.3129
12513TIP3   OH258953   2.619   6.137   3.986 -0.1646  0.5004 -0.4990
12513TIP3    H158954   2.577   6.091   3.913  1.5933 -1.2371 -0.4311
12513TIP3    H258955   2.694   6.181   3.947  0.4185  0.0895  0.1639
12514TIP3   OH258956   6.131   0.909   5.913  0.0267  0.6614  0.7749
12514TIP3    H158957   6.125   0.956   5.996  1.6922  1.2558  0.5717
12514TIP3    H258958   6.121   0.977   5.846  0.6240  0.4607  0.4824
12515TIP3   OH258959   3.410   6.047  15.711 -0.0320 -0.0402  0.0691
12515TIP3    H158960   3.499   6.019  15.687 -0.1547 -0.7053  0.3984
12515TIP3    H258961   3.359   5.967  15.712 -0.3275  0.1544  1.2550
12516TIP3   OH258962   4.923   3.137   6.654  0.5831  0.3626  0.2790
12516TIP3    H158963   4.852   3.140   6.718  0.2572 -0.1680 -0.0511
12516TIP3    H258964   4.916   3.050   6.614  2.1182 -0.1408  1.0330
12517TIP3   OH258965   3.126   6.161   5.317  0.3512  0.6921 -0.3628
12517TIP3    H158966   3.083   6.082   5.284  0.0779  0.8920 -0.4877
12517TIP3    H258967   3.219   6.142   5.308  0.3400 -0.5796  1.8763
12518TIP3   OH258968   4.137   1.940  15.210 -0.3764 -0.0017  0.1171
12518TIP3    H158969   4.194   1.954  15.134 -0.1007  0.2924  0.3797
12518TIP3    H258970   4.071   2.008  15.203 -0.3146  0.0641  0.1746
12519TIP3   OH258971   5.565   4.183  15.229  0.7824  0.7514 -0.1205
12519TIP3    H158972   5.639   4.232  15.193  0.8186  1.4663  0.8924
12519TIP3    H258973   5.488   4.230  15.197  0.7543 -0.1465 -1.3895
12520TIP3   OH258974   3.943   1.661   3.429  0.1904 -0.1220 -0.5947
12520TIP3    H158975   3.847   1.652   3.433  0.3403 -2.2628 -1.4606
12520TIP3    H258976   3.959   1.704   3.345  0.0232 -0.1165 -0.6252
12521TIP3   OH258977   0.896   2.856   3.277  0.4074 -0.3734  0.2662
12521TIP3    H158978   0.904   2.794   3.205  1.0198  0.2349 -0.1936
12521TIP3    H258979   0.911   2.942   3.237  1.1592 -0.0663  1.1844
12522TIP3   OH258980   4.367   4.160  16.288  0.1152 -0.9482  0.1646
12522TIP3    H158981   4.321   4.080  16.264 -0.3568 -0.0043 -2.2109
12522TIP3    H258982   4.409   4.140  16.371 -0.4809 -3.4525 -0.1159
12523TIP3   OH258983   0.868   3.121  17.213  0.2881 -0.1621  0.5195
12523TIP3    H158984   0.873   3.033  17.177  0.8614 -0.0883  0.4072
12523TIP3    H258985   0.872   3.178  17.136 -1.2594 -0.0602  0.5031
12524TIP3   OH258986   0.236   3.168  12.954 -0.5428 -0.1480 -0.0112
12524TIP3    H158987   0.298   3.105  12.916 -1.1467 -0.7970  0.0640
12524TIP3    H258988   0.276   3.253  12.937  0.2814 -0.5444 -0.1296
12525TIP3   OH258989   3.950   0.749   2.399 -0.1377  0.0093  0.5972
12525TIP3    H158990   3.939   0.812   2.471  0.6452  1.0700 -0.1944
12525TIP3    H258991   3.868   0.755   2.350 -0.8674 -1.0614  1.6428
12526TIP3   OH258992   0.177   5.681  12.747  0.7406  0.3226  0.1441
12526TIP3    H158993   0.169   5.734  12.826 -2.0010 -0.3704  0.3559
12526TIP3    H258994   0.180   5.745  12.676 -0.2184  0.8313  0.5570
12527TIP3   OH258995   3.056   4.358   4.633 -0.2915  0.3747  0.6886
12527TIP3    H158996   3.101   4.368   4.549 -1.2748 -3.7860 -0.4714
12527TIP3    H258997   3.125   4.335   4.695  0.3600  2.9602  1.0008
12528TIP3   OH258998   5.102   0.774   3.304  0.5468 -0.1819  0.0782
12528TIP3    H158999   5.017   0.818   3.303 -0.5917 -2.0146  4.3064
12528TIP3    H259000   5.085   0.686   3.270  0.5541 -0.7608  1.5136
12529TIP3   OH259001   5.659   3.999   3.409  0.0100 -0.1817 -0.4348
12529TIP3    H159002   5.634   3.955   3.491 -3.0676 -0.2467 -1.3266
12529TIP3    H259003   5.731   3.947   3.374 -0.5893 -1.8641  0.7834
12530TIP3   OH259004   2.246   1.058  14.440  0.4549 -0.1913  0.1170
12530TIP3    H159005   2.298   1.056  14.359  1.5865  1.2632  0.7902
12530TIP3    H259006   2.267   0.976  14.484  2.6877  0.6546  0.6726
12531TIP3   OH259007   5.348   3.775   2.466  0.3826  0.2025 -0.0159
12531TIP3    H159008   5.291   3.725   2.407  0.9154 -1.5349  0.8857
12531TIP3    H259009   5.293   3.846   2.498 -0.7656 -0.4519 -0.4871
12532TIP3   OH259010   2.986   0.091  11.436  0.9849 -0.4500  0.2748
12532TIP3    H159011   2.983  -0.004  11.427  1.5985 -0.5100  0.7087
12532TIP3    H259012   2.928   0.110  11.510  0.9413 -0.4933  0.2512
12533TIP3   OH259013   0.729   2.563   6.025  0.2665  0.3087  0.1399
12533TIP3    H159014   0.717   2.629   6.094  1.1416  1.1093 -0.4562
12533TIP3    H259015   0.689   2.484   6.060 -1.8546  1.4697  0.3895
12534TIP3   OH259016   3.730   1.971   0.237  0.1117  0.3674 -0.1217
12534TIP3    H159017   3.672   1.924   0.177  1.2440 -0.3641 -0.6531
12534TIP3    H259018   3.770   2.039   0.183  1.0695 -0.2399 -0.1880
12535TIP3   OH259019   2.856   2.446  16.784 -0.1865  0.1583 -0.3413
12535TIP3    H159020   2.909   2.481  16.713 -0.2508 -0.6855 -0.8127
12535TIP3    H259021   2.919   2.406  16.844 -0.1816  0.3744 -0.1999
12536TIP3   OH259022   0.567   2.335  11.140 -0.6171  0.3313 -0.1490
12536TIP3    H159023   0.529   2.307  11.223  1.5393 -0.8415  0.4748
12536TIP3    H259024   0.552   2.262  11.080 -0.4296  0.3789 -0.2532
12537TIP3   OH259025   0.326   2.265   1.770  0.0534  0.2566  0.1068
12537TIP3    H159026   0.304   2.172   1.774  0.3081  0.1413 -0.9047
12537TIP3    H259027   0.348   2.280   1.678 -3.3923  2.0879 -0.4693
12538TIP3   OH259028   2.046   6.155   5.539 -0.3663 -0.0086  0.2560
12538TIP3    H159029   1.985   6.120   5.473 -0.5460 -0.5659  0.7109
12538TIP3    H259030   2.061   6.081   5.598 -1.9712  1.1271  2.1305
12539TIP3   OH259031   1.966   3.700  12.903 -0.0101  0.1309  0.6402
12539TIP3    H159032   2.011   3.687  12.820 -4.1110  0.4411 -1.7547
12539TIP3    H259033   1.945   3.793  12.905 -0.1531  0.0793  1.9294
12540TIP3   OH259034   3.137   4.091  13.246  0.2224 -0.2093  0.4224
12540TIP3    H159035   3.103   4.089  13.157  0.6871 -1.9361  0.2617
12540TIP3    H259036   3.060   4.096  13.302 -0.2708 -2.6668  0.0181
12541TIP3   OH259037   3.635   4.958  15.333  0.0584 -0.0963 -0.0237
12541TIP3    H159038   3.718   4.997  15.361  0.2439 -1.2992  1.2039
12541TIP3    H259039   3.654   4.921  15.247  1.0604 -1.0984  0.6036
12542TIP3   OH259040   4.590   2.662   5.321 -0.1984 -0.5503 -0.1575
12542TIP3    H159041   4.640   2.610   5.384  1.2968 -1.1856 -1.8295
12542TIP3    H259042   4.537   2.598   5.273 -0.5798 -0.1862 -0.2326
12543TIP3   OH259043   2.285   5.532   0.492  0.3872 -0.2199  0.2462
12543TIP3    H159044   2.214   5.479   0.528  0.4258  0.3194  1.1474
12543TIP3    H259045   2.261   5.546   0.401  0.8550 -2.6020 -0.2946
12544TIP3   OH259046   0.759   6.702  13.457 -0.3142  0.3621 -0.1373
12544TIP3    H159047   0.739   6.630  13.396  0.2039  1.2885 -1.4228
12544TIP3    H259048   0.815   6.761  13.406 -3.5288  3.4479 -0.2801
12545TIP3   OH259049   0.186   1.177   1.101  0.1118  0.3906 -0.1313
12545TIP3    H159050   0.157   1.126   1.025  2.2346  0.8302 -1.2704
12545TIP3    H259051   0.110   1.231   1.124 -1.2037 -1.2026 -0.6887
12546TIP3   OH259052   2.680   2.338   2.187  0.1407  0.2593 -0.4307
12546TIP3    H159053   2.745   2.307   2.250  0.8092 -1.0322 -1.7243
12546TIP3    H259054   2.630   2.260   2.163  0.0461  0.6917 -1.6672
12547TIP3   OH259055   4.624   3.549   4.352  0.1890  0.0400 -0.4599
12547TIP3    H159056   4.602   3.575   4.441  1.3988 -0.0293 -0.1345
12547TIP3    H259057   4.570   3.472   4.336  0.7677 -0.6050  0.6219
12548TIP3   OH259058   1.866   2.816  11.566 -0.9711  0.2275  0.1271
12548TIP3    H159059   1.807   2.791  11.495 -0.7437  2.1937 -0.7822
12548TIP3    H259060   1.860   2.911  11.571  2.6160  0.5813 -0.4455
12549TIP3   OH259061   4.027   0.917  11.595  0.4145 -0.2115 -0.0940
12549TIP3    H159062   3.971   0.870  11.658  1.0518  0.7776  1.2239
12549TIP3    H259063   4.106   0.863  11.589  0.5812 -0.0240  0.3801
12550TIP3   OH259064   4.403   4.491   0.589 -0.2178  0.1404 -0.3163
12550TIP3    H159065   4.438   4.405   0.564 -2.6660 -0.1602 -2.9272
12550TIP3    H259066   4.480   4.549   0.589  1.0703 -1.5208 -0.9430
12551TIP3   OH259067   0.978   2.245   1.138 -0.1097 -0.0883  0.3762
12551TIP3    H159068   1.036   2.260   1.063  0.6193 -0.4926  0.8539
12551TIP3    H259069   0.948   2.154   1.128 -1.5119  0.4490 -0.4459
12552TIP3   OH259070   1.469   2.473   4.839 -0.5468 -0.1503 -0.2385
12552TIP3    H159071   1.432   2.476   4.750 -1.2027  0.9368  0.0606
12552TIP3    H259072   1.508   2.386   4.846  1.8474  0.6612 -2.5485
12553TIP3   OH259073   3.285   3.504   2.442 -0.2007 -0.3911 -0.2798
12553TIP3    H159074   3.190   3.500   2.433 -0.4408  0.9467  1.4454
12553TIP3    H259075   3.302   3.499   2.536  1.4096 -0.2677 -0.5377
12554TIP3   OH259076   0.435   5.612  12.739  0.1981 -0.8125 -0.1915
12554TIP3    H159077   0.452   5.530  12.692  2.4539  0.9510 -2.5877
12554TIP3    H259078   0.340   5.612  12.752 -0.0943 -2.8803 -1.9617
12555TIP3   OH259079   0.300   1.815  11.617  0.3216  0.1473  0.0368
12555TIP3    H159080   0.250   1.743  11.654 -1.2841  0.7704 -0.8801
12555TIP3    H259081   0.390   1.783  11.614  0.2107 -0.5143  2.8909
12556TIP3   OH259082   3.524   3.933   4.527 -0.4621 -0.1350  0.5099
12556TIP3    H159083   3.505   3.867   4.461  0.0541 -0.5133  0.7417
12556TIP3    H259084   3.550   3.883   4.605  3.7163  0.4168 -0.4433
12557TIP3   OH259085   0.421   5.399   1.039 -0.2158  0.1339 -0.7059
12557TIP3    H159086   0.369   5.323   1.012 -0.1222  0.4247 -1.7220
12557TIP3    H259087   0.382   5.473   0.993  0.6331  0.4680 -0.9121
12558TIP3   OH259088   1.226   2.847   4.737 -0.3307  0.6025 -0.2253
12558TIP3    H159089   1.198   2.781   4.673  0.1515  0.7003 -0.5349
12558TIP3    H259090   1.163   2.838   4.809  1.2013 -1.9029  0.8555
12559TIP3   OH259091   2.898   4.897   2.504  0.4282  0.1269  0.5866
12559TIP3    H159092   2.976   4.851   2.534  0.3097 -0.2480  0.3217
12559TIP3    H259093   2.884   4.865   2.415  0.7147  1.1512  0.1601
12560TIP3   OH259094   4.870   4.525   2.158  0.0594  0.9389 -0.2082
12560TIP3    H159095   4.906   4.445   2.196 -0.1962  0.2911 -1.3194
12560TIP3    H259096   4.919   4.536   2.077 -0.5075  1.4407 -0.4823
12561TIP3   OH259097   4.733   0.246  15.532 -0.1804  0.5417  0.4474
12561TIP3    H159098   4.783   0.288  15.601 -1.2712  1.1804  0.8691
12561TIP3    H259099   4.720   0.156  15.563 -1.7354  1.1659  1.6899
12562TIP3   OH259100   2.054   3.580  16.154 -0.2026  0.8133 -0.2734
12562TIP3    H159101   1.969   3.537  16.165  0.2145 -0.5232 -1.9671
12562TIP3    H259102   2.091   3.583  16.242 -0.0886 -2.6904 -0.1225
12563TIP3   OH259103   3.467   4.786   2.051 -0.5705 -0.1757 -0.4394
12563TIP3    H159104   3.504   4.778   2.139 -2.8452  1.2199  0.6915
12563TIP3    H259105   3.409   4.710   2.042  0.9331 -1.2361 -1.4122
12564TIP3   OH259106   0.980   3.073   2.902  0.3101 -0.0251 -0.0614
12564TIP3    H159107   0.987   3.152   2.848 -0.7773  1.1545  1.4489
12564TIP3    H259108   0.902   3.028   2.868  1.8987 -1.3521 -2.0254
12565TIP3   OH259109   5.608   3.443  14.715 -0.6603  0.0551  0.3181
12565TIP3    H159110   5.566   3.451  14.629 -3.7111 -0.7086  1.6584
12565TIP3    H259111   5.663   3.521  14.721  0.4342 -0.4161 -2.7362
12566TIP3   OH259112   2.049   4.315  12.904  0.1761 -0.3226 -0.1774
12566TIP3    H159113   1.955   4.302  12.913 -0.3993  3.3637 -0.1643
12566TIP3    H259114   2.061   4.342  12.814  0.4633  4.4801  1.1899
12567TIP3   OH259115   5.587   5.387  10.964  0.2594 -0.6459 -0.9517
12567TIP3    H159116   5.647   5.406  10.892  1.3977 -0.4278  0.0271
12567TIP3    H259117   5.617   5.444  11.036 -1.4079 -0.1927 -0.5762
12568TIP3   OH259118   2.318   0.028   4.647  0.0100 -0.1118  0.2846
12568TIP3    H159119   2.267  -0.048   4.618  0.5990 -0.1551 -0.6673
12568TIP3    H259120   2.268   0.065   4.719 -0.8054 -0.8031  0.0758
12569TIP3   OH259121   5.463   1.566   5.371  0.1789  0.6364 -0.0712
12569TIP3    H159122   5.441   1.612   5.289 -0.5319  0.2391 -0.1070
12569TIP3    H259123   5.380   1.557   5.416  0.1684 -1.3102 -0.4255
12570TIP3   OH259124   4.824   2.744   1.605 -0.1844 -0.0534 -0.2804
12570TIP3    H159125   4.876   2.820   1.630 -1.2086  0.4426  0.3965
12570TIP3    H259126   4.802   2.759   1.513  1.0584 -0.3861 -0.6367
12571TIP3   OH259127   3.585   0.614  14.438  0.1538 -0.0126  0.5312
12571TIP3    H159128   3.569   0.564  14.357 -2.4447 -0.5676  1.3415
12571TIP3    H259129   3.642   0.557  14.490  0.7059 -0.2565 -0.3302
12572TIP3   OH259130   6.570   5.643   1.883 -0.0753  0.3002 -0.5487
12572TIP3    H159131   6.483   5.604   1.892  0.6030 -0.7275  2.0306
12572TIP3    H259132   6.627   5.569   1.859  0.2404  0.8008 -1.3519
12573TIP3   OH259133   6.209   2.690  12.305  0.0138 -0.0804  0.3407
12573TIP3    H159134   6.240   2.763  12.358  0.5461  0.6951 -0.9986
12573TIP3    H259135   6.159   2.732  12.235 -0.3169 -1.0542 -0.0141
12574TIP3   OH259136   6.365   3.975  13.304  0.0403 -0.4822  0.1830
12574TIP3    H159137   6.287   3.970  13.248  0.0936  0.4065  0.0184
12574TIP3    H259138   6.431   3.924  13.258  0.1843  0.5245 -0.7622
12575TIP3   OH259139   2.727   0.513  10.671  0.8314 -0.4766 -0.5325
12575TIP3    H159140   2.812   0.501  10.629  0.9681 -0.8524 -0.1483
12575TIP3    H259141   2.746   0.508  10.765  0.6118  0.8438 -0.4016
12576TIP3   OH259142   4.342   3.086  14.697 -0.3975 -0.2242 -0.1207
12576TIP3    H159143   4.359   3.027  14.624  0.2098  0.7212 -0.7562
12576TIP3    H259144   4.418   3.077  14.755 -0.0262  0.3746 -0.5154
12577TIP3   OH259145   0.183   0.862  14.948  0.1523  0.2718 -0.3086
12577TIP3    H159146   0.122   0.935  14.945 -0.2063 -0.0344 -0.5540
12577TIP3    H259147   0.171   0.817  14.865 -0.2229 -0.5416  0.1812
12578TIP3   OH259148   5.568   5.550  15.440 -0.8630  0.5799  0.1111
12578TIP3    H159149   5.570   5.458  15.414 -0.9144  0.7216 -0.4055
12578TIP3    H259150   5.648   5.587  15.401 -1.6112  1.0891 -0.9544
12579TIP3   OH259151   4.416   6.386   4.515  0.1336 -0.7926 -0.0418
12579TIP3    H159152   4.323   6.390   4.535 -0.1055 -1.4156 -1.0151
12579TIP3    H259153   4.422   6.413   4.423  0.9919 -0.0450  0.2203
12580TIP3   OH259154   0.215   2.708  15.310 -0.0974 -0.1159 -0.0290
12580TIP3    H159155   0.236   2.800  15.327 -0.7076 -0.1105  0.7653
12580TIP3    H259156   0.298   2.662  15.318  0.1195  0.2934  0.0919
12581TIP3   OH259157   5.155   1.113   1.574  0.2259  0.0186 -0.6062
12581TIP3    H159158   5.084   1.070   1.527 -1.6287 -0.6185  2.6100
12581TIP3    H259159   5.227   1.050   1.574 -0.2405 -0.5101 -1.3918
12582TIP3   OH259160   1.976   6.489   0.518  0.2357 -0.1139  0.1315
12582TIP3    H159161   1.921   6.550   0.467 -2.0620 -2.1358  0.0990
12582TIP3    H259162   1.952   6.506   0.609 -2.7026 -2.9923 -0.0234
12583TIP3   OH259163   1.431   0.377  14.430 -0.3383  0.2579 -0.6500
12583TIP3    H159164   1.462   0.414  14.348  1.6053 -2.4072 -1.1818
12583TIP3    H259165   1.475   0.428  14.498  1.4276 -0.2965 -1.3541
12584TIP3   OH259166   2.473   5.835  11.813  0.0545  0.0186  0.2909
12584TIP3    H159167   2.495   5.841  11.720  1.7448 -0.0785  0.6821
12584TIP3    H259168   2.386   5.794  11.814 -0.5634  1.2112 -1.2961
12585TIP3   OH259169   6.107   0.068  14.428  0.4620  0.1631 -0.0073
12585TIP3    H159170   6.167   0.135  14.396 -2.4149  2.8115 -0.0510
12585TIP3    H259171   6.022   0.094  14.394 -0.7789 -3.4177  0.1875
12586TIP3   OH259172   4.580   2.896  11.928 -0.6506  0.3106 -0.0630
12586TIP3    H159173   4.628   2.822  11.965 -1.2994 -0.7270 -1.2659
12586TIP3    H259174   4.642   2.969  11.933 -0.0376 -0.2862  1.2107
12587TIP3   OH259175   4.058   3.759  11.721  0.1271 -0.3289 -0.0461
12587TIP3    H159176   4.087   3.709  11.645 -0.1185 -0.6751  0.0915
12587TIP3    H259177   3.973   3.796  11.695  0.5225  0.4007 -0.3184
12588TIP3   OH259178   4.860   6.187  15.750  0.2826  0.4162  0.0054
12588TIP3    H159179   4.794   6.256  15.746 -0.0008  0.1979  0.7425
12588TIP3    H259180   4.927   6.214  15.687 -0.8433  0.2710 -1.2523
12589TIP3   OH259181   4.096   4.259  17.163  0.0946 -0.1695  0.4399
12589TIP3    H159182   4.145   4.286  17.241 -0.6916 -0.8603  1.1867
12589TIP3    H259183   4.031   4.198  17.196 -1.3436  0.8065 -0.5165
12590TIP3   OH259184   1.540   2.193   5.292  0.5899  0.3547  0.3673
12590TIP3    H159185   1.451   2.182   5.324  0.8867  1.4902  1.6673
12590TIP3    H259186   1.531   2.209   5.198 -0.4040 -1.6853  0.1015
12591TIP3   OH259187   0.928   0.726   1.561  0.1492 -0.0979 -0.0544
12591TIP3    H159188   0.934   0.812   1.603 -2.0625  0.2454 -0.3376
12591TIP3    H259189   0.936   0.744   1.467  0.6250 -0.3043 -0.0514
12592TIP3   OH259190   5.440   6.008   5.642 -0.7377 -0.5288 -0.1607
12592TIP3    H159191   5.531   6.023   5.618 -0.3106 -0.8185  1.2423
12592TIP3    H259192   5.433   6.041   5.731 -2.0835 -0.2358 -0.3573
12593TIP3   OH259193   0.428   2.913  12.557 -0.3058  0.4763 -0.4070
12593TIP3    H159194   0.368   2.987  12.544  0.3801  1.4426  1.6593
12593TIP3    H259195   0.498   2.928  12.492 -1.5715  0.0885 -1.8943
12594TIP3   OH259196   4.418   5.273   2.778 -0.2397  0.2654 -0.3564
12594TIP3    H159197   4.395   5.181   2.763  0.1873  0.3190 -1.4311
12594TIP3    H259198   4.499   5.268   2.829 -1.6783  0.0764  1.9966
12595TIP3   OH259199   5.141   2.197  14.113 -0.0071  0.0122  0.1880
12595TIP3    H159200   5.134   2.292  14.124  0.0039 -0.0995  1.2388
12595TIP3    H259201   5.190   2.168  14.190 -2.5288 -1.1951  1.3816
12596TIP3   OH259202   1.957   4.322   1.546  0.0783  0.3120 -0.0731
12596TIP3    H159203   2.032   4.273   1.513 -1.0061 -0.8415 -0.8749
12596TIP3    H259204   1.944   4.289   1.634 -1.1909 -1.5001 -0.9240
12597TIP3   OH259205   2.953   0.675   4.842  0.2441 -0.1524 -0.4810
12597TIP3    H159206   3.021   0.734   4.876  1.0585 -0.2287 -1.9351
12597TIP3    H259207   2.998   0.623   4.775 -0.3083 -2.8436  1.1494
12598TIP3   OH259208   1.453   4.237  12.852 -0.4649  0.4704 -0.4917
12598TIP3    H159209   1.391   4.164  12.861 -0.9323  0.7141 -1.5861
12598TIP3    H259210   1.452   4.280  12.937  0.3337 -1.2031  0.3899
12599TIP3   OH259211   3.698   2.825  16.668  0.7662  0.2625  0.0633
12599TIP3    H159212   3.715   2.735  16.639  0.0776  0.0408  0.3430
12599TIP3    H259213   3.785   2.859  16.689  1.1083 -0.0985 -0.7283
12600TIP3   OH259214   3.260   4.715  16.043  0.1401 -0.2132  0.0879
12600TIP3    H159215   3.333   4.717  15.981  2.0663  1.3049  2.2696
12600TIP3    H259216   3.302   4.695  16.127 -2.1572 -0.5346  1.1878
12601TIP3   OH259217   0.973   3.197   2.396  0.2252  0.2054  0.5824
12601TIP3    H159218   1.012   3.199   2.308  0.6679  0.1405  0.7756
12601TIP3    H259219   0.903   3.262   2.392  0.1409  0.0949  0.1334
12602TIP3   OH259220   6.293   6.295  15.187 -0.2787  0.0345  0.3739
12602TIP3    H159221   6.264   6.377  15.145 -0.7831 -0.4484 -0.2233
12602TIP3    H259222   6.388   6.305  15.195 -0.4967  1.2778  1.5959
12603TIP3   OH259223   3.290   2.984  12.614 -0.2504  0.3272  0.1740
12603TIP3    H159224   3.202   2.955  12.590 -0.8337  2.1376  0.0654
12603TIP3    H259225   3.283   3.008  12.706 -0.0632  1.1120 -0.0080
12604TIP3   OH259226   1.068   3.712   5.483 -0.3294  0.0490 -0.1321
12604TIP3    H159227   1.028   3.625   5.492  1.9767 -1.1074 -0.6759
12604TIP3    H259228   1.077   3.724   5.389 -1.3235  1.2113 -0.0801
12605TIP3   OH259229   4.231   5.543   5.342  0.1994 -0.1052 -0.2891
12605TIP3    H159230   4.154   5.559   5.288  1.6033  0.8052 -2.0301
12605TIP3    H259231   4.211   5.461   5.387 -1.5889 -0.1218 -1.0740
12606TIP3   OH259232   6.782   3.174   0.514  0.1045  0.2114  0.2639
12606TIP3    H159233   6.818   3.104   0.460  2.0504  0.2561  1.4600
12606TIP3    H259234   6.693   3.146   0.534  0.4203 -1.2843 -0.3537
12607TIP3   OH259235   6.457   3.377  17.238  0.6632  0.4784 -0.3380
12607TIP3    H159236   6.417   3.455  17.199  1.2606 -0.3743 -2.7913
12607TIP3    H259237   6.392   3.307  17.224  1.2394 -0.0137 -0.5873
12608TIP3   OH259238   3.041   0.110   6.015 -0.8980  0.7023 -0.1013
12608TIP3    H159239   2.962   0.130   5.966  0.5027  1.7183 -2.0319
12608TIP3    H259240   3.066   0.022   5.986 -1.2718  0.4030  0.4688
12609TIP3   OH259241   0.158   5.518  16.998  0.0390  0.1064  0.2935
12609TIP3    H159242   0.104   5.476  17.065  0.6533  0.5200  1.0576
12609TIP3    H259243   0.180   5.604  17.035  0.4652  0.2960 -0.3893
12610TIP3   OH259244   0.438   2.455  14.199 -0.2831 -0.1611  0.1858
12610TIP3    H159245   0.349   2.419  14.195 -0.9748  1.5711 -0.3654
12610TIP3    H259246   0.439   2.510  14.277 -0.3627  1.4934 -0.9401
12611TIP3   OH259247   5.827   1.478  15.929 -0.0952  0.2023  0.6192
12611TIP3    H159248   5.853   1.399  15.975  1.0490 -0.3495 -0.8980
12611TIP3    H259249   5.893   1.543  15.954 -0.9256  0.6336  1.7161
12612TIP3   OH259250   5.068   4.422   1.688 -1.1176 -0.7688 -0.1333
12612TIP3    H159251   5.073   4.505   1.640  1.6749 -1.5675 -1.3545
12612TIP3    H259252   5.027   4.361   1.627 -0.9473 -0.8736 -0.1449
12613TIP3   OH259253   0.238   5.342  14.950  0.0868  0.3286  0.1320
12613TIP3    H159254   0.198   5.402  15.013 -0.2019  0.7239 -0.4272
12613TIP3    H259255   0.165   5.308  14.899  0.3466  0.2188 -0.1701
12614TIP3   OH259256   4.174   5.025  10.530 -0.1444 -0.1995 -0.1736
12614TIP3    H159257   4.129   5.024  10.446 -1.6277  1.3053  0.5788
12614TIP3    H259258   4.258   5.068  10.511  0.3874 -1.7023 -1.2778
12615TIP3   OH259259   2.019   0.121   3.560 -0.1001  0.2782  0.1904
12615TIP3    H159260   2.101   0.086   3.524  1.9296  3.4268  1.5262
12615TIP3    H259261   1.994   0.191   3.500 -0.2001  1.2854  1.3887
12616TIP3   OH259262   1.956   2.806  14.945 -0.4839 -0.2426 -0.5857
12616TIP3    H159263   2.000   2.769  14.868  2.8760 -0.3715  1.3228
12616TIP3    H259264   1.946   2.733  15.005  0.5643  0.6396  0.7030
12617TIP3   OH259265   1.629   2.052  11.224  0.0772 -0.6791  0.2384
12617TIP3    H159266   1.568   1.992  11.267  1.5757 -2.2043  0.2989
12617TIP3    H259267   1.632   2.128  11.282 -1.8067 -0.5255  0.1896
12618TIP3   OH259268   4.448   6.228   4.265 -0.2362  0.3256 -0.5820
12618TIP3    H159269   4.473   6.143   4.228  0.0400  0.1490  0.0004
12618TIP3    H259270   4.439   6.211   4.359 -2.0207  0.5030 -0.7006
12619TIP3   OH259271   6.469   6.213   3.349  0.3545 -0.0028 -0.0002
12619TIP3    H159272   6.482   6.153   3.422  0.0445  2.4806  2.1995
12619TIP3    H259273   6.557   6.227   3.313  0.7162 -0.1396  0.8332
12620TIP3   OH259274   1.172   1.909  11.605  0.2916 -0.2967  0.7078
12620TIP3    H159275   1.110   1.934  11.673 -1.2887 -1.9515 -0.0864
12620TIP3    H259276   1.254   1.894  11.652 -0.7198 -1.2182  2.2387
12621TIP3   OH259277   2.721   3.555   0.491  0.2521  0.3248 -0.1796
12621TIP3    H159278   2.634   3.521   0.471  0.6083  0.2824 -1.7769
12621TIP3    H259279   2.765   3.557   0.406  2.2869 -0.9890  0.8153
12622TIP3   OH259280   4.942   6.083   1.014  0.5094  0.7143 -0.4578
12622TIP3    H159281   4.979   6.158   0.969 -0.2550  1.2679 -0.1690
12622TIP3    H259282   4.962   6.009   0.956 -0.5374  1.4260 -1.7538
12623TIP3   OH259283   5.237   4.574   0.880  0.3293 -0.0850  0.0278
12623TIP3    H159284   5.265   4.543   0.967  2.0601  1.0869 -0.0874
12623TIP3    H259285   5.177   4.506   0.849  1.2946 -1.5623  1.2844
12624TIP3   OH259286   3.436   2.017  14.338 -0.1011 -0.0840  0.2868
12624TIP3    H159287   3.465   1.942  14.390 -0.2673  0.2209  0.8212
12624TIP3    H259288   3.351   1.990  14.303 -0.0123 -0.2681  0.2096
12625TIP3   OH259289   0.211   6.552   1.497  0.2462  0.5323  0.1566
12625TIP3    H159290   0.207   6.542   1.592 -0.5757 -0.0464  0.0644
12625TIP3    H259291   0.262   6.632   1.483 -0.5150  1.1933  1.1122
12626TIP3   OH259292   1.488   5.372   4.031  0.2896  0.1944  0.1943
12626TIP3    H159293   1.501   5.360   3.937 -1.1174 -2.9600  0.3380
12626TIP3    H259294   1.431   5.299   4.057 -1.4714  2.4672  3.0355
12627TIP3   OH259295   6.450   1.214   1.533 -0.1370  0.2224 -0.1124
12627TIP3    H159296   6.407   1.242   1.453 -0.2994  1.1652  0.3035
12627TIP3    H259297   6.519   1.154   1.504 -1.8985 -1.5634 -0.7736
12628TIP3   OH259298   2.848   0.593  13.493  0.0881 -0.7302  0.3337
12628TIP3    H159299   2.792   0.668  13.512 -0.3561 -1.0486  0.3019
12628TIP3    H259300   2.898   0.579  13.574 -1.9598 -2.2215  1.3961
12629TIP3   OH259301   6.202   1.686  13.876 -0.2462 -0.1551 -0.5531
12629TIP3    H159302   6.140   1.619  13.849 -0.3670  0.1872 -1.1222
12629TIP3    H259303   6.170   1.716  13.961 -0.1006 -0.9329 -0.2189
12630TIP3   OH259304   4.334   0.720  12.339  0.1841  0.4098 -0.3633
12630TIP3    H159305   4.256   0.720  12.395 -0.3229 -0.2908 -1.0481
12630TIP3    H259306   4.395   0.779  12.382 -1.0690  1.6650 -0.2845
12631TIP3   OH259307   6.305   5.022  16.706 -0.6565 -0.6143  0.2400
12631TIP3    H159308   6.299   4.926  16.707 -1.1342 -0.5769  0.7939
12631TIP3    H259309   6.239   5.049  16.641 -0.8830 -0.6311  0.4644
12632TIP3   OH259310   1.197   0.367   2.789  0.7938  0.2390 -0.3072
12632TIP3    H159311   1.131   0.427   2.753  0.3451 -0.8789 -1.3568
12632TIP3    H259312   1.254   0.347   2.715  0.1890 -1.6319 -0.3040
12633TIP3   OH259313   2.496   5.943  16.989  0.3600  0.0003 -0.5697
12633TIP3    H159314   2.490   5.940  16.894  0.9198  1.7015 -0.6734
12633TIP3    H259315   2.503   6.036  17.010 -0.4397 -0.2969  1.1801
12634TIP3   OH259316   1.704   5.775  15.502 -0.1585 -0.2020  1.5949
12634TIP3    H159317   1.636   5.742  15.443  0.1714 -1.2399  1.7808
12634TIP3    H259318   1.786   5.757  15.456  0.0501 -0.1424  1.9394
12635TIP3   OH259319   0.801   2.572  15.201 -0.7215  0.2383  0.1447
12635TIP3    H159320   0.888   2.610  15.213  0.1170 -1.6373  0.2272
12635TIP3    H259321   0.763   2.571  15.289  0.5231 -2.0487  0.6806
12636TIP3   OH259322   1.446   2.331   1.886 -0.0928 -0.1488 -0.5289
12636TIP3    H159323   1.400   2.248   1.883 -0.2847 -0.0097 -1.6638
12636TIP3    H259324   1.454   2.351   1.979 -1.3226 -0.7222 -0.2957
12637TIP3   OH259325   2.540   4.111  15.930  0.0030 -0.4863 -0.5762
12637TIP3    H159326   2.561   4.204  15.938  1.4850 -0.6563 -2.1408
12637TIP3    H259327   2.552   4.076  16.018  0.6609  0.5721 -0.2330
12638TIP3   OH259328   4.314   1.406  12.815 -0.3445 -0.1053 -0.4894
12638TIP3    H159329   4.281   1.442  12.897  0.4697  1.0333 -0.6477
12638TIP3    H259330   4.394   1.360  12.840 -1.1724 -1.5194 -0.3506
12639TIP3   OH259331   1.317   2.556   0.718 -0.0688 -0.2514  0.0925
12639TIP3    H159332   1.319   2.617   0.644 -1.9121 -1.1629 -0.7302
12639TIP3    H259333   1.271   2.605   0.787 -0.3509 -0.2127 -0.1191
12640TIP3   OH259334   5.807   2.519  12.522  0.3386  0.7627  0.1271
12640TIP3    H159335   5.890   2.498  12.480 -0.9083 -1.2384 -1.3703
12640TIP3    H259336   5.753   2.440  12.513 -1.9667  2.2253  0.5278
12641TIP3   OH259337   2.684   5.377   4.542 -0.1975  0.0687 -0.1799
12641TIP3    H159338   2.615   5.442   4.553  0.0772  0.6130 -1.6280
12641TIP3    H259339   2.719   5.392   4.454  1.8654 -0.1032  0.5652
12642TIP3   OH259340   5.274   6.390  12.547 -0.5527  0.1914  0.0750
12642TIP3    H159341   5.180   6.395  12.527 -0.5267 -0.2062 -0.1674
12642TIP3    H259342   5.278   6.344  12.631 -0.5104 -1.0491 -0.6034
12643TIP3   OH259343   2.293   2.908  15.273 -0.3034 -0.5699 -0.0863
12643TIP3    H159344   2.313   2.978  15.211 -0.5900 -0.5915 -0.2016
12643TIP3    H259345   2.197   2.907  15.279 -0.2618 -0.2448  0.7207
12644TIP3   OH259346   2.229   5.925  15.895  0.5420 -0.3417 -0.4840
12644TIP3    H159347   2.164   5.969  15.841 -0.4985 -0.6482  0.4953
12644TIP3    H259348   2.258   5.850  15.842 -2.8394 -2.5374  0.5964
12645TIP3   OH259349   3.999   2.320   3.386  0.1489 -0.3901 -0.4453
12645TIP3    H159350   3.961   2.266   3.317 -0.7414 -1.1314  0.6177
12645TIP3    H259351   4.076   2.272   3.415 -2.1704 -2.5964  2.4477
12646TIP3   OH259352   0.693   1.340   2.707 -0.1804  0.1592 -0.2697
12646TIP3    H159353   0.780   1.376   2.689  1.2709 -3.1085 -0.1854
12646TIP3    H259354   0.671   1.292   2.627 -1.4676  0.1200  0.1005
12647TIP3   OH259355   1.216   3.544  16.137 -0.4071 -0.7174  0.1060
12647TIP3    H159356   1.176   3.555  16.051  0.4919  2.0864 -0.0087
12647TIP3    H259357   1.161   3.594  16.196  0.6457 -0.1256  0.6136
12648TIP3   OH259358   5.509   5.801  14.077  0.4519 -0.0916 -0.3196
12648TIP3    H159359   5.507   5.718  14.029  0.9447 -0.5080  0.3682
12648TIP3    H259360   5.576   5.787  14.145  0.7493  0.9695 -0.3952
12649TIP3   OH259361   6.387   1.195  15.304 -0.1843  0.3227  0.4678
12649TIP3    H159362   6.473   1.165  15.335 -0.4589 -1.5689 -0.5237
12649TIP3    H259363   6.339   1.217  15.385  0.8967  0.4730  1.0737
12650TIP3   OH259364   5.582   0.674  13.525  0.3255 -0.4778 -0.2535
12650TIP3    H159365   5.660   0.620  13.519 -1.3526 -3.4113  2.6018
12650TIP3    H259366   5.517   0.618  13.569 -2.9076  2.3453 -1.1884
12651TIP3   OH259367   0.694   4.600  15.104  0.4242 -0.1414  0.2227
12651TIP3    H159368   0.694   4.687  15.143 -0.3316 -0.1778  0.3198
12651TIP3    H259369   0.776   4.595  15.054 -0.2777  1.2198 -1.1031
12652TIP3   OH259370   0.013   0.412  15.274 -0.0916 -0.6264 -0.0721
12652TIP3    H159371   0.030   0.480  15.209  0.0015 -0.8458 -0.2763
12652TIP3    H259372   0.096   0.400  15.319 -0.7434  1.2243  1.7126
12653TIP3   OH259373   0.388   4.766  17.028 -0.1709 -0.0943  0.2791
12653TIP3    H159374   0.325   4.799  16.964  1.9944  1.0991 -1.2950
12653TIP3    H259375   0.432   4.694  16.983  1.5076  0.8885  0.3087
12654TIP3   OH259376   4.889   1.954   5.038  0.1219  0.2462 -0.3455
12654TIP3    H159377   4.811   1.903   5.057  0.0773  0.4863  0.1092
12654TIP3    H259378   4.961   1.890   5.036 -0.4038 -0.3325 -3.0110
12655TIP3   OH259379   0.759   5.835   1.248  0.0100  0.5990  0.0045
12655TIP3    H159380   0.747   5.866   1.337 -0.2913  0.5388 -0.0147
12655TIP3    H259381   0.682   5.781   1.231  1.2519 -1.4288  0.5945
12656TIP3   OH259382   1.045   0.032  16.901 -0.3248 -0.4790  0.3975
12656TIP3    H159383   1.041  -0.020  16.821 -1.2673 -0.7677  0.6261
12656TIP3    H259384   1.041  -0.033  16.971 -1.7294 -0.0868  0.6851
12657TIP3   OH259385   4.632   4.718  11.480 -0.5405 -0.3987 -0.2068
12657TIP3    H159386   4.547   4.700  11.440 -1.1936 -1.3536  1.5558
12657TIP3    H259387   4.694   4.713  11.407 -1.8698 -0.6268 -1.3556
12658TIP3   OH259388   3.481   2.769   1.085 -0.2715 -0.2561  0.1689
12658TIP3    H159389   3.457   2.754   1.177  1.4739  1.3443  0.9335
12658TIP3    H259390   3.573   2.742   1.080 -0.1267  0.4311 -0.9026
12659TIP3   OH259391   4.483   4.846   2.624  0.0512 -0.1413  0.9482
12659TIP3    H159392   4.495   4.837   2.719 -0.0040  1.4775  1.1228
12659TIP3    H259393   4.388   4.842   2.612  0.0729 -0.5972  0.9396
12660TIP3   OH259394   2.180   0.064  11.595 -0.2429  0.1999  0.2565
12660TIP3    H159395   2.195   0.015  11.515  0.5346 -0.7908  0.9990
12660TIP3    H259396   2.224   0.014  11.663 -0.4185  1.3210  1.2203
12661TIP3   OH259397   3.115   6.211   1.770 -0.6677 -0.0291  0.6026
12661TIP3    H159398   3.038   6.160   1.797  0.0482 -0.2534  2.2470
12661TIP3    H259399   3.189   6.159   1.800  0.1034  0.9494  0.3905
12662TIP3   OH259400   3.651   4.906   0.636 -0.2509 -0.1078 -0.2981
12662TIP3    H159401   3.674   4.851   0.711 -0.9896 -1.2825 -0.9232
12662TIP3    H259402   3.602   4.979   0.673  0.2737 -0.1407  0.4729
12663TIP3   OH259403   2.856   5.374   4.963 -0.5929 -0.0178  0.1898
12663TIP3    H159404   2.867   5.464   4.996 -0.5712 -0.4879  1.4792
12663TIP3    H259405   2.837   5.322   5.040 -1.3159 -1.0239 -0.6509
12664TIP3   OH259406   6.541   6.563  13.492 -0.1362 -0.6659 -0.0637
12664TIP3    H159407   6.599   6.575  13.568 -0.1999  1.1472 -0.2780
12664TIP3    H259408   6.597   6.524  13.425  0.7125  0.5661 -0.0852
12665TIP3   OH259409   1.121   0.178  11.825 -0.1258 -0.0704  0.0058
12665TIP3    H159410   1.180   0.194  11.751  0.2890  0.8324  0.5276
12665TIP3    H259411   1.111   0.083  11.827 -1.3369 -0.0336 -2.1397
12666TIP3   OH259412   2.760   4.539  12.614 -0.0823 -0.5501 -0.2156
12666TIP3    H159413   2.706   4.570  12.687 -0.5505 -0.4935 -0.5788
12666TIP3    H259414   2.696   4.519  12.545  0.5478  2.1721 -1.6457
12667TIP3   OH259415   5.090   5.844  15.699  0.2543  0.1304  0.1586
12667TIP3    H159416   5.004   5.814  15.670  0.1247 -1.0009  1.6631
12667TIP3    H259417   5.149   5.773  15.675  0.5870  0.3917  0.2062
12668TIP3   OH259418   3.846   0.843   5.949 -0.8572 -0.2253  0.2465
12668TIP3    H159419   3.899   0.769   5.920 -1.2329 -0.0646 -0.8985
12668TIP3    H259420   3.863   0.850   6.043 -2.0827 -2.7712  0.6992
12669TIP3   OH259421   2.699   2.750   0.399 -0.3849 -0.0517 -0.3828
12669TIP3    H159422   2.788   2.767   0.431 -0.8311  0.7324  0.4685
12669TIP3    H259423   2.659   2.694   0.466 -0.7029  0.0372 -0.4958
12670TIP3   OH259424   0.163   1.757   2.601  0.1702 -0.5444  0.0862
12670TIP3    H159425   0.097   1.726   2.662  0.1865  2.2434  1.5872
12670TIP3    H259426   0.130   1.732   2.515 -1.8452 -0.9281  0.9457
12671TIP3   OH259427   3.892   6.516  12.959  0.4058 -0.0063 -0.3516
12671TIP3    H159428   3.891   6.491  13.051  1.0921 -1.7476 -0.7851
12671TIP3    H259429   3.828   6.458  12.918  2.3586 -1.4382 -1.4684
12672TIP3   OH259430   1.189   4.091  14.346 -0.5857  0.6250  0.5987
12672TIP3    H159431   1.244   4.143  14.404  0.4676 -0.1510  0.3063
12672TIP3    H259432   1.133   4.040  14.405 -0.0566  0.4129  0.9216
12673TIP3   OH259433   5.170   2.093   4.981 -0.5204 -0.0316  0.0961
12673TIP3    H159434   5.175   2.015   4.925 -0.8801  0.3145 -0.4206
12673TIP3    H259435   5.077   2.106   4.996 -0.4315 -0.0366  0.6596
12674TIP3   OH259436   5.897   1.864  11.670  0.3006  0.0292 -0.1351
12674TIP3    H159437   5.922   1.954  11.651  0.8424  0.0763  0.7754
12674TIP3    H259438   5.809   1.871  11.708  0.0829  0.1095 -0.6424
12675TIP3   OH259439   0.248   3.963  12.350  0.2226  0.4761 -0.0934
12675TIP3    H159440   0.284   3.883  12.388 -2.1685  0.0432  1.3657
12675TIP3    H259441   0.220   3.937  12.262 -2.8841 -1.0515  1.2534
12676TIP3   OH259442   4.019   4.107  15.098  0.0543 -0.0154 -0.2511
12676TIP3    H159443   4.025   4.089  15.192  0.5456 -0.7469 -0.4155
12676TIP3    H259444   3.926   4.098  15.077  0.0927 -0.8801 -0.0402
12677TIP3   OH259445   0.479   2.974  11.826  0.2400 -0.4258  0.0260
12677TIP3    H159446   0.558   2.938  11.787  1.5597  1.2081  1.1695
12677TIP3    H259447   0.447   2.903  11.883  1.4020 -0.7394  0.2987
12678TIP3   OH259448   5.400   2.104   0.120  0.1100  0.0268 -0.2800
12678TIP3    H159449   5.306   2.099   0.134  0.0642 -2.3984 -1.2988
12678TIP3    H259450   5.410   2.119   0.026  0.7544  0.7156 -0.1160
12679TIP3   OH259451   5.456   6.722  11.739 -0.1920 -0.3980 -0.2532
12679TIP3    H159452   5.528   6.700  11.681  1.3588 -0.2971  1.5686
12679TIP3    H259453   5.378   6.721  11.683  1.2914  0.1415 -2.3860
12680TIP3   OH259454   5.411   1.297   5.489 -0.4224 -0.3034  0.0814
12680TIP3    H159455   5.462   1.229   5.446 -0.8795  0.6902 -2.1002
12680TIP3    H259456   5.456   1.379   5.466 -2.3693  0.4962 -1.0485
12681TIP3   OH259457   2.545   0.913   2.369  0.0505 -0.2558  0.1106
12681TIP3    H159458   2.623   0.901   2.423 -1.0624  0.1807  1.8960
12681TIP3    H259459   2.473   0.890   2.428 -1.1747 -0.2486 -1.3754
12682TIP3   OH259460   2.025   5.300   1.008 -0.3275 -0.2019  0.6022
12682TIP3    H159461   1.959   5.301   0.939  0.0383 -0.0692  0.2554
12682TIP3    H259462   2.022   5.211   1.043 -1.6779  0.1914  1.5357
12683TIP3   OH259463   2.608   2.718   5.492 -0.1086 -0.3166 -0.7396
12683TIP3    H159464   2.694   2.755   5.507  0.1717 -1.5048  0.6721
12683TIP3    H259465   2.547   2.783   5.527  0.2518  0.1246 -0.9375
12684TIP3   OH259466   5.651   2.059   0.188 -0.1253 -0.7831 -0.3833
12684TIP3    H159467   5.673   2.084   0.277  1.5219 -0.0465 -0.9845
12684TIP3    H259468   5.556   2.051   0.188 -0.1153 -1.1746  1.5281
12685TIP3   OH259469   4.472   3.052  15.052  0.4768 -0.0468 -0.1545
12685TIP3    H159470   4.452   2.959  15.064  3.6038 -0.3153  3.9190
12685TIP3    H259471   4.503   3.058  14.961  0.0829 -2.9009 -0.5456
12686TIP3   OH259472   4.239   1.070   4.170 -0.0761  0.2047 -0.0310
12686TIP3    H159473   4.157   1.047   4.213  0.0011  1.8434  1.0421
12686TIP3    H259474   4.301   1.003   4.198 -0.8375 -0.6058 -0.2423
12687TIP3   OH259475   0.411   0.358  11.136 -0.3179  0.2547 -0.1806
12687TIP3    H159476   0.364   0.372  11.218 -0.1810  2.0230 -0.3780
12687TIP3    H259477   0.346   0.373  11.067 -0.3814 -1.0191 -0.4107
12688TIP3   OH259478   1.244   5.994  15.406  0.7509  0.3398  0.6454
12688TIP3    H159479   1.173   6.013  15.468  0.7243 -1.6806  1.2676
12688TIP3    H259480   1.201   5.991  15.321  0.3857  0.8658  0.8120
12689TIP3   OH259481   2.898   0.587   4.387  0.0515  0.2513 -0.1915
12689TIP3    H159482   2.880   0.510   4.333  1.6599  0.3844 -0.9564
12689TIP3    H259483   2.818   0.640   4.380 -0.2566 -0.3388 -1.4037
12690TIP3   OH259484   3.046   0.417  15.497 -0.3495 -0.3263 -0.0940
12690TIP3    H159485   2.962   0.456  15.520 -0.7965 -0.6150 -1.2109
12690TIP3    H259486   3.026   0.355  15.427  1.1403  1.4301 -2.1596
12691TIP3   OH259487   3.870   6.093  14.033  0.6102  0.7569  0.6059
12691TIP3    H159488   3.938   6.159  14.023 -0.6081  1.8004 -1.1135
12691TIP3    H259489   3.795   6.142  14.068 -0.1469  0.2091 -0.2321
12692TIP3   OH259490   5.802   6.203   2.174 -0.2020 -0.3057  0.2110
12692TIP3    H159491   5.823   6.164   2.089 -2.8104  1.1057 -1.1666
12692TIP3    H259492   5.866   6.273   2.185 -0.1866 -0.1332 -0.8895
12693TIP3   OH259493   2.077   3.964  12.451  0.3809  0.4713  0.3286
12693TIP3    H159494   2.103   3.913  12.374  2.1099  0.2319  1.0546
12693TIP3    H259495   2.006   3.913  12.490  1.2207 -0.7221  0.3168
12694TIP3   OH259496   6.232   2.252   0.296  0.2445 -0.0344  0.5471
12694TIP3    H159497   6.261   2.198   0.223  0.4034 -1.3465  1.5620
12694TIP3    H259498   6.234   2.342   0.262  0.1106 -0.6394 -1.1107
12695TIP3   OH259499   3.040   4.247  16.777 -0.2990 -0.4806 -0.2178
12695TIP3    H159500   2.958   4.197  16.782 -0.9266  0.2584 -2.3210
12695TIP3    H259501   3.033   4.313  16.845 -0.6260 -1.5992  0.8454
12696TIP3   OH259502   1.475   5.222   2.686 -0.1419  0.0469 -0.0849
12696TIP3    H159503   1.454   5.289   2.622 -1.1856  0.0323  0.2340
12696TIP3    H259504   1.496   5.271   2.766  0.0550  0.0235 -0.1213
12697TIP3   OH259505   5.303   1.236  14.475 -0.6453 -0.5771 -0.2240
12697TIP3    H159506   5.370   1.174  14.505 -1.1681 -0.2770  1.6319
12697TIP3    H259507   5.352   1.313  14.447 -0.2247 -0.1045  1.7446
12698TIP3   OH259508   0.823   5.588  13.267 -0.6014  0.1864 -0.0598
12698TIP3    H159509   0.757   5.640  13.221 -0.0733  1.4072  0.5309
12698TIP3    H259510   0.892   5.573  13.202 -0.4548  0.7798 -0.0372
12699TIP3   OH259511   0.183   3.649  10.321  0.0926  0.5764 -0.2146
12699TIP3    H159512   0.134   3.620  10.397  1.2573  0.9267  0.6780
12699TIP3    H259513   0.127   3.714  10.280 -0.2122  0.9416  0.7726
12700TIP3   OH259514   6.565   5.149   2.663 -0.4060  0.1475 -0.0275
12700TIP3    H159515   6.599   5.066   2.695 -1.4412 -0.7620 -1.2370
12700TIP3    H259516   6.486   5.165   2.715  0.2805  0.8186  0.8112
12701TIP3   OH259517   3.287   0.862  13.865  0.1981 -0.2234  0.5012
12701TIP3    H159518   3.261   0.810  13.788  0.8088 -0.5273  0.4980
12701TIP3    H259519   3.321   0.797  13.927  1.0081  0.1794  0.4792
12702TIP3   OH259520   4.097   2.679  14.007  0.6375 -0.2764  0.0229
12702TIP3    H159521   4.142   2.713  13.930 -0.1626  2.4315  0.6724
12702TIP3    H259522   4.007   2.663  13.978  1.3507 -3.3740 -0.6536
12703TIP3   OH259523   1.183   0.585   4.329 -0.2907 -0.2064 -0.1240
12703TIP3    H159524   1.157   0.493   4.337 -1.0480 -0.1722 -1.9857
12703TIP3    H259525   1.277   0.581   4.310 -0.1781 -0.5560  0.4665
12704TIP3   OH259526   3.234   3.415  15.968  0.0782 -0.4077 -1.0238
12704TIP3    H159527   3.266   3.481  15.907  1.5531 -0.6070 -0.5054
12704TIP3    H259528   3.143   3.437  15.984  0.5040  1.3750 -1.0114
12705TIP3   OH259529   6.623   3.900   5.717  0.0892 -0.2583  0.2879
12705TIP3    H159530   6.555   3.942   5.770  0.8614  1.4022 -0.0106
12705TIP3    H259531   6.650   3.824   5.770  0.1307  0.7956  1.8315
12706TIP3   OH259532   1.064   0.901  11.166 -0.0793  0.2778 -0.1602
12706TIP3    H159533   1.091   0.875  11.254  2.4019  0.8913 -0.7005
12706TIP3    H259534   0.975   0.934  11.177 -0.9768 -2.5608  1.5787
12707TIP3   OH259535   1.941   6.471  14.970 -0.4497  0.4773 -0.0566
12707TIP3    H159536   2.000   6.428  15.032  1.3634  1.9156 -0.7644
12707TIP3    H259537   1.968   6.440  14.884 -0.8424  1.0214 -0.3821
12708TIP3   OH259538   4.133   5.907   1.751 -0.0564  0.5360  0.5189
12708TIP3    H159539   4.064   5.895   1.817 -1.4809  2.5060 -0.5767
12708TIP3    H259540   4.148   5.820   1.716 -0.4949 -0.2592  2.2426
12709TIP3   OH259541   1.145   2.884   4.175 -0.0875 -0.0026  0.3400
12709TIP3    H159542   1.227   2.858   4.133 -1.0906 -0.7532 -1.2192
12709TIP3    H259543   1.077   2.844   4.121 -1.4641 -0.0571  2.0734
12710TIP3   OH259544   4.164   3.752   4.405 -0.4698  0.0521  0.1365
12710TIP3    H159545   4.209   3.806   4.340 -0.5695  0.7015  0.6074
12710TIP3    H259546   4.079   3.733   4.365 -0.4525  0.2777 -0.0057
12711TIP3   OH259547   0.596   5.560  13.679 -0.4080 -0.1006  0.1530
12711TIP3    H159548   0.601   5.521  13.766 -1.9190 -0.7367 -0.0303
12711TIP3    H259549   0.626   5.650  13.691 -3.7592  0.8718  2.0374
12712TIP3   OH259550   0.205   4.049  14.744  0.3325 -0.2140  0.1590
12712TIP3    H159551   0.267   4.121  14.732 -1.5638  1.7992  1.8443
12712TIP3    H259552   0.217   3.993  14.667  3.4143  0.6880 -0.0913
12713TIP3   OH259553   4.504   1.132   0.743  0.2361 -0.0737  0.0811
12713TIP3    H159554   4.548   1.217   0.737 -0.7453  0.4154 -0.1985
12713TIP3    H259555   4.441   1.132   0.670 -0.5337 -0.5951  0.7406
12714TIP3   OH259556   3.915   0.304   3.019  0.3439 -0.2281 -0.2014
12714TIP3    H159557   3.911   0.271   2.929 -0.3918  1.3037 -0.7580
12714TIP3    H259558   3.997   0.353   3.022 -0.1003  0.5343 -0.3406
12715TIP3   OH259559   1.896   6.689  10.946  0.2957 -0.0715  0.1917
12715TIP3    H159560   1.968   6.749  10.966  1.0219 -0.1160 -2.2609
12715TIP3    H259561   1.924   6.605  10.981  1.2286  0.0188 -0.3318
12716TIP3   OH259562   5.218   2.017  12.477  0.1314  0.0434 -0.6082
12716TIP3    H159563   5.284   1.996  12.411  1.0681  2.4856 -0.4947
12716TIP3    H259564   5.268   2.051  12.551 -1.0627 -0.7071  0.5566
12717TIP3   OH259565   3.094   5.461   2.348  0.0362  0.6972 -0.3669
12717TIP3    H159566   3.087   5.529   2.415  1.0793 -0.2005  0.6768
12717TIP3    H259567   3.038   5.491   2.277 -1.0410  1.6982  0.8906
12718TIP3   OH259568   2.055   2.269  11.541 -0.5191  0.2575  0.4927
12718TIP3    H159569   2.114   2.194  11.546 -1.4283 -0.4955  0.0672
12718TIP3    H259570   2.091   2.324  11.472 -1.4620 -1.2071 -1.1825
12719TIP3   OH259571   0.792   6.585  14.192 -0.2233  0.6340 -0.3952
12719TIP3    H159572   0.752   6.504  14.159  1.8283 -0.3940 -0.4573
12719TIP3    H259573   0.771   6.585  14.286  0.5414 -0.4782 -0.2089
12720TIP3   OH259574   3.242   2.794  13.691  0.3121  0.2733 -0.3826
12720TIP3    H159575   3.303   2.742  13.743  0.0201 -1.5355 -1.7884
12720TIP3    H259576   3.176   2.731  13.662 -0.3358  1.5338 -1.7106
12721TIP3   OH259577   3.640   0.616   3.887 -0.1136  0.0417 -0.3445
12721TIP3    H159578   3.610   0.556   3.818 -1.8859  0.6966 -0.1524
12721TIP3    H259579   3.575   0.686   3.888 -1.1099 -0.8777  3.2607
12722TIP3   OH259580   6.226   2.142  12.191 -0.5920  0.6633  0.0839
12722TIP3    H159581   6.146   2.095  12.166 -0.0804  0.6740 -1.6317
12722TIP3    H259582   6.201   2.234  12.185 -0.9329  0.6565  1.2269
12723TIP3   OH259583   3.292   0.049   0.520 -0.5883  0.1120  0.6438
12723TIP3    H159584   3.378   0.008   0.528 -0.8539 -0.3297  1.3175
12723TIP3    H259585   3.239  -0.015   0.472 -0.9799 -0.3202  1.6257
12724TIP3   OH259586   6.200   2.334  15.031  0.2717 -0.3279  0.6630
12724TIP3    H159587   6.117   2.311  15.072  0.7236 -0.4403  1.5232
12724TIP3    H259588   6.260   2.265  15.058  0.7140 -0.0979  0.2692
12725TIP3   OH259589   4.012   1.187   2.585 -0.2462  0.0679 -0.2836
12725TIP3    H159590   4.055   1.271   2.601 -1.2425  0.5491 -0.0660
12725TIP3    H259591   4.043   1.159   2.499  2.1714 -0.6540  0.7914
12726TIP3   OH259592   3.762   4.567   3.723 -0.8075 -0.0777  0.5475
12726TIP3    H159593   3.719   4.633   3.668 -1.5915 -0.9215  0.1443
12726TIP3    H259594   3.745   4.484   3.679  0.8856 -0.4745  0.6121
12727TIP3   OH259595   1.056   6.241   0.046 -0.0070 -0.0593 -0.1704
12727TIP3    H159596   1.089   6.329   0.031  0.1654 -0.0806  0.0654
12727TIP3    H259597   1.124   6.183   0.012  0.2253 -0.1040  0.3552
12728TIP3   OH259598   0.788   4.206   3.719  0.1887 -0.1674 -0.5212
12728TIP3    H159599   0.837   4.273   3.766 -0.2984 -0.3206  0.2152
12728TIP3    H259600   0.744   4.253   3.648  1.1447  0.0194 -0.9979
12729TIP3   OH259601   4.585   2.794   2.533  0.3062  0.2433  0.5528
12729TIP3    H159602   4.545   2.856   2.594 -1.6695 -0.1198 -0.3168
12729TIP3    H259603   4.524   2.791   2.459  1.8022 -0.6039 -0.6770
12730TIP3   OH259604   3.895   5.332   5.539  0.1666  0.2484 -0.4111
12730TIP3    H159605   3.907   5.418   5.580 -0.0431 -0.3170  0.8641
12730TIP3    H259606   3.801   5.313   5.550  0.3046 -0.3524 -0.2353
12731TIP3   OH259607   0.745   3.840  15.478 -0.0617  0.1444  0.0186
12731TIP3    H159608   0.657   3.854  15.445 -1.0690 -1.4926  1.8818
12731TIP3    H259609   0.778   3.927  15.498 -2.1178  0.6298  1.4029
12732TIP3   OH259610   3.501   3.700  16.649 -0.1340  0.1228  0.4127
12732TIP3    H159611   3.525   3.792  16.645  0.6504 -0.1909 -3.1016
12732TIP3    H259612   3.565   3.661  16.710 -0.1584  1.7612  1.5015
12733TIP3   OH259613   3.105   6.031   1.118  0.3089  0.3479 -0.4658
12733TIP3    H159614   3.151   6.091   1.177  1.1007 -0.5353 -0.1638
12733TIP3    H259615   3.032   5.997   1.170 -1.5082  2.7545 -1.3712
12734TIP3   OH259616   1.592   3.174   0.960  0.1565 -0.3925  1.1636
12734TIP3    H159617   1.509   3.141   0.994 -0.6753  1.1320  0.6561
12734TIP3    H259618   1.656   3.151   1.028 -0.5582 -2.1010  1.2853
12735TIP3   OH259619   5.295   3.833  10.521  0.2888  0.5847 -0.4291
12735TIP3    H159620   5.209   3.867  10.545 -0.2474 -0.5984 -0.6153
12735TIP3    H259621   5.339   3.906  10.479  0.0434  1.7480  1.2700
12736TIP3   OH259622   5.373   1.857  14.403 -0.0827 -0.4739 -0.4686
12736TIP3    H159623   5.369   1.951  14.421  0.0407 -0.7185  0.8233
12736TIP3    H259624   5.464   1.841  14.378  0.0440 -0.3664 -0.0655
12737TIP3   OH259625   2.108   3.291  16.942  0.2337 -0.6605 -0.1706
12737TIP3    H159626   2.054   3.302  17.020  0.7061 -2.9699  0.5115
12737TIP3    H259627   2.070   3.215  16.898  3.3341 -2.7334  0.6638
12738TIP3   OH259628   1.203   4.248   2.177 -0.6974  0.4594  0.0353
12738TIP3    H159629   1.249   4.327   2.148  0.9572 -0.3361  0.4364
12738TIP3    H259630   1.199   4.256   2.272  0.3263 -0.3853  0.1589
12739TIP3   OH259631   0.378   5.520   2.891 -0.2601 -0.1334  0.7521
12739TIP3    H159632   0.407   5.518   2.800 -0.6304  1.1837  0.6018
12739TIP3    H259633   0.364   5.612   2.911 -1.1884 -0.4885  1.8299
12740TIP3   OH259634   4.119   3.546   6.125  0.4123 -0.1443 -0.2692
12740TIP3    H159635   4.031   3.512   6.145  0.6733 -0.5779  0.1601
12740TIP3    H259636   4.152   3.577   6.210  0.2527  1.0261 -0.6184
12741TIP3   OH259637   3.552   6.101  15.176  0.4763  0.5786  0.4923
12741TIP3    H159638   3.483   6.074  15.237 -0.0464 -1.3296 -0.8832
12741TIP3    H259639   3.505   6.144  15.104  0.5829 -1.4654 -0.8502
12742TIP3   OH259640   6.006   2.680  16.651 -0.1489 -0.3680  0.4166
12742TIP3    H159641   5.923   2.680  16.699  0.5097  1.7600  1.6190
12742TIP3    H259642   6.066   2.728  16.707  0.9351  1.2747 -2.0608
12743TIP3   OH259643   1.383   2.376   3.972 -0.5035 -0.7177  0.3007
12743TIP3    H159644   1.375   2.435   4.047  0.1910  0.2329 -0.3576
12743TIP3    H259645   1.297   2.334   3.965 -1.1382  0.4994  0.5519
12744TIP3   OH259646   5.406   1.822  12.630 -0.3499  0.2079 -0.2654
12744TIP3    H159647   5.406   1.776  12.546  1.2566 -0.7050  0.2166
12744TIP3    H259648   5.314   1.829  12.654 -0.8034  0.1630 -1.9231
12745TIP3   OH259649   4.830   0.057   5.010  0.2134 -0.0163  0.3514
12745TIP3    H159650   4.747   0.023   4.977 -1.4994  1.5455  2.9185
12745TIP3    H259651   4.862  -0.010   5.070 -0.3939  0.4603  1.2027
12746TIP3   OH259652   0.276   2.909   3.749  0.4345 -0.1693 -0.0240
12746TIP3    H159653   0.363   2.910   3.708  0.0479  2.5763 -0.8796
12746TIP3    H259654   0.239   2.824   3.724  2.3179 -0.7885 -0.8254
12747TIP3   OH259655   6.478   2.998   4.388 -1.1773 -0.7072 -0.0461
12747TIP3    H159656   6.500   3.065   4.452 -2.9447  0.6585 -0.8033
12747TIP3    H259657   6.422   3.044   4.324 -2.1306 -2.8142 -0.7649
12748TIP3   OH259658   1.453   0.656   2.372  0.1551  0.0608 -0.2644
12748TIP3    H159659   1.438   0.731   2.313  1.2792  2.4388  2.3638
12748TIP3    H259660   1.396   0.672   2.447  1.2387 -1.1380  0.8449
12749TIP3   OH259661   3.526   5.765  15.870 -0.0748 -0.3777 -0.2338
12749TIP3    H159662   3.436   5.779  15.900  0.8822  1.6646  1.8498
12749TIP3    H259663   3.572   5.734  15.948  2.1413  3.5010  0.0759
12750TIP3   OH259664   2.999   6.647  14.286  0.7892  0.8151  0.3693
12750TIP3    H159665   3.039   6.591  14.353 -2.9004  1.5081  3.3510
12750TIP3    H259666   2.999   6.734  14.324 -0.7053  1.3625 -0.8325
12751TIP3   OH259667   0.439   2.190  11.375  0.5637  0.2487  0.3000
12751TIP3    H159668   0.347   2.166  11.370  0.7919 -0.4732 -0.7092
12751TIP3    H259669   0.470   2.149  11.456  0.4222 -1.0626 -0.2892
12752TIP3   OH259670   3.758   0.073  14.353  0.2149 -0.1428  0.9938
12752TIP3    H159671   3.789   0.120  14.431 -0.3395  0.7909  0.6670
12752TIP3    H259672   3.685   0.126  14.321 -0.2411 -1.0943  0.4498
12753TIP3   OH259673   6.602   0.128  12.018  0.0916  0.0176  0.1804
12753TIP3    H159674   6.626   0.058  11.958  1.0878 -0.0835  0.6833
12753TIP3    H259675   6.679   0.185  12.021 -1.4222  2.2508 -1.7643
12754TIP3   OH259676   5.146   5.392   5.200 -0.6356  0.5914  0.3965
12754TIP3    H159677   5.086   5.440   5.257 -0.7088 -0.7246  1.4545
12754TIP3    H259678   5.215   5.361   5.258  0.0822  0.4865 -0.4912
12755TIP3   OH259679   0.729   2.573  12.485 -0.4418 -0.2342  0.0657
12755TIP3    H159680   0.636   2.593  12.497 -0.2662  1.6732 -1.5141
12755TIP3    H259681   0.774   2.633  12.544 -0.2310 -1.4275  1.1163
12756TIP3   OH259682   3.806   4.867  16.683  0.3302  0.0032  0.2817
12756TIP3    H159683   3.861   4.843  16.757  2.0638  1.6606 -0.4102
12756TIP3    H259684   3.869   4.891  16.614 -1.2310  2.8238 -0.2194
12757TIP3   OH259685   1.292   2.870  13.066 -0.1453 -0.2849 -0.5006
12757TIP3    H159686   1.227   2.915  13.120  2.0065 -0.1524  2.1308
12757TIP3    H259687   1.293   2.780  13.100 -0.0180 -0.6710 -1.5147
12758TIP3   OH259688   2.830   3.637  14.194  0.3437 -0.4614  0.3270
12758TIP3    H159689   2.812   3.616  14.102 -0.4779 -0.9598  0.5920
12758TIP3    H259690   2.748   3.615  14.239  0.1346  1.4455  0.9141
12759TIP3   OH259691   2.641   5.540   6.025  0.4822  0.5836 -0.1350
12759TIP3    H159692   2.551   5.523   6.052  0.6053 -0.4195 -0.3346
12759TIP3    H259693   2.639   5.628   5.988 -0.2515  0.8796  0.5868
12760TIP3   OH259694   4.180   6.227   5.318  0.1524  0.0884  0.4240
12760TIP3    H159695   4.185   6.319   5.293 -1.0755 -0.1207 -0.6274
12760TIP3    H259696   4.090   6.215   5.349 -0.1417 -1.0987 -0.8390
12761TIP3   OH259697   4.748   5.129  10.583 -0.1221 -0.4638  0.2255
12761TIP3    H159698   4.690   5.204  10.575 -0.9326 -1.2572 -1.8972
12761TIP3    H259699   4.691   5.053  10.564  1.7199 -1.1970 -2.6910
12762TIP3   OH259700   5.639   4.742  15.511  0.1422 -0.5177  0.4140
12762TIP3    H159701   5.723   4.764  15.550 -0.0742  0.4364  0.3434
12762TIP3    H259702   5.595   4.690  15.578  0.9055 -1.2894  0.3279
12763TIP3   OH259703   2.332   6.199   5.439 -0.0822 -0.0948  0.2680
12763TIP3    H159704   2.250   6.160   5.469  0.9691 -3.1378 -0.6096
12763TIP3    H259705   2.305   6.267   5.377 -1.9709  0.6006  1.8033
12764TIP3   OH259706   4.522   1.519  15.378 -1.0979  0.1918  0.2490
12764TIP3    H159707   4.613   1.502  15.355 -1.0325 -0.9482  1.2758
12764TIP3    H259708   4.526   1.574  15.456 -1.2752 -0.8199  0.9787
12765TIP3   OH259709   4.551   0.269   3.847  0.1606 -0.0442  0.4654
12765TIP3    H159710   4.646   0.282   3.849  0.0710  0.5041  4.0075
12765TIP3    H259711   4.539   0.178   3.875 -0.3422 -0.4481 -1.0085
12766TIP3   OH259712   2.365   4.940   6.508 -0.0644  0.5570  0.5134
12766TIP3    H159713   2.398   4.873   6.568  1.7875  0.2315 -0.7963
12766TIP3    H259714   2.378   4.901   6.421 -0.7774  1.8400 -0.1686
12767TIP3   OH259715   1.295   5.743  12.543 -0.0696  0.0206  0.4913
12767TIP3    H159716   1.273   5.673  12.481  2.2587 -1.1476  0.9463
12767TIP3    H259717   1.309   5.697  12.626  1.1367  1.0884  0.8793
12768TIP3   OH259718   5.527   1.661  11.966  0.2724 -0.3083 -0.4109
12768TIP3    H159719   5.599   1.664  12.028 -0.9375  0.6984  0.9754
12768TIP3    H259720   5.451   1.634  12.018 -0.5018 -0.7319 -1.7123
12769TIP3   OH259721   2.968   5.892   0.377 -0.3982  0.1393  0.8657
12769TIP3    H159722   2.906   5.942   0.323  0.8983  0.3641 -0.4325
12769TIP3    H259723   2.922   5.809   0.393 -1.4484  0.6830  0.7570
12770TIP3   OH259724   2.471   1.514   0.352  0.0044  0.0121 -0.0311
12770TIP3    H159725   2.511   1.453   0.413 -0.5707  0.3128  0.6485
12770TIP3    H259726   2.455   1.593   0.403 -0.8880  0.1062 -0.4442
12771TIP3   OH259727   6.428   0.086  11.296  0.0470 -0.2424 -0.5991
12771TIP3    H159728   6.518   0.108  11.270  0.3317 -1.0981 -0.3308
12771TIP3    H259729   6.414   0.134  11.377  0.0279  0.4178 -0.9830
12772TIP3   OH259730   4.336   2.024   1.436  0.1185 -0.0092  0.0893
12772TIP3    H159731   4.276   2.057   1.502  0.9691  0.2721  0.7279
12772TIP3    H259732   4.416   2.075   1.448  0.2309  0.1423 -1.2498
12773TIP3   OH259733   0.049   0.511  13.634  0.2916 -0.3825  0.4785
12773TIP3    H159734  -0.045   0.495  13.628  0.2394  0.1550 -0.2199
12773TIP3    H259735   0.086   0.461  13.561  0.3876  0.6097 -0.1639
12774TIP3   OH259736   3.102   2.678  15.114 -0.1517  0.5245 -0.2002
12774TIP3    H159737   3.074   2.754  15.064  2.3406  0.6575 -1.4570
12774TIP3    H259738   3.197   2.687  15.121 -0.2657 -0.2077  3.4109
12775TIP3   OH259739   4.513   5.150  14.574  0.0870 -0.4410 -0.4825
12775TIP3    H159740   4.470   5.066  14.589  1.3868 -1.2500 -1.1815
12775TIP3    H259741   4.485   5.176  14.486 -0.4243 -0.0567 -0.2123
12776TIP3   OH259742   4.047   4.986   1.513 -0.2487  0.4290 -0.0578
12776TIP3    H159743   4.038   5.069   1.559  1.5042  0.5315  0.1086
12776TIP3    H259744   3.982   4.991   1.442 -1.5174  1.1152  1.1228
12777TIP3   OH259745   4.150   2.665  14.293 -0.3087 -0.1787  0.7283
12777TIP3    H159746   4.128   2.694  14.205  3.2486 -0.9703 -0.4923
12777TIP3    H259747   4.081   2.702  14.348 -4.1523 -1.9666 -2.6695
12778TIP3   OH259748   5.962   6.113  14.679  0.4640 -0.0233  0.1561
12778TIP3    H159749   6.003   6.099  14.765  1.2267 -1.0472 -0.3705
12778TIP3    H259750   6.001   6.194  14.647 -0.3189  0.7287  1.0564
12779TIP3   OH259751   4.653   3.181   0.658  0.1312 -0.3284 -0.1744
12779TIP3    H159752   4.724   3.243   0.644 -0.4974  0.2471 -0.8971
12779TIP3    H259753   4.573   3.233   0.647 -0.4070 -0.8394  1.2135
12780TIP3   OH259754   3.680   3.803  14.771  0.0237  0.1101  0.0385
12780TIP3    H159755   3.717   3.734  14.716 -0.7324 -0.3052  0.0274
12780TIP3    H259756   3.682   3.881  14.717 -1.0277 -0.3700 -0.7126
12781TIP3   OH259757   1.172   5.608  17.090 -0.0147  0.0201  0.2940
12781TIP3    H159758   1.225   5.627  17.013  0.7779 -1.1241  0.5458
12781TIP3    H259759   1.101   5.553  17.058 -0.6405  0.9280  0.0937
12782TIP3   OH259760   0.159   6.547   0.318 -0.3416 -0.4771  0.2857
12782TIP3    H159761   0.099   6.567   0.390  2.0149  1.4835  1.7707
12782TIP3    H259762   0.106   6.556   0.239 -2.1080  0.8478  1.5927
12783TIP3   OH259763   4.747   6.770  13.206  0.0907 -0.1888  0.5662
12783TIP3    H159764   4.828   6.726  13.183 -1.2467 -2.4443 -0.0055
12783TIP3    H259765   4.719   6.728  13.288 -1.8272 -1.2925 -0.6201
12784TIP3   OH259766   4.660   5.713  11.051  0.5420  0.5131 -0.0281
12784TIP3    H159767   4.715   5.637  11.069  0.6867  0.9164  1.2859
12784TIP3    H259768   4.652   5.714  10.956 -0.6190 -1.9577 -0.0068
12785TIP3   OH259769   6.382   3.752  16.026 -0.0741  0.3134 -0.1074
12785TIP3    H159770   6.343   3.674  15.986  0.4437 -0.1129  0.1909
12785TIP3    H259771   6.352   3.825  15.972 -0.3831 -0.1191 -0.5296
12786TIP3   OH259772   5.043   6.598  11.009 -0.1917  0.0391 -0.1087
12786TIP3    H159773   4.972   6.626  11.067  1.6673  2.7895  0.9510
12786TIP3    H259774   5.008   6.614  10.921 -1.8200 -1.0481  0.3114
12787TIP3   OH259775   4.998   2.199  14.685 -0.1030  0.0855  0.4446
12787TIP3    H159776   4.942   2.122  14.680  0.4093 -0.2294 -0.5497
12787TIP3    H259777   5.083   2.170  14.652  0.3673  0.8301  0.9683
12788TIP3   OH259778   3.375   3.801   2.007  0.1338 -0.0188 -0.2787
12788TIP3    H159779   3.340   3.881   2.047  0.3024 -0.4615  0.7748
12788TIP3    H259780   3.374   3.736   2.078  0.2482 -0.8785 -1.0513
12789TIP3   OH259781   6.008   1.259  13.104 -0.7653 -0.1685 -0.2964
12789TIP3    H159782   6.054   1.186  13.144 -0.5410  0.1999  0.1248
12789TIP3    H259783   5.975   1.224  13.021 -0.7130 -0.7586 -0.0704
12790TIP3   OH259784   0.842   4.196   0.228  0.4707 -0.1936 -0.4548
12790TIP3    H159785   0.901   4.137   0.180 -0.6217  1.1728 -3.6514
12790TIP3    H259786   0.771   4.214   0.165 -1.4184  1.1399  1.9828
12791TIP3   OH259787   2.261   1.728   5.833  0.1794  0.2885 -0.4237
12791TIP3    H159788   2.210   1.808   5.843 -1.3964 -0.7254 -0.2070
12791TIP3    H259789   2.196   1.657   5.836  1.7029 -1.1119  1.1725
12792TIP3   OH259790   4.640   0.791   5.799  0.1103  0.3239 -0.0517
12792TIP3    H159791   4.653   0.872   5.848  1.6494  0.0222  0.0578
12792TIP3    H259792   4.549   0.795   5.770 -0.5412  0.9906  1.9657
12793TIP3   OH259793   2.806   3.513   3.227 -0.0362  0.9365  0.0562
12793TIP3    H159794   2.850   3.556   3.301  0.8641 -1.2702  0.8312
12793TIP3    H259795   2.788   3.424   3.258 -1.5033  0.6039 -1.6674
12794TIP3   OH259796   5.490   5.494  12.993 -0.0828 -0.1774  0.2239
12794TIP3    H159797   5.438   5.553  12.939  0.2623  0.3309  0.4442
12794TIP3    H259798   5.472   5.522  13.083  1.5130  0.8084  0.2585
12795TIP3   OH259799   0.075   0.074  13.734 -0.2693  0.2660 -0.0587
12795TIP3    H159800   0.077   0.130  13.657  0.1936  1.4032  0.7599
12795TIP3    H259801   0.048   0.133  13.805 -1.7446 -0.9967  0.4603
12796TIP3   OH259802   4.766   1.685  14.046 -0.2399  0.4481 -0.4635
12796TIP3    H159803   4.843   1.726  14.006 -0.4416  0.5865 -0.7104
12796TIP3    H259804   4.696   1.695  13.981 -0.2532 -0.4247 -0.6014
12797TIP3   OH259805   4.104   5.251   4.598  0.6227  0.8357 -0.1804
12797TIP3    H159806   4.010   5.262   4.584  0.7486  1.5204 -0.4913
12797TIP3    H259807   4.110   5.180   4.662 -0.1118  0.8807 -0.0560
12798TIP3   OH259808   5.815   2.420   6.091 -0.3289 -0.1425 -0.0537
12798TIP3    H159809   5.758   2.381   6.158  0.3153  0.1801  0.6927
12798TIP3    H259810   5.879   2.471   6.141  0.8362 -0.8008 -0.8673
12799TIP3   OH259811   5.956   3.486   1.994  0.3560 -0.1840 -0.1981
12799TIP3    H159812   6.017   3.412   1.993  0.0230 -0.4611 -1.1554
12799TIP3    H259813   6.012   3.563   1.986  0.7250 -0.3123  1.1136
12800TIP3   OH259814   2.962   3.748   1.818  0.3966  0.1990  0.2946
12800TIP3    H159815   2.908   3.686   1.867 -0.9495  0.5734 -0.6536
12800TIP3    H259816   2.965   3.826   1.873 -0.5927  0.4050  0.0654
12801TIP3   OH259817   5.904   6.099  13.626 -0.6462  0.2767 -0.2074
12801TIP3    H159818   5.815   6.102  13.663 -1.3299 -1.2250 -1.6666
12801TIP3    H259819   5.957   6.060  13.696 -1.3557  0.1745  0.2824
12802TIP3   OH259820   1.327   0.974  13.235  0.0066 -0.4328 -0.2138
12802TIP3    H159821   1.386   1.038  13.276 -1.7371  0.3859  1.1122
12802TIP3    H259822   1.385   0.909  13.196  1.7894  0.5261  0.7583
12803TIP3   OH259823   5.393   3.951   2.912 -0.2906 -0.6112  0.8259
12803TIP3    H159824   5.394   4.018   2.981 -0.6580  1.1541 -0.8242
12803TIP3    H259825   5.360   3.872   2.955 -0.2339  0.3827  2.7311
12804TIP3   OH259826   1.088   2.882   2.106  0.3377 -0.3707  0.1901
12804TIP3    H159827   1.102   2.859   2.014  0.9256  0.9567 -0.0745
12804TIP3    H259828   0.997   2.859   2.122  0.4374 -1.3133 -0.5069
12805TIP3   OH259829   1.024   2.133  15.091 -0.6388  0.6329  0.0147
12805TIP3    H159830   1.107   2.155  15.133  0.4704  2.8206 -3.1260
12805TIP3    H259831   1.029   2.039  15.075  0.2462  0.3426  1.8176
12806TIP3   OH259832   4.842   6.701  14.545 -0.5264 -0.2108  0.0460
12806TIP3    H159833   4.762   6.649  14.546 -1.3920  1.0919  0.2819
12806TIP3    H259834   4.815   6.787  14.577  0.8388  0.4356 -0.4828
12807TIP3   OH259835   1.798   3.014   1.712 -0.5163 -0.2102  0.2836
12807TIP3    H159836   1.792   3.092   1.769  1.4708 -0.9678  1.5879
12807TIP3    H259837   1.844   3.045   1.634 -0.3687  0.0898  0.4875
12808TIP3   OH259838   3.357   5.606  11.147 -0.2019  0.1141 -0.6174
12808TIP3    H159839   3.391   5.692  11.173 -0.1115 -0.4963  1.3670
12808TIP3    H259840   3.277   5.627  11.098 -0.0470  1.3428 -0.3819
12809TIP3   OH259841   1.273   5.528  14.600 -0.4074 -0.6473  0.1435
12809TIP3    H159842   1.297   5.529  14.692 -0.7072  0.3300  0.2144
12809TIP3    H259843   1.177   5.527  14.600 -0.4031 -2.0828 -0.1507
12810TIP3   OH259844   6.131   3.723   6.469  0.2881  0.4600  0.0912
12810TIP3    H159845   6.155   3.639   6.429  0.0762  1.1676 -1.5802
12810TIP3    H259846   6.157   3.788   6.404 -1.4947  1.5566  0.4489
12811TIP3   OH259847   1.450   4.622   4.518  0.2430 -0.1961 -0.6370
12811TIP3    H159848   1.477   4.532   4.497 -0.4588 -0.7007  0.5884
12811TIP3    H259849   1.484   4.638   4.605 -0.9534  0.1647 -0.2222
12812TIP3   OH259850   1.718   0.898   3.107  0.3944 -0.5267 -0.1550
12812TIP3    H159851   1.650   0.832   3.096  0.2163 -0.4732  0.6402
12812TIP3    H259852   1.736   0.900   3.201  0.4079  0.5474 -0.1713
12813TIP3   OH259853   4.633   1.092  11.818 -0.0054  0.5241 -0.1093
12813TIP3    H159854   4.566   1.048  11.870 -1.2791  1.1931 -1.1599
12813TIP3    H259855   4.616   1.185  11.830  0.2589  0.6953 -1.0023
12814TIP3   OH259856   1.649   4.912  15.028  0.4093  0.0342 -0.0118
12814TIP3    H159857   1.596   4.936  15.103  0.4096 -1.5922  0.5161
12814TIP3    H259858   1.609   4.958  14.954 -1.1665 -0.4703  0.5292
12815TIP3   OH259859   1.729   1.145   1.993 -0.3592 -0.4234 -0.0834
12815TIP3    H159860   1.704   1.056   2.020 -2.1549 -0.2927 -1.2234
12815TIP3    H259861   1.745   1.138   1.899 -0.5108  0.4638 -0.1716
12816TIP3   OH259862   2.590   0.437   2.931  0.5020  0.5648  0.0709
12816TIP3    H159863   2.575   0.519   2.885  0.5466  1.9289  2.4001
12816TIP3    H259864   2.507   0.389   2.923  0.1970  1.2093 -0.5730
12817TIP3   OH259865   0.610   3.352  16.787  0.1635  0.1643  0.0423
12817TIP3    H159866   0.528   3.344  16.739 -0.0245  0.5606  0.3000
12817TIP3    H259867   0.647   3.435  16.758  1.0314 -0.5473 -0.9282
12818TIP3   OH259868   4.933   6.631   1.649 -0.3231 -0.1832  1.1443
12818TIP3    H159869   4.952   6.591   1.565 -1.8494  0.1499  0.6264
12818TIP3    H259870   4.993   6.589   1.710 -0.6336 -1.9251  0.2645
12819TIP3   OH259871   6.497   4.080   2.185 -0.1375 -0.3105 -0.1067
12819TIP3    H159872   6.553   4.030   2.127  0.0300 -0.8256  0.4984
12819TIP3    H259873   6.471   4.157   2.134  1.1741 -0.0336 -0.3636
12820TIP3   OH259874   4.398   1.619   3.714  0.1910 -0.4789 -0.6810
12820TIP3    H159875   4.490   1.641   3.701 -0.4743  2.1926 -0.9741
12820TIP3    H259876   4.355   1.643   3.632 -0.7996 -1.6654 -0.5273
12821TIP3   OH259877   3.778   1.282  13.646 -0.6029  0.0706 -0.3530
12821TIP3    H159878   3.730   1.230  13.582 -0.4740  1.3172 -1.4737
12821TIP3    H259879   3.722   1.283  13.723 -0.5161 -1.8787 -0.2570
12822TIP3   OH259880   3.587   2.536  11.400  0.1870  0.0990 -0.2949
12822TIP3    H159881   3.672   2.499  11.374 -0.0314  0.5488 -1.7031
12822TIP3    H259882   3.580   2.616  11.349 -1.6481 -0.5936 -1.1632
12823TIP3   OH259883   6.118   3.456   5.918 -0.2563 -0.3482 -0.2370
12823TIP3    H159884   6.126   3.376   5.971  1.3359 -0.5960 -0.8333
12823TIP3    H259885   6.201   3.501   5.930 -0.8690  0.8663 -0.4969
12824TIP3   OH259886   4.383   4.921   4.537 -0.2302  0.2561  0.6372
12824TIP3    H159887   4.425   5.001   4.506 -0.9693  0.8312  1.1032
12824TIP3    H259888   4.454   4.856   4.537  0.5558  1.0937  0.9805
12825TIP3   OH259889   0.638   3.767   1.094 -0.3142 -0.0727  0.5068
12825TIP3    H159890   0.629   3.784   1.188  0.9415  1.1178  0.4286
12825TIP3    H259891   0.624   3.673   1.085 -0.7509 -0.1507  1.8478
12826TIP3   OH259892   2.094   1.429  13.536 -0.7310 -0.2938  0.3208
12826TIP3    H159893   2.129   1.364  13.476  0.2263 -0.2452  0.8069
12826TIP3    H259894   2.127   1.513  13.502 -1.5288 -0.1102 -0.0097
12827TIP3   OH259895   5.394   6.228  13.702  0.1371 -0.3638 -0.5301
12827TIP3    H159896   5.300   6.232  13.716  0.1371 -1.0709 -0.2800
12827TIP3    H259897   5.433   6.261  13.782  0.0988  0.3486 -0.8044
12828TIP3   OH259898   3.250   1.420   0.381  0.7687  0.0125  0.0899
12828TIP3    H159899   3.222   1.510   0.399  0.9842 -0.0311  0.6655
12828TIP3    H259900   3.306   1.398   0.456  0.1260 -0.8619  0.3117
12829TIP3   OH259901   0.308   3.083  15.108 -0.2173  0.2641  0.0003
12829TIP3    H159902   0.332   3.045  15.193 -0.7711  0.8579  0.4248
12829TIP3    H259903   0.212   3.087  15.110 -0.1261  2.8335  0.4632
12830TIP3   OH259904   4.152   4.554  14.688  0.1051  0.3306  0.8030
12830TIP3    H159905   4.149   4.465  14.653 -0.0642  0.8322 -0.4814
12830TIP3    H259906   4.066   4.567  14.727 -0.0443  0.1159  0.5471
12831TIP3   OH259907   2.011   0.041  13.827  0.5673  0.6942 -0.3808
12831TIP3    H159908   1.922   0.019  13.852  1.2386  0.1063  1.5489
12831TIP3    H259909   2.032  -0.020  13.756  0.2332 -0.7188  0.7224
12832TIP3   OH259910   4.483   0.569  16.973  0.3481  0.3575  0.3367
12832TIP3    H159911   4.440   0.554  16.889  1.4587  0.4590 -0.2664
12832TIP3    H259912   4.434   0.515  17.036 -0.6035  0.4393 -0.3401
12833TIP3   OH259913   6.190   4.515   3.346  0.3029 -0.4945  0.2772
12833TIP3    H159914   6.262   4.535   3.405  1.4945 -2.2593 -0.5306
12833TIP3    H259915   6.122   4.479   3.403  0.7249 -0.4336  0.8200
12834TIP3   OH259916   0.417   4.435  11.348  0.0345  0.3835 -0.0057
12834TIP3    H159917   0.428   4.344  11.320 -0.5814  0.2186  0.2889
12834TIP3    H259918   0.439   4.434  11.441  0.5774  0.6445 -0.1298
12835TIP3   OH259919   1.974   0.370  15.076  0.2791 -0.7642  0.2505
12835TIP3    H159920   1.995   0.462  15.090 -3.0311 -0.1733  2.0038
12835TIP3    H259921   1.989   0.355  14.983  0.8651  1.5318 -0.0492
12836TIP3   OH259922   3.455   1.525   6.061 -0.3982 -0.0361  0.1443
12836TIP3    H159923   3.387   1.498   6.123 -1.4856  0.1746 -0.9330
12836TIP3    H259924   3.446   1.620   6.055  0.0264 -0.0019  0.0381
12837TIP3   OH259925   4.767   1.096  12.686 -0.1122 -0.0477  0.0246
12837TIP3    H159926   4.752   1.011  12.646  1.7609 -0.6874  0.6306
12837TIP3    H259927   4.801   1.150  12.615  0.0532 -0.2097 -0.0187
12838TIP3   OH259928   1.019   1.256   0.578 -0.1780  0.1742  0.7995
12838TIP3    H159929   1.097   1.201   0.566 -0.4729 -0.4052  1.4969
12838TIP3    H259930   0.987   1.272   0.489  1.4933  1.5198  0.4261
12839TIP3   OH259931   1.884   6.555  17.204 -0.1178 -0.7719  0.4214
12839TIP3    H159932   1.935   6.517  17.132 -0.2544  0.7625 -0.5098
12839TIP3    H259933   1.812   6.601  17.161  0.5732  1.3383  1.4147
12840TIP3   OH259934   1.868   5.383   1.294  0.7817 -0.1295  0.6597
12840TIP3    H159935   1.866   5.352   1.385  0.0938 -0.5797  0.4975
12840TIP3    H259936   1.956   5.361   1.263  0.9001 -0.2907  1.1038
12841TIP3   OH259937   0.907   4.803   0.498 -0.0062 -0.2594  0.1177
12841TIP3    H159938   0.820   4.761   0.499 -0.3948  0.4968 -1.3293
12841TIP3    H259939   0.902   4.867   0.428  1.3732  0.5854  0.7778
12842TIP3   OH259940   2.572   0.305  16.167  0.0585  0.0508  0.3908
12842TIP3    H159941   2.642   0.349  16.216 -0.6687  2.2779 -0.5122
12842TIP3    H259942   2.607   0.296  16.078 -0.5856  0.6770  0.0733
12843TIP3   OH259943   3.236   2.222  13.185  0.2463 -0.1453  0.3870
12843TIP3    H159944   3.233   2.210  13.280  0.6038 -0.0390  0.4134
12843TIP3    H259945   3.327   2.243  13.166  0.0585  0.3982  0.0831
12844TIP3   OH259946   4.212   1.480   3.436  0.6833 -0.5505  0.1061
12844TIP3    H159947   4.127   1.522   3.445  0.9640 -0.4942  3.0793
12844TIP3    H259948   4.274   1.554   3.429  0.7057 -0.5582  0.2263
12845TIP3   OH259949   6.235   5.226  13.343  0.3760  0.8452 -0.8036
12845TIP3    H159950   6.152   5.265  13.371 -0.6965 -2.2209  0.4480
12845TIP3    H259951   6.229   5.223  13.247 -2.2622 -1.9596 -0.6169
12846TIP3   OH259952   5.756   2.166  12.782  0.1675  0.0040 -0.2073
12846TIP3    H159953   5.714   2.134  12.702 -1.4927  1.7868 -0.0758
12846TIP3    H259954   5.847   2.181  12.756  1.0865 -4.9486 -0.2013
12847TIP3   OH259955   2.202   3.544   4.831 -0.2522 -0.2492  0.0794
12847TIP3    H159956   2.187   3.537   4.736 -2.8952 -2.5930  0.6034
12847TIP3    H259957   2.255   3.467   4.852 -0.6807 -0.3791  0.6824
12848TIP3   OH259958   6.757   3.214  10.261  0.0029  0.0837  0.5932
12848TIP3    H159959   6.717   3.204  10.347  1.5311  1.4254  1.4873
12848TIP3    H259960   6.737   3.303  10.235  1.3028  0.3598  0.4925
12849TIP3   OH259961   6.234   5.226  11.975  0.2767 -0.0793  0.4810
12849TIP3    H159962   6.140   5.204  11.974 -0.1280  1.6112 -0.1746
12849TIP3    H259963   6.236   5.320  11.994  1.7722  0.1703 -0.8628
12850TIP3   OH259964   5.823   2.199   4.670 -0.0908  0.1852 -0.0542
12850TIP3    H159965   5.769   2.278   4.673 -0.4233 -0.0983  2.3420
12850TIP3    H259966   5.812   2.166   4.581 -0.8268  2.2165 -0.7544
12851TIP3   OH259967   2.027   2.066   3.942 -0.2680  0.9050 -0.1867
12851TIP3    H159968   1.996   2.133   3.882 -2.1296 -0.0642 -0.3432
12851TIP3    H259969   2.117   2.049   3.915  0.1828  3.1988 -0.2424
12852TIP3   OH259970   4.994   2.930   4.334 -0.1650  0.2903  0.1939
12852TIP3    H159971   5.061   2.960   4.273 -1.9717  0.2705 -1.8530
12852TIP3    H259972   4.917   2.915   4.280 -2.1966  1.4012  2.6624
12853TIP3   OH259973   3.886   5.045   4.421 -0.3455 -0.5002  0.2947
12853TIP3    H159974   3.823   4.981   4.457 -0.1886 -0.8349 -0.0247
12853TIP3    H259975   3.962   5.038   4.479 -0.0856 -1.0523 -0.1088
12854TIP3   OH259976   4.012   3.114   0.731 -0.4202 -0.0269  0.0182
12854TIP3    H159977   4.081   3.123   0.798  0.0996 -0.6064 -0.4355
12854TIP3    H259978   3.941   3.069   0.777  0.2968 -1.2731 -0.0587
12855TIP3   OH259979   1.778   3.525   4.361  0.3802 -0.3140 -0.8223
12855TIP3    H159980   1.713   3.590   4.385 -0.6250 -0.8122 -2.1315
12855TIP3    H259981   1.793   3.474   4.440  1.1830  1.4952  0.2161
12856TIP3   OH259982   1.344   1.490  13.575 -0.5801  0.2663  0.3515
12856TIP3    H159983   1.276   1.506  13.640 -0.2186 -2.1485  1.3884
12856TIP3    H259984   1.426   1.498  13.624 -0.2743 -0.6587  0.0140
12857TIP3   OH259985   2.417   0.001   4.183  0.2986 -0.7083 -0.7487
12857TIP3    H159986   2.503  -0.006   4.142  0.0198  0.8870 -1.6461
12857TIP3    H259987   2.433   0.050   4.264  0.9749 -4.5202  1.5162
12858TIP3   OH259988   2.266   6.596  17.039  0.4784 -0.0031 -0.0641
12858TIP3    H159989   2.192   6.633  16.990 -0.2261 -1.5977 -0.2713
12858TIP3    H259990   2.261   6.636  17.125 -0.0639  0.6063 -0.3724
12859TIP3   OH259991   5.017   1.133  13.755 -0.4612  0.4553  0.2664
12859TIP3    H159992   5.069   1.054  13.749 -0.4035  0.5621 -0.6801
12859TIP3    H259993   5.037   1.169  13.841 -1.4624 -1.2329  1.2330
12860TIP3   OH259994   6.360   5.003  12.420  0.0267 -0.4253 -0.7842
12860TIP3    H159995   6.379   5.043  12.334  1.3630  0.1393 -0.2510
12860TIP3    H259996   6.430   4.939  12.432 -0.2176 -0.5751 -0.1627
12861TIP3   OH259997   5.858   2.594  13.898  0.4047  0.0201  0.4335
12861TIP3    H159998   5.927   2.641  13.852  0.0896  0.8157  0.7453
12861TIP3    H259999   5.780   2.648  13.884  0.1263 -0.1835  1.1629
12862TIP3   OH260000   2.566   4.858  13.825  0.3493 -0.0760  0.3049
12862TIP3    H160001   2.596   4.770  13.844 -1.1542 -0.8988 -1.0480
12862TIP3    H260002   2.528   4.889  13.907  0.9967 -0.6348  0.8173
12863TIP3   OH260003   2.752   5.672   4.228  0.3476 -0.0812 -0.1109
12863TIP3    H160004   2.837   5.637   4.200 -0.0539 -1.4083  0.3201
12863TIP3    H260005   2.692   5.598   4.222 -0.4784  0.4834  0.9901
12864TIP3   OH260006   1.441   3.612   5.809 -0.1421 -0.2608  0.1671
12864TIP3    H160007   1.355   3.605   5.767 -0.3981 -2.1423  0.9931
12864TIP3    H260008   1.471   3.522   5.819  2.1000  0.3828 -0.4197
12865TIP3   OH260009   6.723   4.229  16.563 -0.0963 -0.2065 -0.8524
12865TIP3    H160010   6.703   4.283  16.487  0.6791  3.2657  1.3140
12865TIP3    H260011   6.641   4.224  16.612 -0.0580 -0.6797 -0.8285
12866TIP3   OH260012   1.052   0.013   0.433 -0.2670  0.1293  0.3757
12866TIP3    H160013   1.026   0.102   0.458 -0.6531  0.4504 -1.1253
12866TIP3    H260014   1.003  -0.004   0.353 -2.1274 -2.3771  1.9661
12867TIP3   OH260015   5.004   4.487  11.671 -0.1510 -0.9036 -0.0020
12867TIP3    H160016   4.954   4.420  11.718 -1.0666  0.6964  1.3467
12867TIP3    H260017   4.946   4.517  11.602  0.2069 -1.3765 -0.5170
12868TIP3   OH260018   0.503   3.057  10.687  0.2927 -0.4211 -0.7106
12868TIP3    H160019   0.453   2.993  10.636 -1.4003 -0.5358  1.0133
12868TIP3    H260020   0.445   3.133  10.693  0.6286 -0.2599  0.6357
12869TIP3   OH260021   1.415   0.218   3.916 -0.1077  0.2625 -0.3186
12869TIP3    H160022   1.444   0.240   4.005  0.0760  0.6523 -0.4724
12869TIP3    H260023   1.495   0.216   3.864 -0.1319 -0.7053 -0.3275
12870TIP3   OH260024   1.884   4.440  15.647 -0.2831  0.0225 -0.0309
12870TIP3    H160025   1.941   4.479  15.582 -1.2861  0.5130 -0.6260
12870TIP3    H260026   1.939   4.431  15.725  0.8632 -0.3850 -0.8688
12871TIP3   OH260027   3.716   0.070   5.450 -0.2000 -0.0257 -0.4590
12871TIP3    H160028   3.740   0.056   5.359  0.5807  0.1862 -0.2855
12871TIP3    H260029   3.756  -0.003   5.497  0.1755  0.3680 -0.1598
12872TIP3   OH260030   0.507   5.617  16.161 -0.1184  0.3702  0.0913
12872TIP3    H160031   0.523   5.546  16.099  1.0222 -0.2558  1.0983
12872TIP3    H260032   0.558   5.594  16.238  1.5018  3.0625 -0.1214
12873TIP3   OH260033   3.495   1.973  12.483  0.1992 -0.1942  0.2561
12873TIP3    H160034   3.534   1.886  12.491 -0.0920 -0.2957  0.6512
12873TIP3    H260035   3.413   1.966  12.533 -0.3904 -0.0345 -0.6748
12874TIP3   OH260036   4.245   5.371   0.690  0.3684  0.2542  0.4256
12874TIP3    H160037   4.247   5.379   0.785  1.0396 -1.2535  0.5376
12874TIP3    H260038   4.200   5.288   0.673 -0.9215  1.1341 -0.6121
12875TIP3   OH260039   1.890   4.263   5.779  0.1071 -0.4522 -0.1210
12875TIP3    H160040   1.896   4.331   5.846 -0.8260 -0.1335 -0.3626
12875TIP3    H260041   1.946   4.193   5.812 -0.4325 -0.3443  1.0505
12876TIP3   OH260042   1.055   3.148  14.577  0.6150  0.1368  0.0392
12876TIP3    H160043   1.132   3.203  14.587  2.3729 -1.7643 -2.4457
12876TIP3    H260044   0.995   3.200  14.524  1.3701  0.4824 -0.4829
12877TIP3   OH260045   2.988   4.567   0.685  0.8058  0.1884 -0.3052
12877TIP3    H160046   3.050   4.509   0.640  0.9772  0.8535 -0.9391
12877TIP3    H260047   3.028   4.654   0.679  0.9097  0.2634  1.2976
12878TIP3   OH260048   2.723   5.837  10.266 -0.6959 -0.5599  0.4352
12878TIP3    H160049   2.766   5.826  10.351 -0.4446  0.4049  0.4461
12878TIP3    H260050   2.795   5.830  10.203 -0.5950  0.5645  0.4213
12879TIP3   OH260051   2.034   1.042  16.146  0.4619  0.1284 -0.3984
12879TIP3    H160052   2.047   0.952  16.116 -0.5588 -0.3954  0.6818
12879TIP3    H260053   2.006   1.033  16.237  0.9464  1.5677 -0.0988
12880TIP3   OH260054   4.886   5.642   2.684 -0.0051 -0.4568 -0.0788
12880TIP3    H160055   4.981   5.647   2.689 -0.0169 -0.6835  0.3761
12880TIP3    H260056   4.864   5.689   2.603  0.5180 -0.7295 -0.3852
12881TIP3   OH260057   0.620   1.815   2.393  0.1874 -0.3828  0.0354
12881TIP3    H160058   0.580   1.866   2.322 -0.4526 -1.4070 -0.3467
12881TIP3    H260059   0.554   1.817   2.462  0.1627 -0.6949  0.0184
12882TIP3   OH260060   3.505   5.129   0.758  0.2642 -0.5266 -0.6181
12882TIP3    H160061   3.492   5.149   0.851  0.6303  1.4797 -0.9790
12882TIP3    H260062   3.421   5.092   0.730  0.2480 -1.4358  0.5657
12883TIP3   OH260063   6.398   1.673   3.632  0.0316  0.0468 -0.1676
12883TIP3    H160064   6.353   1.752   3.663 -0.5221 -0.6487  0.8163
12883TIP3    H260065   6.473   1.706   3.583  0.6905  1.1636  1.5657
12884TIP3   OH260066   3.707   5.917   5.511  0.5552  0.2041 -0.0238
12884TIP3    H160067   3.711   6.001   5.557  0.3801  0.7838 -1.0423
12884TIP3    H260068   3.693   5.941   5.419  1.2404 -0.9222 -0.4304
12885TIP3   OH260069   0.689   3.054  12.025 -0.0379 -0.0308  0.0021
12885TIP3    H160070   0.706   3.109  11.948 -0.1643 -0.1615 -0.1208
12885TIP3    H260071   0.602   3.082  12.055  0.2037  0.3273  0.3619
12886TIP3   OH260072   2.645   2.755  16.596 -0.7887  0.2377  0.6734
12886TIP3    H160073   2.623   2.847  16.605 -2.2095  0.2747 -2.4326
12886TIP3    H260074   2.570   2.717  16.550  0.5053 -2.1096  0.4320
12887TIP3   OH260075   6.096   0.565  12.082 -0.6007 -0.0887 -0.0621
12887TIP3    H160076   6.081   0.651  12.041 -0.5623 -0.0608 -0.0186
12887TIP3    H260077   6.184   0.541  12.056  0.3891  1.0926  2.0552
12888TIP3   OH260078   0.401   1.077   5.689 -0.6297  0.7779 -0.4711
12888TIP3    H160079   0.474   1.023   5.719  0.0512  0.6619 -2.2460
12888TIP3    H260080   0.384   1.138   5.761  1.1134  0.7010  0.0258
12889TIP3   OH260081   3.897   1.436   0.692 -0.0361 -0.3908  0.4918
12889TIP3    H160082   3.882   1.525   0.723  0.2401  0.2213 -1.0907
12889TIP3    H260083   3.812   1.393   0.700  0.0593 -0.3064  2.2082
12890TIP3   OH260084   3.923   2.418  14.337  0.0735  0.4228  1.0044
12890TIP3    H160085   3.831   2.395  14.349  0.3264  0.1178  2.4155
12890TIP3    H260086   3.942   2.480  14.407  0.9254  0.5469  0.6725
12891TIP3   OH260087   5.396   3.636   6.051 -0.1300  0.4790 -0.3197
12891TIP3    H160088   5.462   3.592   6.105 -1.2750 -1.9222 -0.8126
12891TIP3    H260089   5.427   3.726   6.045  0.8076  0.4762  3.1151
12892TIP3   OH260090   2.892   0.496   0.084 -0.1238  0.3149 -0.0495
12892TIP3    H160091   2.925   0.527   0.168  0.4610 -2.4689  0.8061
12892TIP3    H260092   2.815   0.443   0.106  0.9095 -1.6760 -1.1219
12893TIP3   OH260093   5.778   6.556  16.825  0.1712 -0.3135  0.3818
12893TIP3    H160094   5.717   6.624  16.799 -1.2494 -2.0347 -0.9374
12893TIP3    H260095   5.725   6.494  16.877  1.3317 -0.6256  1.2171
12894TIP3   OH260096   0.917   6.112   0.430 -0.0963 -0.5204 -0.3125
12894TIP3    H160097   0.983   6.049   0.402  1.5930  1.3730 -0.7288
12894TIP3    H260098   0.967   6.186   0.464 -2.0475 -0.3413  2.3723
12895TIP3   OH260099   2.618   3.983  14.487 -0.3184  0.1338  0.5817
12895TIP3    H160100   2.657   3.898  14.510 -1.2068 -0.4674 -0.0713
12895TIP3    H260101   2.605   4.027  14.570 -0.3478 -0.6017  0.9721
12896TIP3   OH260102   1.032   0.746  12.814 -0.2241  0.1335 -0.0110
12896TIP3    H160103   1.074   0.832  12.802 -0.6916  0.4330  0.5056
12896TIP3    H260104   1.059   0.696  12.737  0.8186  0.4324  0.1512
12897TIP3   OH260105   2.538   2.071   5.959 -0.1779 -0.2671  0.1146
12897TIP3    H160106   2.456   2.103   5.998 -1.1918 -2.1734 -0.3854
12897TIP3    H260107   2.569   2.004   6.019  0.4248 -0.3490 -0.2806
12898TIP3   OH260108   6.701   4.772  15.828  0.2766  0.5967 -0.0955
12898TIP3    H160109   6.761   4.834  15.870  0.1185 -0.1935  1.3020
12898TIP3    H260110   6.748   4.689  15.829  0.3599  0.5962 -1.6973
12899TIP3   OH260111   1.752   6.663  11.629  0.0877  0.0725  0.2886
12899TIP3    H160112   1.778   6.755  11.626 -0.3746  0.1916 -0.0893
12899TIP3    H260113   1.810   6.619  11.567  0.0833  0.1646  0.2199
12900TIP3   OH260114   5.343   4.714  15.886 -0.3595 -0.3214  0.5803
12900TIP3    H160115   5.400   4.658  15.832 -0.9924 -0.3896 -0.0205
12900TIP3    H260116   5.399   4.740  15.959  0.4209 -0.4755  0.0547
12901TIP3   OH260117   1.504   1.499  14.432 -0.6278 -0.3494  0.3392
12901TIP3    H160118   1.524   1.530  14.344 -0.9101 -0.7258  0.1424
12901TIP3    H260119   1.431   1.555  14.460 -0.6933 -0.3877  0.2442
12902TIP3   OH260120   5.214   0.761   2.585 -0.0344 -0.6876  0.2008
12902TIP3    H160121   5.193   0.820   2.657 -0.7405 -1.3261  0.5252
12902TIP3    H260122   5.155   0.788   2.514  1.9285  1.1345 -0.7714
12903TIP3   OH260123   6.041   1.067  14.488  0.1406 -0.5757 -0.2559
12903TIP3    H160124   6.029   1.103  14.400  0.2403 -0.0713 -0.0648
12903TIP3    H260125   6.075   0.978  14.473 -2.4573 -1.5279 -0.7983
12904TIP3   OH260126   1.479   5.802  11.606 -0.8334  0.2560 -0.9033
12904TIP3    H160127   1.401   5.839  11.564 -0.9670  2.6787  1.3537
12904TIP3    H260128   1.550   5.861  11.581 -0.1635 -0.5678 -0.9668
12905TIP3   OH260129   3.435   5.022   1.322 -0.0925  0.5415 -0.0416
12905TIP3    H160130   3.367   5.085   1.343 -0.2858 -0.3021  1.9195
12905TIP3    H260131   3.420   5.000   1.230 -1.0979  2.0102 -0.2359
12906TIP3   OH260132   1.778   1.860   5.102 -0.0128  0.3228 -0.0370
12906TIP3    H160133   1.872   1.869   5.122 -0.3199 -0.5748  1.8925
12906TIP3    H260134   1.775   1.792   5.035  0.7890  1.0924 -0.8754
12907TIP3   OH260135   3.758   5.115   2.966 -0.2442 -0.5071 -0.4855
12907TIP3    H160136   3.720   5.149   3.047 -0.0869  0.3058 -0.7477
12907TIP3    H260137   3.691   5.055   2.932 -0.5151 -0.4850 -0.0030
12908TIP3   OH260138   6.764   3.967  15.891  0.6708  0.3898  0.2768
12908TIP3    H160139   6.687   3.922  15.925  1.0487  0.0664  0.7279
12908TIP3    H260140   6.817   3.897  15.852  1.3118  0.4206  1.0743
12909TIP3   OH260141   3.279   1.554   2.956 -0.7063 -0.7189  0.1034
12909TIP3    H160142   3.363   1.568   2.912 -0.4417 -3.2394 -0.2846
12909TIP3    H260143   3.214   1.584   2.892 -0.1045  2.4303  0.9007
12910TIP3   OH260144   6.268   4.515   4.020 -0.0934  0.1459  0.3168
12910TIP3    H160145   6.251   4.602   4.055  0.3023 -0.3157  1.7026
12910TIP3    H260146   6.182   4.476   4.008 -0.2414  0.2900  0.8782
12911TIP3   OH260147   5.226   1.362   1.442 -0.1698 -0.3144 -0.6731
12911TIP3    H160148   5.250   1.337   1.353 -0.8236 -2.0312 -0.3915
12911TIP3    H260149   5.206   1.279   1.485  0.0858  0.5057  1.0590
12912TIP3   OH260150   4.744   6.719   1.453  0.0268 -0.0121  0.4700
12912TIP3    H160151   4.817   6.729   1.513  0.2795  0.2912  0.1203
12912TIP3    H260152   4.722   6.809   1.427  1.4423 -0.2374 -1.6785
12913TIP3   OH260153   4.103   0.198   5.641 -0.0626 -0.1534  0.3046
12913TIP3    H160154   4.052   0.124   5.673 -1.6555 -0.5467 -2.9211
12913TIP3    H260155   4.179   0.159   5.599 -0.3086  0.0875 -0.3764
12914TIP3   OH260156   0.152   5.190   4.621  0.2010 -0.7191 -0.9274
12914TIP3    H160157   0.115   5.103   4.611  0.4419 -0.9932  0.4497
12914TIP3    H260158   0.077   5.247   4.638  0.0731 -0.6935 -1.5567
12915TIP3   OH260159   0.445   5.827   4.154  0.0623  0.3297  0.3608
12915TIP3    H160160   0.383   5.755   4.146  0.2646  0.3937 -2.2926
12915TIP3    H260161   0.522   5.789   4.197 -0.7062 -0.4403  1.0648
12916TIP3   OH260162   3.448   1.599   3.236  0.2600 -0.1247 -0.4604
12916TIP3    H160163   3.474   1.552   3.157 -2.4602  0.8385 -1.9866
12916TIP3    H260164   3.419   1.684   3.205  1.3067  1.1295  1.8542
12917TIP3   OH260165   0.226   2.010   4.559 -0.0256 -0.5418 -0.0577
12917TIP3    H160166   0.281   1.935   4.539  1.6369  0.0503  2.0874
12917TIP3    H260167   0.207   2.050   4.474 -0.0482 -2.7549 -1.1137
12918TIP3   OH260168   5.792   5.913   3.601 -0.1671  0.0224  0.0500
12918TIP3    H160169   5.747   5.842   3.648  0.5000 -1.5671 -1.6632
12918TIP3    H260170   5.885   5.898   3.618 -0.0333  0.6149 -0.1534
12919TIP3   OH260171   4.391   4.326  15.417  0.4415 -0.1297 -0.3477
12919TIP3    H160172   4.304   4.321  15.458 -0.1886 -2.1089 -1.8814
12919TIP3    H260173   4.433   4.243  15.438  0.6503 -0.6018 -2.5198
12920TIP3   OH260174   4.203   2.364  11.792 -0.2199 -0.3339 -0.1831
12920TIP3    H160175   4.275   2.408  11.837  0.6618  1.1276 -2.9329
12920TIP3    H260176   4.228   2.272  11.791  1.0614  0.0055 -0.0777
12921TIP3   OH260177   2.224   0.408   3.676  0.5128 -0.0137 -0.3323
12921TIP3    H160178   2.235   0.323   3.719 -0.3450 -0.1653 -0.4087
12921TIP3    H260179   2.313   0.437   3.658  0.8061 -0.9501 -0.4127
12922TIP3   OH260180   4.317   1.025   2.534  0.2192 -0.0311 -0.0451
12922TIP3    H160181   4.292   1.008   2.625  1.1233 -0.5542  0.1118
12922TIP3    H260182   4.307   0.941   2.490  2.0325 -0.3375  0.1066
12923TIP3   OH260183   0.596   0.634   4.733 -0.1146  0.2354 -0.2486
12923TIP3    H160184   0.564   0.610   4.820  2.7947 -1.3715  0.4251
12923TIP3    H260185   0.616   0.551   4.691 -0.3016  1.0589 -1.9958
12924TIP3   OH260186   3.401   4.920  15.443 -0.1090  0.4539  0.4233
12924TIP3    H160187   3.485   4.921  15.397  0.5292  2.5024  1.5898
12924TIP3    H260188   3.388   5.010  15.472 -1.3935 -0.3990  2.6373
12925TIP3   OH260189   3.184   1.359   4.860 -0.3790  0.0013 -0.3436
12925TIP3    H160190   3.280   1.362   4.865 -0.2429 -1.6031 -1.5303
12925TIP3    H260191   3.156   1.444   4.895  1.5410  1.1047 -1.3546
12926TIP3   OH260192   5.458   5.159   2.212 -0.2725 -0.3011 -0.1421
12926TIP3    H160193   5.415   5.075   2.232 -0.5440 -0.3530 -0.9450
12926TIP3    H260194   5.442   5.173   2.119 -1.2183  1.2086  0.2304
12927TIP3   OH260195   3.482   4.084   1.146  0.0679 -0.4846 -0.0172
12927TIP3    H160196   3.452   4.063   1.234  1.9213 -0.6278  0.6026
12927TIP3    H260197   3.555   4.024   1.131  1.3235  1.1897 -0.6998
12928TIP3   OH260198   0.584   5.682   5.548 -0.4574  0.9460 -0.7912
12928TIP3    H160199   0.565   5.637   5.465 -0.7156  0.9950 -0.7589
12928TIP3    H260200   0.538   5.631   5.614  1.8485 -0.6139 -0.3225
12929TIP3   OH260201   0.779   4.321  17.047 -0.1379  0.2429 -0.3633
12929TIP3    H160202   0.693   4.340  17.086  0.2559  1.2682  0.0367
12929TIP3    H260203   0.768   4.341  16.954 -1.0308 -2.0306 -0.7794
12930TIP3   OH260204   3.044   0.528   4.623 -0.0639 -0.0563  0.1605
12930TIP3    H160205   2.978   0.543   4.555  0.7548 -0.2510 -0.6916
12930TIP3    H260206   3.022   0.442   4.659  0.4842 -0.7151 -1.0207
12931TIP3   OH260207   5.819   4.055   0.804 -0.3103  0.1826 -0.4493
12931TIP3    H160208   5.880   4.128   0.793  0.9255 -1.1273 -2.6149
12931TIP3    H260209   5.818   4.011   0.719 -0.7256 -2.5593  0.8968
12932TIP3   OH260210   5.943   3.205  14.069  0.0010  0.2931 -0.5345
12932TIP3    H160211   5.935   3.114  14.040  1.7184  0.2301 -0.8351
12932TIP3    H260212   6.016   3.240  14.019 -0.6290  1.8450 -0.4033
12933TIP3   OH260213   5.309   3.244  13.694  0.1160  0.1743  0.5458
12933TIP3    H160214   5.368   3.315  13.720 -1.2653  1.5172  0.1557
12933TIP3    H260215   5.267   3.217  13.776  1.6445 -1.1692  0.9129
12934TIP3   OH260216   0.390   3.499  15.648 -0.1553  0.0624 -0.1959
12934TIP3    H160217   0.446   3.575  15.667 -1.5098  1.5401 -1.9832
12934TIP3    H260218   0.452   3.430  15.624  0.9942  1.1570 -0.4442
12935TIP3   OH260219   1.373   2.534   4.228  0.3131  0.2092  0.3659
12935TIP3    H160220   1.401   2.591   4.299  0.5298  0.0695  0.3932
12935TIP3    H260221   1.277   2.532   4.235  0.3367  0.1723  0.6731
12936TIP3   OH260222   5.146   4.645   1.337 -0.1083  0.4147  0.0908
12936TIP3    H160223   5.225   4.607   1.298  0.0210 -1.2626  1.8881
12936TIP3    H260224   5.175   4.681   1.420 -0.9505  1.2293  0.0379
12937TIP3   OH260225   4.222   1.733  16.170  0.0962 -0.2072  0.3180
12937TIP3    H160226   4.235   1.730  16.076  0.1164  1.5980  0.2461
12937TIP3    H260227   4.261   1.651  16.202  1.5198 -0.1052 -1.0636
12938TIP3   OH260228   1.859   3.960  12.881 -0.4127  0.0765  0.3882
12938TIP3    H160229   1.862   3.992  12.971  1.4436  0.5508  0.1743
12938TIP3    H260230   1.856   4.038  12.826  0.4664 -0.1521 -0.0116
12939TIP3   OH260231   1.806   2.436   5.068 -0.1243  0.4095 -0.6068
12939TIP3    H160232   1.801   2.342   5.050  0.6342  0.4622 -1.1409
12939TIP3    H260233   1.778   2.445   5.159 -2.8196 -0.0287 -1.3487
12940TIP3   OH260234   3.786   4.315  11.962 -0.2379  0.0699  0.1672
12940TIP3    H160235   3.765   4.260  12.038 -1.7809  3.0695  2.0329
12940TIP3    H260236   3.879   4.333  11.971 -0.4835  0.7091  1.6102
12941TIP3   OH260237   1.011   3.580   5.168  0.2139  0.1164  0.1574
12941TIP3    H160238   0.980   3.521   5.100 -2.6827  0.0989  1.4031
12941TIP3    H260239   0.996   3.532   5.250 -0.0447  1.6503  1.0387
12942TIP3   OH260240   3.160   1.882   4.434  0.1364  0.2059 -0.4672
12942TIP3    H160241   3.110   1.926   4.503  0.2579 -0.8511  0.3080
12942TIP3    H260242   3.093   1.847   4.374 -0.0327 -0.5476  0.1583
12943TIP3   OH260243   1.540   5.258  15.937  0.7071  0.3656  0.3106
12943TIP3    H160244   1.616   5.252  15.995  1.3004  0.8253 -0.4132
12943TIP3    H260245   1.553   5.188  15.873  1.1588  1.2217 -0.5508
12944TIP3   OH260246   2.769   2.534   1.014  0.0429  0.0777  0.3436
12944TIP3    H160247   2.820   2.596   1.066 -1.2734  1.0760  0.4942
12944TIP3    H260248   2.820   2.453   1.015  2.4361  1.5000 -0.8991
12945TIP3   OH260249   5.201   0.814  14.657  0.3596 -0.3733 -0.5263
12945TIP3    H160250   5.174   0.881  14.720 -0.5196 -1.7185  0.5553
12945TIP3    H260251   5.285   0.845  14.624  0.1690  1.0504  0.2796
12946TIP3   OH260252   6.519   3.162   5.410 -0.4863  0.3194 -0.0114
12946TIP3    H160253   6.519   3.252   5.443 -2.0197  0.5765 -0.6690
12946TIP3    H260254   6.445   3.159   5.349 -1.2313 -1.7191  0.9547
12947TIP3   OH260255   1.542   2.691   0.134 -0.1200 -0.7737  0.2156
12947TIP3    H160256   1.463   2.642   0.155  0.4197 -1.6794  0.1767
12947TIP3    H260257   1.597   2.682   0.212 -0.1201 -0.0149  0.3055
12948TIP3   OH260258   0.030   4.398  15.489 -0.0726  0.1897  0.4140
12948TIP3    H160259  -0.065   4.391  15.488 -0.0607 -0.3458  1.6176
12948TIP3    H260260   0.060   4.307  15.485  0.3259  0.1579  3.2143
12949TIP3   OH260261   5.363   2.532   5.691  0.1842  0.7443  0.4682
12949TIP3    H160262   5.295   2.487   5.741  0.9945  0.3217  1.2065
12949TIP3    H260263   5.432   2.466   5.679  0.2838  1.0408 -0.6437
12950TIP3   OH260264   3.267   4.529   2.793  0.6509  0.1558 -0.3093
12950TIP3    H160265   3.299   4.537   2.703  0.6356  0.5886 -0.2769
12950TIP3    H260266   3.255   4.435   2.805  0.0830  0.1436 -0.9544
12951TIP3   OH260267   2.150   2.350   2.097 -0.8004 -0.6925  0.4010
12951TIP3    H160268   2.105   2.434   2.088 -2.6953 -1.7340 -0.2255
12951TIP3    H260269   2.209   2.362   2.172  0.5519  1.8440 -1.0109
12952TIP3   OH260270   3.749   4.964  14.885 -0.5103 -0.7709 -0.0396
12952TIP3    H160271   3.689   5.029  14.848 -0.6751 -1.5150 -1.1105
12952TIP3    H260272   3.693   4.907  14.939 -0.1676  0.7017  1.9206
12953TIP3   OH260273   2.779   2.233   5.970  0.5149  0.0490 -0.1586
12953TIP3    H160274   2.712   2.274   6.025  1.0898 -2.2039  2.3162
12953TIP3    H260275   2.731   2.170   5.917  0.1927  0.9784 -0.9721
12954TIP3   OH260276   5.778   3.872  13.637 -0.6261 -0.3615  0.1462
12954TIP3    H160277   5.795   3.948  13.692  0.2533  0.4551 -1.2179
12954TIP3    H260278   5.695   3.837  13.668 -0.0044 -0.1132  2.1792
12955TIP3   OH260279   1.894   5.678   1.177 -0.2483 -0.1687  0.1441
12955TIP3    H160280   1.801   5.656   1.186 -0.7182  1.8519  0.4839
12955TIP3    H260281   1.909   5.749   1.240  1.0443  0.8801 -1.2909
12956TIP3   OH260282   3.047   0.593  14.027 -0.5890  0.1111  0.5888
12956TIP3    H160283   3.107   0.597  14.101 -0.0229 -0.6651  0.1777
12956TIP3    H260284   3.006   0.506  14.035 -0.4267 -0.0276 -0.0875
12957TIP3   OH260285   0.649   5.126   5.840  0.2727 -0.4191  0.5009
12957TIP3    H160286   0.592   5.155   5.912 -1.4647 -0.6806 -0.7382
12957TIP3    H260287   0.671   5.207   5.794 -1.1477 -0.5755 -0.4805
12958TIP3   OH260288   1.470   3.113   5.110 -0.3818 -0.2928 -0.3623
12958TIP3    H160289   1.418   3.132   5.188 -0.8194 -1.0357 -0.4692
12958TIP3    H260290   1.549   3.166   5.120 -1.6683  1.7697 -0.7726
12959TIP3   OH260291   0.178   6.112   4.398  0.1384  0.9452  0.7272
12959TIP3    H160292   0.200   6.140   4.487 -0.6924  0.7833  0.9890
12959TIP3    H260293   0.263   6.103   4.354  0.6122  0.0905  1.7803
12960TIP3   OH260294   0.694   3.049   3.159 -0.7920  0.1285 -0.1588
12960TIP3    H160295   0.640   3.038   3.081  1.1085 -0.0599 -1.5012
12960TIP3    H260296   0.683   2.968   3.208 -4.1677  1.3528  1.2075
12961TIP3   OH260297   2.994   5.346  10.698 -0.9572  0.1766  0.5295
12961TIP3    H160298   3.012   5.347  10.792  0.3971 -1.0269  0.3017
12961TIP3    H260299   2.990   5.438  10.673  1.4108  0.4975  1.2717
12962TIP3   OH260300   0.853   0.101  13.038  0.3099 -0.2912  0.5774
12962TIP3    H160301   0.778   0.112  13.096  0.3966  0.8944  0.4802
12962TIP3    H260302   0.855   0.181  12.986 -0.4183 -1.8016 -1.8579
12963TIP3   OH260303   4.224   4.889  11.475 -0.2425  0.0554 -0.3155
12963TIP3    H160304   4.162   4.905  11.403 -1.0132 -3.7166 -0.6313
12963TIP3    H260305   4.168   4.875  11.551  0.4362  0.9397  0.3479
12964TIP3   OH260306   6.360   1.681  11.802  0.5907  0.3125 -0.1101
12964TIP3    H160307   6.437   1.624  11.795 -0.1649 -0.6893 -0.3323
12964TIP3    H260308   6.349   1.719  11.715 -0.0578 -0.7150 -0.4812
12965TIP3   OH260309   3.007   2.868  15.301 -0.2105 -0.0718 -0.0364
12965TIP3    H160310   3.020   2.779  15.269  0.7658 -0.1827  0.6475
12965TIP3    H260311   3.086   2.887  15.351 -0.9515  0.7501  0.8279
12966TIP3   OH260312   0.420   3.951  13.776  0.2026 -0.1659 -0.9479
12966TIP3    H160313   0.373   4.010  13.835 -0.2078 -0.2616 -1.1822
12966TIP3    H260314   0.425   3.999  13.693 -1.7803 -1.2180 -1.7055
12967TIP3   OH260315   0.170   5.700  11.143  0.2620 -0.1540 -0.0987
12967TIP3    H160316   0.093   5.658  11.104  1.4611  0.1811 -2.9389
12967TIP3    H260317   0.244   5.650  11.109  1.3467 -0.8698  3.0875
12968TIP3   OH260318   5.761   0.109  16.642  0.0128 -0.0248  0.3131
12968TIP3    H160319   5.838   0.055  16.661  1.5992  1.9411 -0.3322
12968TIP3    H260320   5.743   0.155  16.723  1.7374  2.1813 -0.5080
12969TIP3   OH260321   5.455   4.930  11.241  0.0430  0.0445  0.4251
12969TIP3    H160322   5.386   4.930  11.174  0.7312  0.4578 -0.2903
12969TIP3    H260323   5.439   5.011  11.291 -0.2072 -0.0423  0.4881
12970TIP3   OH260324   0.313   6.403   0.747 -0.1061 -0.0175 -0.1992
12970TIP3    H160325   0.313   6.499   0.743 -0.1476  0.0314  0.8242
12970TIP3    H260326   0.228   6.377   0.711 -0.1696  0.3379 -0.3082
12971TIP3   OH260327   1.266   3.066  13.737  0.0982 -0.0109 -0.1416
12971TIP3    H160328   1.257   3.038  13.646  0.6216 -1.3813  0.2256
12971TIP3    H260329   1.358   3.050  13.758  0.8816  3.5531 -0.4152
12972TIP3   OH260330   4.177   4.116   4.441  0.2198  0.2861 -0.5532
12972TIP3    H160331   4.237   4.060   4.393 -0.0192  0.6483 -1.2851
12972TIP3    H260332   4.092   4.074   4.432  0.8437 -2.0717  3.3327
12973TIP3   OH260333   0.314   6.507  16.381  0.1986  0.6344  0.3598
12973TIP3    H160334   0.247   6.452  16.340  0.2778  0.9211 -0.1602
12973TIP3    H260335   0.349   6.454  16.452  1.0885 -0.4327 -0.8672
12974TIP3   OH260336   6.313   4.875   3.165  0.0089  0.0712  0.2935
12974TIP3    H160337   6.263   4.852   3.244 -0.8472 -2.0329 -0.8155
12974TIP3    H260338   6.397   4.832   3.177 -0.6213 -1.4193 -0.5562
12975TIP3   OH260339   3.446   3.203   4.145 -0.4216  0.1819 -0.3239
12975TIP3    H160340   3.478   3.195   4.235  0.9703  1.4449 -0.6930
12975TIP3    H260341   3.507   3.151   4.093 -2.7723 -2.8124 -0.2609
12976TIP3   OH260342   0.713   0.913  15.180 -0.2528  0.7652  0.1955
12976TIP3    H160343   0.672   0.828  15.191  0.2211  0.1446 -2.5769
12976TIP3    H260344   0.806   0.894  15.169  0.5521  1.9971  4.0463
12977TIP3   OH260345   0.436   1.259   0.970  0.1210  0.1113  0.2491
12977TIP3    H160346   0.356   1.210   0.988 -0.1926  0.9784  1.2681
12977TIP3    H260347   0.423   1.293   0.882  0.4928 -1.9058 -0.6207
12978TIP3   OH260348   3.707   2.091  12.231 -1.0324 -0.4021 -0.0919
12978TIP3    H160349   3.789   2.078  12.279 -1.1055  1.0442  0.4458
12978TIP3    H260350   3.726   2.060  12.143 -0.0127 -0.4201  0.1225
12979TIP3   OH260351   1.723   2.630  14.919  0.2692 -1.0551 -0.6499
12979TIP3    H160352   1.707   2.615  14.826  0.6883  1.2100 -1.1261
12979TIP3    H260353   1.802   2.579  14.938 -0.4018 -2.3604 -1.2637
12980TIP3   OH260354   0.173   6.262  15.272  0.8919 -0.4669 -0.5915
12980TIP3    H160355   0.137   6.288  15.187 -0.1738  0.0770  0.0059
12980TIP3    H260356   0.121   6.186  15.297 -0.8686  1.1831  0.9389
12981TIP3   OH260357   5.220   5.299   4.113 -0.7492 -0.2428  0.8056
12981TIP3    H160358   5.305   5.337   4.088 -0.7591 -0.4908  0.3888
12981TIP3    H260359   5.241   5.244   4.189 -0.5072 -0.4233  0.6114
12982TIP3   OH260360   4.241   2.906   2.973 -0.3678 -0.6056  0.2270
12982TIP3    H160361   4.146   2.911   2.960 -0.3913 -1.5712 -0.0528
12982TIP3    H260362   4.255   2.821   3.015  0.3335 -0.2790  0.6603
12983TIP3   OH260363   3.046   2.297   0.277  0.3297  0.4853  0.0402
12983TIP3    H160364   2.977   2.247   0.231 -0.9308  0.2960  2.0880
12983TIP3    H260365   3.016   2.387   0.273 -1.0711  0.1812  2.6121
12984TIP3   OH260366   2.031   3.625  15.328 -0.5331 -0.1586 -0.3559
12984TIP3    H160367   2.064   3.597  15.413 -2.0860  0.3043  0.4191
12984TIP3    H260368   2.078   3.571  15.265 -0.0121 -1.1301  0.8464
12985TIP3   OH260369   2.547   6.218  17.094 -0.0501  0.6652  0.2663
12985TIP3    H160370   2.510   6.282  17.034 -0.7818 -0.3734 -0.4173
12985TIP3    H260371   2.534   6.255  17.181  2.9381  3.1925 -0.2549
12986TIP3   OH260372   1.236   3.626  12.832 -0.2892 -0.2202  0.0450
12986TIP3    H160373   1.266   3.620  12.741 -0.4934 -0.4380 -0.0090
12986TIP3    H260374   1.316   3.638  12.883 -0.2373  0.5863 -0.2295
12987TIP3   OH260375   3.774   4.694   1.631  0.8558 -0.0767 -0.6781
12987TIP3    H160376   3.742   4.604   1.631 -0.9221  0.5452 -1.4759
12987TIP3    H260377   3.739   4.732   1.712  0.4810  0.2903 -1.0121
12988TIP3   OH260378   2.713   0.338  16.868 -0.3888  0.2632  0.0981
12988TIP3    H160379   2.792   0.386  16.892  0.6153 -1.2742 -0.0847
12988TIP3    H260380   2.705   0.351  16.774 -0.3880  0.4563  0.1229
12989TIP3   OH260381   5.463   1.328   5.760  0.6228  0.8660 -0.0517
12989TIP3    H160382   5.461   1.282   5.676 -0.6373  1.8866 -0.5896
12989TIP3    H260383   5.439   1.418   5.739  1.7907  1.4883  1.1880
12990TIP3   OH260384   0.875   3.843  12.866 -0.3858 -0.6854 -0.6131
12990TIP3    H160385   0.947   3.854  12.927 -2.2626  0.3210  1.5122
12990TIP3    H260386   0.896   3.764  12.816  0.8244 -1.9923  1.8831
12991TIP3   OH260387   1.582   0.449  15.123 -0.1507 -0.8631 -0.5987
12991TIP3    H160388   1.515   0.477  15.185  0.1408 -0.6215 -0.3923
12991TIP3    H260389   1.639   0.391  15.173  0.0655 -0.6955 -0.6508
12992TIP3   OH260390   4.767   1.161   0.602 -0.2373  0.1077  0.6979
12992TIP3    H160391   4.806   1.244   0.629  2.3329 -0.5075 -0.9760
12992TIP3    H260392   4.681   1.185   0.568  0.7220  2.1836 -0.3344
12993TIP3   OH260393   2.894   4.704   2.284 -0.3023 -0.3066  0.2048
12993TIP3    H160394   2.803   4.673   2.283  0.1440 -1.6180  0.4960
12993TIP3    H260395   2.920   4.705   2.192 -1.2409  1.9815 -0.0792
12994TIP3   OH260396   6.251   0.030  12.350 -0.4625 -0.0323  0.0689
12994TIP3    H160397   6.288   0.116  12.372 -0.4145 -0.0708  0.1390
12994TIP3    H260398   6.308  -0.002  12.279  1.2272 -1.2084  1.8928
12995TIP3   OH260399   0.653   6.514  11.122 -0.2907  0.4041  0.1544
12995TIP3    H160400   0.668   6.445  11.057 -2.2908  0.5881 -0.5419
12995TIP3    H260401   0.738   6.555  11.134  0.3136 -0.2925 -1.6093
12996TIP3   OH260402   1.741   0.561  16.185  0.0501  0.2815 -0.3207
12996TIP3    H160403   1.753   0.503  16.110  1.3087 -0.6020  0.5367
12996TIP3    H260404   1.824   0.555  16.233 -1.2295 -0.2453  1.8703
12997TIP3   OH260405   2.768   4.613   1.567 -0.1169  0.1572 -0.2276
12997TIP3    H160406   2.783   4.534   1.516  0.2563  0.9871 -1.4277
12997TIP3    H260407   2.855   4.642   1.594 -0.3808 -0.9117  1.9015
12998TIP3   OH260408   3.953   1.051  12.809  0.1101 -0.0647 -0.0253
12998TIP3    H160409   3.889   1.120  12.830 -0.4843 -0.4505 -0.5397
12998TIP3    H260410   3.934   1.028  12.718  0.9655 -0.2120 -0.1695
12999TIP3   OH260411   4.288   5.702   1.540 -0.0403  0.0412 -0.8010
12999TIP3    H160412   4.377   5.732   1.558 -0.6781  2.0141 -0.7671
12999TIP3    H260413   4.298   5.614   1.505  1.9175  0.2155 -0.6887
13000TIP3   OH260414   0.244   0.934  14.604 -0.1085 -0.5648  0.2662
13000TIP3    H160415   0.152   0.930  14.578 -0.6227  0.6163  1.8130
13000TIP3    H260416   0.264   1.028  14.608  1.4769 -0.8109 -1.0658
13001TIP3   OH260417   5.736   6.375  12.613 -0.2614  0.0416 -0.1603
13001TIP3    H160418   5.673   6.309  12.583  0.9601 -0.6390 -1.3284
13001TIP3    H260419   5.688   6.428  12.675 -2.0343 -0.3781 -1.1348
13002TIP3   OH260420   2.833   2.897  12.973  0.0807 -0.3276  0.3020
13002TIP3    H160421   2.756   2.914  12.918 -0.4224 -1.1647  0.7216
13002TIP3    H260422   2.798   2.844  13.045  1.2931 -1.9299 -0.2433
13003TIP3   OH260423   6.485   2.545  12.600  0.1278 -0.5221 -0.0611
13003TIP3    H160424   6.531   2.583  12.525 -0.9803 -1.5776 -1.3055
13003TIP3    H260425   6.528   2.460  12.613 -0.5646 -0.9266 -0.3724
13004TIP3   OH260426   1.264   5.160  15.857  1.2741  0.1794  0.3601
13004TIP3    H160427   1.297   5.160  15.767 -0.5890  2.7171 -0.3927
13004TIP3    H260428   1.313   5.230  15.900  0.1855  0.8690  0.5033
13005TIP3   OH260429   0.875   0.057   5.280 -0.3735  0.1081 -0.1870
13005TIP3    H160430   0.898   0.116   5.352 -1.1084 -0.3533  0.4361
13005TIP3    H260431   0.793   0.091   5.246 -0.0021  0.3523 -0.8437
13006TIP3   OH260432   5.138   6.369  10.649  0.1418  0.2154  0.0719
13006TIP3    H160433   5.075   6.440  10.635  1.4620  0.9179 -2.6243
13006TIP3    H260434   5.088   6.289  10.630 -0.1203  0.7231 -1.4425
13007TIP3   OH260435   5.956   1.755  13.070 -0.6689 -0.1507  0.3015
13007TIP3    H160436   5.897   1.736  12.997  1.1917 -1.9945 -0.8055
13007TIP3    H260437   5.984   1.845  13.055 -1.4570 -0.0248 -0.4444
13008TIP3   OH260438   3.159   3.165   5.642  0.2939 -0.0461 -0.1896
13008TIP3    H160439   3.198   3.101   5.702  1.5907  0.8424 -0.0720
13008TIP3    H260440   3.068   3.172   5.670  0.3729 -1.1595  0.3732
13009TIP3   OH260441   2.794   2.051  13.334 -0.0939  0.1106  0.0999
13009TIP3    H160442   2.835   1.997  13.265 -1.0503  0.3543 -0.6677
13009TIP3    H260443   2.821   2.140  13.313  2.0343 -0.1089  1.7520
13010TIP3   OH260444   1.530   1.726   2.617  0.2873  0.1089  0.1336
13010TIP3    H160445   1.510   1.682   2.700  2.7400 -2.5557 -0.6090
13010TIP3    H260446   1.582   1.803   2.642 -0.1181  0.0517  1.1600
13011TIP3   OH260447   1.412   2.067   5.055  0.1433  0.2514  0.6766
13011TIP3    H160448   1.446   2.070   4.965 -2.6926 -2.2417 -0.5677
13011TIP3    H260449   1.333   2.121   5.052 -2.0678 -2.8745  0.6277
13012TIP3   OH260450   0.202   2.744  11.053  0.0086 -0.4899 -0.2422
13012TIP3    H160451   0.136   2.731  11.120 -2.1958  1.7435 -1.9019
13012TIP3    H260452   0.186   2.673  10.990 -0.3591 -0.3605 -0.2950
13013TIP3   OH260453   5.272   6.466   5.113  0.2116 -0.1316 -1.1416
13013TIP3    H160454   5.297   6.489   5.203  0.4915 -0.3045 -1.1744
13013TIP3    H260455   5.275   6.549   5.065 -0.2527  0.0155 -0.9197
13014TIP3   OH260456   5.877   3.804   6.533 -0.5322  0.4536 -0.3323
13014TIP3    H160457   5.818   3.740   6.493 -0.9982  1.4988 -1.3502
13014TIP3    H260458   5.964   3.769   6.518 -0.8192 -0.3248 -0.1944
13015TIP3   OH260459   1.936   0.213   2.455  0.1167  0.3002  0.4191
13015TIP3    H160460   1.869   0.144   2.460 -0.9828  1.3906  0.7971
13015TIP3    H260461   1.892   0.292   2.484  1.2797  1.2547 -0.3681
13016TIP3   OH260462   2.120   2.799   6.530 -0.6508 -0.1107  0.1428
13016TIP3    H160463   2.035   2.764   6.556 -0.1666 -1.4085 -0.0070
13016TIP3    H260464   2.173   2.722   6.512  0.0567  0.7143 -1.3941
13017TIP3   OH260465   2.604   1.733  16.690  0.4065  0.5146  0.1665
13017TIP3    H160466   2.655   1.655  16.712  0.3296  0.1778 -0.8283
13017TIP3    H260467   2.663   1.785  16.635  0.3801  1.0651  0.6512
13018TIP3   OH260468   5.577   4.897  12.970 -0.5701 -0.1189  0.8169
13018TIP3    H160469   5.504   4.939  12.925  0.4921 -0.2525 -1.0597
13018TIP3    H260470   5.655   4.926  12.923  0.4150 -1.8957  1.2964
13019TIP3   OH260471   3.311   2.648  12.428  0.4131  0.1211  0.1823
13019TIP3    H160472   3.336   2.560  12.400 -1.7944 -0.4624 -0.0242
13019TIP3    H260473   3.216   2.652  12.415  0.5061  2.6069 -0.0045
13020TIP3   OH260474   0.090   4.711  11.432  0.0753 -0.2724  0.7250
13020TIP3    H160475   0.118   4.783  11.488  1.7199  2.2914 -3.1716
13020TIP3    H260476  -0.006   4.713  11.437  0.1659  0.8344  2.2707
13021TIP3   OH260477   6.239   5.004   0.885 -0.0708  0.2579  0.0743
13021TIP3    H160478   6.146   4.998   0.863  0.0954  0.5778 -0.7139
13021TIP3    H260479   6.261   4.918   0.920 -0.8131  0.3690  0.8425
13022TIP3   OH260480   1.047   1.714   3.842  0.3310 -0.2021 -0.0225
13022TIP3    H160481   0.980   1.727   3.910 -0.0572  1.4519 -0.7015
13022TIP3    H260482   1.102   1.644   3.876 -0.9932 -0.7013  1.1412
13023TIP3   OH260483   3.381   5.620   2.489 -0.0323  0.1709  0.3398
13023TIP3    H160484   3.351   5.665   2.568 -0.1837  0.0980  0.3218
13023TIP3    H260485   3.362   5.528   2.504 -3.0286  0.5009 -1.1328
13024TIP3   OH260486   3.362   4.198   2.737 -0.1568  0.0518  0.8883
13024TIP3    H160487   3.384   4.201   2.644 -0.8102 -1.6452  0.6613
13024TIP3    H260488   3.285   4.140   2.741  0.5786 -0.8208  2.6042
13025TIP3   OH260489   0.978   2.441   6.472  0.5550  0.0547 -0.3433
13025TIP3    H160490   0.888   2.470   6.458  0.8539  0.3501 -1.6498
13025TIP3    H260491   0.976   2.401   6.560 -1.0333 -0.6856 -0.6909
13026TIP3   OH260492   6.752   3.898  11.285  0.1186  0.1187 -0.5528
13026TIP3    H160493   6.845   3.910  11.265  0.1136  0.4195 -0.3961
13026TIP3    H260494   6.719   3.841  11.215  0.6169 -0.7206 -0.1113
13027TIP3   OH260495   6.140   4.855  12.436  0.2024 -0.1787 -0.4776
13027TIP3    H160496   6.069   4.917  12.425  0.3605  0.2971  1.0913
13027TIP3    H260497   6.218   4.910  12.449  0.1130 -0.6731  2.3734
13028TIP3   OH260498   4.504   2.004  16.544  0.3126 -0.1340 -0.5333
13028TIP3    H160499   4.422   1.956  16.536 -0.7066  1.5671 -0.4807
13028TIP3    H260500   4.555   1.953  16.607 -1.0513 -0.7331  0.1185
13029TIP3   OH260501   1.403   5.749  10.980 -0.1852  0.4899 -0.0866
13029TIP3    H160502   1.319   5.756  11.026  0.5080 -1.1077  1.4854
13029TIP3    H260503   1.389   5.684  10.912 -0.3339  0.5001 -0.0651
13030TIP3   OH260504   0.243   1.973   6.263  0.6279  0.2218  0.3822
13030TIP3    H160505   0.327   1.970   6.218  0.7899 -2.3107  0.7828
13030TIP3    H260506   0.263   1.949   6.353 -0.5122 -0.3826  0.4862
13031TIP3   OH260507   6.410   3.388   3.188 -0.1252 -0.0964 -0.2795
13031TIP3    H160508   6.489   3.402   3.239 -0.0285  0.2299 -0.5261
13031TIP3    H260509   6.365   3.316   3.234 -0.7754  1.1761  1.1427
13032TIP3   OH260510   3.987   5.315  11.650 -0.6039 -0.1027  0.3238
13032TIP3    H160511   4.052   5.277  11.592  1.4897  2.3877  0.9381
13032TIP3    H260512   3.998   5.268  11.733  0.3209  0.1843  0.3700
13033TIP3   OH260513   5.662   3.708   5.150  0.0877  0.4609  0.0710
13033TIP3    H160514   5.734   3.769   5.169  1.1395  0.1445 -2.6060
13033TIP3    H260515   5.618   3.747   5.075 -1.8080 -0.0097  0.9218
13034TIP3   OH260516   5.285   2.355  12.612 -0.5192 -0.1517  0.1762
13034TIP3    H160517   5.205   2.327  12.567 -0.8340  1.4686 -0.2867
13034TIP3    H260518   5.299   2.289  12.680 -2.2026 -0.4852  0.2007
13035TIP3   OH260519   6.435   2.654  17.007  0.2816 -0.6353 -0.1452
13035TIP3    H160520   6.370   2.624  16.944 -2.3570  2.0418  1.1686
13035TIP3    H260521   6.519   2.650  16.960 -1.1344 -1.9800 -2.6242
13036TIP3   OH260522   2.479   6.146   2.168  0.4109  0.0160  0.0527
13036TIP3    H160523   2.478   6.068   2.223  1.4523 -0.5050 -0.6486
13036TIP3    H260524   2.401   6.195   2.194 -0.3598 -1.3529  0.3612
13037TIP3   OH260525   6.171   2.235  14.421 -0.4360 -0.5695 -0.6153
13037TIP3    H160526   6.207   2.235  14.332 -0.4891  1.5756 -0.6758
13037TIP3    H260527   6.199   2.319  14.458 -1.7373 -0.7484  0.8430
13038TIP3   OH260528   1.454   2.943  16.903  0.2632 -0.1444  0.5985
13038TIP3    H160529   1.490   2.970  16.988  1.4536 -1.4482  0.5346
13038TIP3    H260530   1.410   2.860  16.920  0.4424 -0.3779 -0.0365
13039TIP3   OH260531   6.489   1.447   1.003 -0.3850  0.3455  0.3210
13039TIP3    H160532   6.558   1.463   0.938 -0.2458  0.5182  0.5113
13039TIP3    H260533   6.519   1.492   1.082  0.4940 -1.6727  1.1750
13040TIP3   OH260534   2.498   6.305   0.110 -0.0621  0.3628  0.2346
13040TIP3    H160535   2.572   6.365   0.103  0.5530 -0.5319 -1.2608
13040TIP3    H260536   2.509   6.262   0.195 -0.2194  1.9717  1.0767
13041TIP3   OH260537   6.710   2.331   3.006  0.3071 -0.1882  0.0085
13041TIP3    H160538   6.751   2.318   3.091  1.6087  1.0207 -0.4108
13041TIP3    H260539   6.719   2.246   2.962  0.3169 -0.5941  0.7893
13042TIP3   OH260540   1.361   2.009   1.145  0.0455  0.0504  0.2882
13042TIP3    H160541   1.305   1.997   1.222 -2.5426 -0.2515 -1.5793
13042TIP3    H260542   1.392   2.100   1.152  0.0805 -0.0660  1.8055
13043TIP3   OH260543   4.575   2.934  10.770 -0.2722  0.7602  0.5273
13043TIP3    H160544   4.523   3.013  10.757 -0.2792  0.6482 -0.1831
13043TIP3    H260545   4.535   2.890  10.845 -3.0959 -0.8311 -1.8213
13044TIP3   OH260546   1.535   2.685  16.707  0.3032 -0.0883 -0.2905
13044TIP3    H160547   1.472   2.619  16.676  0.4182  0.1461 -1.0475
13044TIP3    H260548   1.491   2.728  16.780  0.4263 -1.3336  0.5339
13045TIP3   OH260549   4.656   6.026   2.361 -0.9956  0.0476 -0.2191
13045TIP3    H160550   4.566   6.038   2.393 -0.8195  0.6864  0.0415
13045TIP3    H260551   4.701   5.984   2.434 -0.9587  0.1880 -0.1598
13046TIP3   OH260552   3.850   4.019  14.573 -0.4733 -0.1853  0.0127
13046TIP3    H160553   3.824   3.938  14.531  0.5320 -1.2047  1.2911
13046TIP3    H260554   3.917   3.993  14.637  2.1638  2.0099 -1.6868
13047TIP3   OH260555   5.393   4.394   5.575  0.0636  0.0387 -0.3163
13047TIP3    H160556   5.367   4.393   5.667  2.0520  2.4485  0.3295
13047TIP3    H260557   5.468   4.333   5.570  1.0030  1.1563  0.0145
13048TIP3   OH260558   4.675   3.838   1.625  0.5176 -0.7748 -0.0108
13048TIP3    H160559   4.676   3.824   1.719  0.6218  0.0822  0.1252
13048TIP3    H260560   4.733   3.913   1.611  0.1310 -0.5931 -0.6997
13049TIP3   OH260561   5.530   4.516  14.487  0.0051  0.4184 -0.4125
13049TIP3    H160562   5.441   4.495  14.458  0.2914 -2.4415  0.6088
13049TIP3    H260563   5.518   4.559  14.571 -0.4248  0.6981 -0.6133
13050TIP3   OH260564   4.866   5.587  11.970 -0.4066 -0.1379  0.0970
13050TIP3    H160565   4.855   5.613  11.879 -1.8329  0.7046  0.4972
13050TIP3    H260566   4.832   5.498  11.974 -0.1503 -0.2518 -0.2293
13051TIP3   OH260567   4.659   6.209   1.914 -0.2801 -0.2537 -0.4716
13051TIP3    H160568   4.676   6.122   1.950 -0.6971  0.0034  0.3713
13051TIP3    H260569   4.745   6.239   1.884  0.5194  0.3837  2.2827
13052TIP3   OH260570   6.706   6.770  14.491 -0.3041  0.1729  0.1083
13052TIP3    H160571   6.632   6.780  14.551  0.2809 -0.2309  0.9089
13052TIP3    H260572   6.667   6.770  14.404 -1.3152 -0.7004  0.5498
13053TIP3   OH260573   2.225   5.683   5.796  0.3114  0.1011 -0.2250
13053TIP3    H160574   2.138   5.713   5.822  0.4234  0.9013 -0.7511
13053TIP3    H260575   2.240   5.604   5.848 -0.5458  0.2079  0.1900
13054TIP3   OH260576   4.211   6.633  15.745  0.0843 -0.0017 -0.8216
13054TIP3    H160577   4.125   6.635  15.704 -1.5303 -0.6220  2.3719
13054TIP3    H260578   4.230   6.724  15.768 -0.6731 -0.1155  0.2989
13055TIP3   OH260579   5.991   0.519  13.257 -0.2273  0.9021  0.0518
13055TIP3    H160580   5.937   0.442  13.236  0.8822  0.0440  0.2595
13055TIP3    H260581   5.955   0.589  13.203 -2.0703  0.5641  0.8190
13056TIP3   OH260582   1.265   2.038  16.078 -0.2430  0.3487  0.2665
13056TIP3    H160583   1.322   2.093  16.024 -1.4682  0.1799 -1.2044
13056TIP3    H260584   1.315   1.957  16.090  0.5079  0.8143  0.3632
13057TIP3   OH260585   4.947   4.724   3.428 -0.3436  0.7087 -0.2940
13057TIP3    H160586   4.872   4.776   3.401  0.0740  0.4395 -2.0474
13057TIP3    H260587   5.014   4.789   3.451 -1.3026  0.9507  1.9034
13058TIP3   OH260588   5.164   0.332   1.538 -0.5040  0.2481  0.1749
13058TIP3    H160589   5.147   0.298   1.450 -1.5575  1.5252 -0.1313
13058TIP3    H260590   5.197   0.421   1.523  0.3462  0.0762  1.0295
13059TIP3   OH260591   1.117   4.373  12.133 -0.4978 -0.4679 -0.2094
13059TIP3    H160592   1.186   4.435  12.109 -1.1653 -0.4428 -2.1092
13059TIP3    H260593   1.148   4.333  12.215  1.8533 -0.6089 -1.1370
13060TIP3   OH260594   2.297   1.533  12.332 -0.8200 -0.0387 -0.6597
13060TIP3    H160595   2.223   1.580  12.294 -1.2040  1.3309  1.7208
13060TIP3    H260596   2.257   1.472  12.394 -0.0300 -0.3812 -0.4833
13061TIP3   OH260597   3.631   1.130  13.475  0.3196  0.1245 -0.2290
13061TIP3    H160598   3.673   1.049  13.448 -0.3564  0.1931 -1.5206
13061TIP3    H260599   3.540   1.121  13.444 -0.1142  0.7962  0.8072
13062TIP3   OH260600   3.248   6.124  15.238  0.5648 -0.6764 -0.3416
13062TIP3    H160601   3.294   6.200  15.202  1.3842 -2.0073 -2.2058
13062TIP3    H260602   3.156   6.146  15.228  0.7820  0.4524 -0.0208
13063TIP3   OH260603   3.523   1.271  16.401  0.5964  0.0241  0.7255
13063TIP3    H160604   3.517   1.189  16.449  2.4883 -0.0962  0.7787
13063TIP3    H260605   3.599   1.260  16.344 -1.2861  0.3420 -1.9715
13064TIP3   OH260606   5.614   2.400  11.646  0.0994  0.4151 -0.1388
13064TIP3    H160607   5.680   2.331  11.647 -0.9618 -0.6398 -0.4553
13064TIP3    H260608   5.632   2.450  11.567  0.9004  0.5259  0.1111
13065TIP3   OH260609   4.338   0.494   3.853  0.3062  0.4306  0.2144
13065TIP3    H160610   4.395   0.530   3.785  1.5902  0.1289  1.1043
13065TIP3    H260611   4.386   0.419   3.888 -1.0294 -0.3599  0.3999
13066TIP3   OH260612   3.953   3.940   4.910  0.4713  0.1286  0.3133
13066TIP3    H160613   3.936   4.010   4.973  1.8444  1.2742 -0.5384
13066TIP3    H260614   3.966   3.985   4.827  0.5321 -1.2163 -0.4279
13067TIP3   OH260615   2.952   1.731   2.436 -0.2070 -0.7910 -0.2246
13067TIP3    H160616   2.885   1.775   2.489  0.6374  1.6506 -1.0991
13067TIP3    H260617   3.024   1.715   2.497 -0.5919 -1.1421  0.1431
13068TIP3   OH260618   6.168   1.178  10.261 -0.4427 -0.2173 -1.0771
13068TIP3    H160619   6.222   1.213  10.190  0.7471 -0.4006 -0.2848
13068TIP3    H260620   6.156   1.252  10.321 -0.7727 -0.2676 -1.0812
13069TIP3   OH260621   1.895   6.685  11.284 -0.3646  0.3516  0.7209
13069TIP3    H160622   1.804   6.709  11.302 -0.8491 -1.1316  0.3467
13069TIP3    H260623   1.890   6.625  11.209  1.0884  1.7128 -0.5039
13070TIP3   OH260624   2.558   0.479  14.198  0.6861 -0.0644 -0.2684
13070TIP3    H160625   2.581   0.548  14.136 -1.7091  0.4213 -0.6737
13070TIP3    H260626   2.525   0.408  14.144 -0.6360  0.0420  0.3659
13071TIP3   OH260627   1.630   5.480  14.726 -0.1479 -0.0488 -0.1612
13071TIP3    H160628   1.578   5.399  14.724  0.4747 -0.4540 -0.2384
13071TIP3    H260629   1.713   5.455  14.687  0.5841  0.2535  1.1621
13072TIP3   OH260630   1.908   3.802  15.534  0.0618  0.1743  0.3515
13072TIP3    H160631   1.834   3.855  15.506 -0.2827 -0.3772  0.2332
13072TIP3    H260632   1.948   3.770  15.453  1.0703  1.3375  0.3670
13073TIP3   OH260633   3.712   3.572  11.440  0.1631 -0.0459 -0.2176
13073TIP3    H160634   3.685   3.534  11.524  1.2255 -0.2399  0.0433
13073TIP3    H260635   3.630   3.592  11.395 -0.4209 -1.9286 -0.0277
13074TIP3   OH260636   4.001   2.595   5.102  0.0109 -0.4499  0.1738
13074TIP3    H160637   3.942   2.526   5.132  0.3992 -0.3239  1.2538
13074TIP3    H260638   3.982   2.670   5.160  0.9569 -0.2904  0.2826
13075TIP3   OH260639   6.431   0.249  11.516 -0.1908 -0.2567  0.1327
13075TIP3    H160640   6.480   0.331  11.519  0.2284 -0.5352  0.8793
13075TIP3    H260641   6.342   0.274  11.540 -0.0851 -0.0086  0.2668
13076TIP3   OH260642   2.183   1.558   2.466  0.3614  0.1635 -0.0213
13076TIP3    H160643   2.199   1.539   2.373 -1.0362  0.9152 -0.4334
13076TIP3    H260644   2.228   1.641   2.481 -0.2492  0.5552 -0.3057
13077TIP3   OH260645   2.252   0.126  15.902  0.5236  0.8812  0.3980
13077TIP3    H160646   2.208   0.073  15.836  0.3116 -0.3258  1.4947
13077TIP3    H260647   2.291   0.198  15.852 -0.7100  0.6925 -0.8739
13078TIP3   OH260648   2.952   2.940   3.328  0.0336 -0.4604  0.1721
13078TIP3    H160649   3.038   2.939   3.370  0.0046  1.4784  0.3084
13078TIP3    H260650   2.962   3.000   3.254 -1.7326  1.3222  1.3463
13079TIP3   OH260651   3.488   0.827  13.025 -0.1831  0.3079  0.1828
13079TIP3    H160652   3.556   0.892  13.005  0.2282 -0.2491 -0.2367
13079TIP3    H260653   3.530   0.768  13.088  0.0181 -0.5351 -0.7240
13080TIP3   OH260654   0.375   3.793   2.713 -0.4401  0.5138  0.5546
13080TIP3    H160655   0.403   3.879   2.742  0.8040  0.2013  0.3120
13080TIP3    H260656   0.424   3.732   2.769  0.0441 -0.0522 -0.4689
13081TIP3   OH260657   2.383   0.729   0.977  0.2040 -0.8265  0.0398
13081TIP3    H160658   2.414   0.814   0.947  2.6725 -1.2340  1.2264
13081TIP3    H260659   2.330   0.747   1.055  0.9676 -0.3766  0.4613
13082TIP3   OH260660   4.411   4.915  13.691  0.4681 -0.2406  0.1306
13082TIP3    H160661   4.330   4.905  13.742 -0.8299  2.0329 -1.3744
13082TIP3    H260662   4.399   4.856  13.617  1.1973 -1.5813  1.0663
13083TIP3   OH260663   4.857   0.679   4.368  0.4869 -0.0432  0.3563
13083TIP3    H160664   4.836   0.702   4.458 -0.5411  0.2365  0.0492
13083TIP3    H260665   4.783   0.627   4.338  0.0250  1.2564 -0.8391
13084TIP3   OH260666   4.206   3.625  17.106 -0.1591  0.0431  0.1720
13084TIP3    H160667   4.273   3.685  17.073  0.3842  0.0283  1.2372
13084TIP3    H260668   4.252   3.571  17.170 -1.0228 -0.4507  0.3749
13085TIP3   OH260669   0.820   2.381  11.693 -0.2053 -0.2135 -0.4872
13085TIP3    H160670   0.858   2.417  11.614 -0.5885  1.4736  0.0902
13085TIP3    H260671   0.855   2.435  11.764 -2.0474  0.0744  0.2423
13086TIP3   OH260672   4.613   4.902   0.935  0.3370  0.7486 -0.1688
13086TIP3    H160673   4.606   4.859   0.850  1.6773  0.8625 -0.3535
13086TIP3    H260674   4.528   4.943   0.949 -0.8695 -1.6999 -0.1233
13087TIP3   OH260675   0.668   6.508   0.210 -0.1220  0.2874  0.0645
13087TIP3    H160676   0.590   6.474   0.255  0.9568 -1.4008  0.7362
13087TIP3    H260677   0.667   6.602   0.228 -2.4991  0.4591 -0.7235
13088TIP3   OH260678   3.960   6.061   0.543  0.0550 -0.3990  0.1930
13088TIP3    H160679   4.046   6.025   0.564  0.0341 -0.8058 -0.4198
13088TIP3    H260680   3.977   6.123   0.472  0.1261  0.9840  1.3910
13089TIP3   OH260681   0.059   4.149  10.904 -0.3323  0.0395  0.4217
13089TIP3    H160682   0.110   4.174  10.981 -1.2681  0.3417  0.9353
13089TIP3    H260683   0.125   4.113  10.844  0.3898 -0.2932  1.3881
13090TIP3   OH260684   3.493   1.896  13.211 -0.0866 -0.0219 -0.1957
13090TIP3    H160685   3.500   1.869  13.302 -1.5622 -1.3039 -0.4348
13090TIP3    H260686   3.532   1.824  13.161 -0.5408  0.0403 -0.6429
13091TIP3   OH260687   2.236   0.715   5.611 -0.0998  0.5975 -0.4247
13091TIP3    H160688   2.170   0.755   5.668 -1.8110 -0.5969 -1.5214
13091TIP3    H260689   2.189   0.647   5.563  2.0047 -0.4669 -1.0498
13092TIP3   OH260690   5.185   1.506   2.575  0.0351 -0.0992  0.7511
13092TIP3    H160691   5.127   1.570   2.617 -1.0828  1.6095 -3.1618
13092TIP3    H260692   5.270   1.549   2.571 -0.1541  0.2197  0.1716
13093TIP3   OH260693   6.100   6.626  15.855  0.0709  0.4223 -0.0370
13093TIP3    H160694   6.174   6.681  15.830  0.1144  0.1151 -0.5942
13093TIP3    H260695   6.129   6.580  15.934  1.0890 -0.9410 -1.1870
13094TIP3   OH260696   2.779   4.909  14.833  1.0418 -0.3232  0.0947
13094TIP3    H160697   2.782   4.845  14.762  0.4983 -0.0371 -0.1934
13094TIP3    H260698   2.803   4.992  14.792  2.4597 -0.4753  0.6219
13095TIP3   OH260699   1.211   0.356  12.168  0.0458 -0.4454 -0.6447
13095TIP3    H160700   1.212   0.451  12.177  2.4002 -0.1999 -2.8756
13095TIP3    H260701   1.213   0.323  12.258  0.9272  1.6390  0.1240
13096TIP3   OH260702   5.516   0.776  15.048 -1.0533 -0.0112  0.5827
13096TIP3    H160703   5.577   0.845  15.071  1.6197 -1.8202 -0.8067
13096TIP3    H260704   5.442   0.822  15.008 -1.2464  2.3204  3.4922
13097TIP3   OH260705   0.788   0.467  14.284  0.2931 -0.7783 -0.3796
13097TIP3    H160706   0.773   0.420  14.202  3.8593 -1.4168 -0.7611
13097TIP3    H260707   0.784   0.400  14.352  0.9603 -0.9008 -0.4532
13098TIP3   OH260708   6.291   5.213   0.418  0.0181  0.6973 -0.0720
13098TIP3    H160709   6.252   5.183   0.336  0.0173  0.4124  0.0329
13098TIP3    H260710   6.248   5.297   0.436 -0.8679  0.1821  0.2678
13099TIP3   OH260711   2.545   5.144   2.309  0.4126 -0.1027  0.4892
13099TIP3    H160712   2.550   5.238   2.323  1.0422 -0.0921  0.1954
13099TIP3    H260713   2.543   5.106   2.397 -1.6971  0.2756  0.6173
13100TIP3   OH260714   5.382   6.129  15.971 -0.1390 -0.6533 -0.1012
13100TIP3    H160715   5.430   6.077  15.906 -0.5197 -3.3866  1.7024
13100TIP3    H260716   5.450   6.180  16.015  0.3766 -0.2979 -1.2881
13101TIP3   OH260717   6.423   6.728   0.537 -0.7028 -0.0298  0.4462
13101TIP3    H160718   6.454   6.784   0.465 -1.6475  1.0953  0.9065
13101TIP3    H260719   6.332   6.754   0.550 -1.0773 -1.4863  0.8706
13102TIP3   OH260720   3.513   0.527   4.248  0.0980 -0.5310  0.1066
13102TIP3    H160721   3.564   0.532   4.329  1.6887 -1.3534 -0.8323
13102TIP3    H260722   3.432   0.575   4.268  1.0145  0.3621  1.7628
13103TIP3   OH260723   4.049   4.365  16.705  0.0389 -0.1178  0.5881
13103TIP3    H160724   4.095   4.316  16.773  0.8735  0.7586  0.6705
13103TIP3    H260725   4.091   4.339  16.623  1.1918  1.2187  0.7324
13104TIP3   OH260726   2.344   1.242  15.056 -0.2229  0.0978 -0.0556
13104TIP3    H160727   2.265   1.190  15.037 -0.1969 -0.6090  1.6475
13104TIP3    H260728   2.402   1.226  14.982 -1.7220  0.7326 -1.4065
13105TIP3   OH260729   3.800   0.251   4.567 -0.3929  0.4316  0.0476
13105TIP3    H160730   3.884   0.261   4.612 -0.6201 -1.8463  1.0403
13105TIP3    H260731   3.823   0.230   4.477  0.1358 -1.1114  0.5271
13106TIP3   OH260732   3.584   2.982   4.314  0.1787 -0.0373 -0.3823
13106TIP3    H160733   3.515   2.916   4.326 -0.5079  1.0383  1.8811
13106TIP3    H260734   3.636   2.949   4.241 -2.9131 -0.7405 -2.3799
13107TIP3   OH260735   1.092   0.231   4.664 -0.4348 -0.1593 -0.2305
13107TIP3    H160736   1.060   0.293   4.730 -0.2529 -0.8032  0.4645
13107TIP3    H260737   1.175   0.199   4.700  0.2969  0.4215 -1.3528
13108TIP3   OH260738   2.879   3.892  15.632  0.5221  0.2414 -0.2964
13108TIP3    H160739   2.826   3.970  15.648  0.0121 -0.3557  1.0249
13108TIP3    H260740   2.952   3.900  15.693 -0.3901 -1.1036  0.9947
13109TIP3   OH260741   3.274   5.545  10.483 -0.0826 -0.2739 -0.4360
13109TIP3    H160742   3.200   5.487  10.464 -1.1374  1.1007 -0.5603
13109TIP3    H260743   3.259   5.622  10.428  2.5201 -0.8308 -2.0364
13110TIP3   OH260744   0.142   4.096  13.636 -0.0726 -0.3652 -0.0366
13110TIP3    H160745   0.057   4.054  13.646  0.2935 -0.7966  1.3751
13110TIP3    H260746   0.147   4.120  13.543 -1.2498 -1.3510 -0.3573
13111TIP3   OH260747   4.274   4.212   3.361 -0.0929  0.3564  0.4408
13111TIP3    H160748   4.322   4.294   3.378  0.7491 -0.1332  0.4263
13111TIP3    H260749   4.315   4.175   3.283  0.1001 -0.5159  0.9518
13112TIP3   OH260750   1.269   1.216   1.482  0.3112 -0.1742 -0.1898
13112TIP3    H160751   1.326   1.226   1.558 -0.9484 -0.3675  0.7897
13112TIP3    H260752   1.290   1.291   1.426  2.2927 -0.8149 -0.3659
13113TIP3   OH260753   0.946   1.191  13.821  0.0447  0.1280 -0.8931
13113TIP3    H160754   0.965   1.179  13.728  0.5612 -1.7553 -0.5612
13113TIP3    H260755   0.979   1.279  13.841  1.7908 -0.2542 -2.0173
13114TIP3   OH260756   2.337   0.976   6.338 -0.2220 -0.3068  0.3145
13114TIP3    H160757   2.391   1.037   6.288 -0.6369 -1.4857 -1.6145
13114TIP3    H260758   2.274   1.032   6.383  0.2665  0.7865 -0.3370
13115TIP3   OH260759   0.481   4.573   3.760  0.2757  0.2674  0.0323
13115TIP3    H160760   0.524   4.657   3.744 -0.4213  0.4897 -0.7110
13115TIP3    H260761   0.490   4.525   3.678 -0.0505 -0.0603  0.1860
13116TIP3   OH260762   1.338   0.569  17.190  0.3249 -0.3655  0.1938
13116TIP3    H160763   1.244   0.561  17.175  0.3765 -0.1756 -0.2330
13116TIP3    H260764   1.353   0.522  17.272 -0.0270 -1.0209 -0.1108
13117TIP3   OH260765   2.667   4.644  13.979 -0.4272  0.5760  0.0423
13117TIP3    H160766   2.670   4.596  14.062 -0.3856  0.1360 -0.2109
13117TIP3    H260767   2.757   4.674  13.966  0.0399 -1.1531 -0.8828
13118TIP3   OH260768   1.774   2.723   3.039 -0.2564 -0.2485 -0.1308
13118TIP3    H160769   1.867   2.705   3.053 -0.1217 -0.9290 -1.8441
13118TIP3    H260770   1.760   2.808   3.080  1.1392 -0.0983  0.0566
13119TIP3   OH260771   3.021   1.496   2.742 -0.3077  0.6456 -0.7830
13119TIP3    H160772   2.982   1.483   2.829 -1.1709  0.7503 -1.1470
13119TIP3    H260773   3.036   1.407   2.709  0.5688  0.6043 -0.2921
13120TIP3   OH260774   2.135   5.751   0.414  0.1064  0.0791  0.5283
13120TIP3    H160775   2.048   5.732   0.378  0.1772  0.4685  0.1572
13120TIP3    H260776   2.135   5.706   0.499 -0.4888  0.1477  0.5707
13121TIP3   OH260777   6.591   3.803  13.230  0.0176 -0.0402 -0.4858
13121TIP3    H160778   6.563   3.764  13.313  0.6906  1.4104  0.4440
13121TIP3    H260779   6.612   3.728  13.175  0.3834 -1.0165  0.9368
13122TIP3   OH260780   3.031   0.514  13.724 -0.7912 -0.1976  0.4938
13122TIP3    H160781   3.044   0.536  13.816 -0.4182  0.9308  0.1739
13122TIP3    H260782   3.080   0.580  13.676 -0.7479 -0.9501 -0.5135
13123TIP3   OH260783   1.919   1.882   2.337 -0.4830  0.4811  1.0134
13123TIP3    H160784   1.823   1.878   2.339 -0.4669  0.5196  2.3856
13123TIP3    H260785   1.946   1.791   2.323 -0.7148  0.4699  0.6202
13124TIP3   OH260786   6.594   5.016  15.382  0.4142 -0.3368  0.4593
13124TIP3    H160787   6.667   5.039  15.324  0.4745 -0.0731  0.6416
13124TIP3    H260788   6.559   5.100  15.410 -0.5995 -0.4517 -0.4334
13125TIP3   OH260789   3.859   2.419  13.430 -0.3603  0.1662 -0.2782
13125TIP3    H160790   3.897   2.456  13.510 -0.0616 -0.5426 -0.0827
13125TIP3    H260791   3.912   2.456  13.359 -0.7784  0.9854 -0.1682
13126TIP3   OH260792   6.693   5.434   1.659 -0.1977 -0.4447 -0.1579
13126TIP3    H160793   6.611   5.397   1.627  0.4459 -0.5274 -1.7697
13126TIP3    H260794   6.746   5.359   1.685 -0.5619 -0.4022  0.7007
13127TIP3   OH260795   3.296   2.161  11.373  0.6965  0.6082 -0.1465
13127TIP3    H160796   3.240   2.107  11.430  0.1665 -0.4646 -1.6621
13127TIP3    H260797   3.291   2.119  11.287  1.5735  2.1562 -0.9772
13128TIP3   OH260798   3.778   6.064  12.865 -0.3093  0.6437  0.3522
13128TIP3    H160799   3.771   6.159  12.858  1.3568  0.8178  0.8421
13128TIP3    H260800   3.688   6.033  12.859 -0.8565  2.2352  0.0164
13129TIP3   OH260801   1.307   5.676  13.105  0.0268  0.1926  0.4064
13129TIP3    H160802   1.223   5.639  13.078  0.1049  0.2102  0.1344
13129TIP3    H260803   1.366   5.601  13.113  0.0363  0.2006  0.4097
13130TIP3   OH260804   2.568   5.443  13.666 -0.1893  0.1760  0.3934
13130TIP3    H160805   2.589   5.380  13.597  1.2131  0.7684  0.2703
13130TIP3    H260806   2.546   5.390  13.742  0.8099 -0.4608  0.2343
13131TIP3   OH260807   0.922   6.045   2.780 -0.1019 -0.1554  0.4858
13131TIP3    H160808   0.994   6.107   2.770 -2.9349  3.4273  1.4234
13131TIP3    H260809   0.914   6.003   2.694  2.1628  0.4365 -0.0317
13132TIP3   OH260810   0.499   0.365  15.284 -0.3868  0.6853 -0.0243
13132TIP3    H160811   0.589   0.347  15.310 -1.4320 -0.5758  2.9098
13132TIP3    H260812   0.486   0.313  15.204  0.6263 -1.4036  1.1316
13133TIP3   OH260813   4.557   3.063   4.206  0.3698  0.0180  0.4501
13133TIP3    H160814   4.630   3.108   4.164 -1.0267  0.7461 -1.2544
13133TIP3    H260815   4.568   2.971   4.181  0.2960  0.2450 -0.4519
13134TIP3   OH260816   4.009   0.378   3.627  0.1738  0.1342 -0.1247
13134TIP3    H160817   4.020   0.388   3.532 -1.1537  1.7043 -0.1124
13134TIP3    H260818   4.032   0.463   3.663  0.0674 -0.2759  0.9231
13135TIP3   OH260819   3.553   4.003  12.302 -0.4766 -0.5528  0.1333
13135TIP3    H160820   3.504   4.085  12.296 -0.7347 -0.7792 -0.9768
13135TIP3    H260821   3.544   3.976  12.394  0.8388  1.4103  0.8648
13136TIP3   OH260822   5.285   4.030  15.798 -0.4148 -0.7320 -0.8762
13136TIP3    H160823   5.222   4.102  15.802 -1.5323 -1.6738 -1.5776
13136TIP3    H260824   5.287   4.004  15.706  0.4134 -1.2323 -0.7222
13137TIP3   OH260825   3.276   6.083  13.367  0.0250 -0.2941 -0.1226
13137TIP3    H160826   3.274   6.075  13.272 -0.2317  1.2990 -0.2638
13137TIP3    H260827   3.368   6.100  13.388  0.0137 -0.2288 -0.1264
13138TIP3   OH260828   5.428   2.317   1.860 -0.6317  0.2607  0.0844
13138TIP3    H160829   5.511   2.348   1.898 -1.1546 -0.1247  1.5840
13138TIP3    H260830   5.416   2.371   1.782  1.9910 -0.9717 -1.2199
13139TIP3   OH260831   5.720   4.753  14.270 -0.3039  0.3752 -0.2485
13139TIP3    H160832   5.677   4.774  14.353 -0.6298  0.7627 -0.5194
13139TIP3    H260833   5.657   4.777  14.203  0.2532  0.7764 -0.6365
13140TIP3   OH260834   4.680   4.636  14.216  1.1035  0.4369  0.1913
13140TIP3    H160835   4.680   4.653  14.310  1.6257 -2.7750  0.8190
13140TIP3    H260836   4.761   4.676  14.184  0.8305  1.7094  1.0545
13141TIP3   OH260837   1.678   1.544  13.075 -0.3136  0.1925  0.5835
13141TIP3    H160838   1.590   1.582  13.075 -0.1521  0.5997 -0.6676
13141TIP3    H260839   1.672   1.470  13.015 -0.0173 -0.3021  1.1598
13142TIP3   OH260840   0.305   3.521   0.568 -0.0397 -0.4541 -0.4976
13142TIP3    H160841   0.242   3.540   0.637 -1.2331  0.0912 -1.7276
13142TIP3    H260842   0.388   3.510   0.615 -0.6314  0.9190  0.9266
13143TIP3   OH260843   3.808   0.133  11.801  0.0759  0.1141 -0.5406
13143TIP3    H160844   3.885   0.143  11.744 -0.1056  1.1145 -0.6101
13143TIP3    H260845   3.735   0.167  11.750 -0.5275 -1.4230 -0.7124
13144TIP3   OH260846   6.766   1.231  13.135 -0.1197 -0.1636  0.0849
13144TIP3    H160847   6.770   1.314  13.088  0.0474 -0.3967 -0.3194
13144TIP3    H260848   6.700   1.244  13.203  0.3980  0.5171  0.4536
13145TIP3   OH260849   0.340   1.972  12.783  0.7041 -0.4766 -0.6159
13145TIP3    H160850   0.367   1.885  12.811 -0.5092 -0.8418 -0.5584
13145TIP3    H260851   0.422   2.017  12.762  1.3943 -1.3268  0.2213
13146TIP3   OH260852   5.861   5.967  11.960  0.1863 -0.1564  0.0293
13146TIP3    H160853   5.944   5.919  11.967  0.6859  0.3526 -2.1292
13146TIP3    H260854   5.879   6.036  11.897 -1.8081  0.1507 -0.2186
13147TIP3   OH260855   2.167   3.590  15.910  0.1831 -0.3572  0.6548
13147TIP3    H160856   2.216   3.508  15.904 -3.4806 -2.5238 -1.7452
13147TIP3    H260857   2.127   3.588  15.997  1.3459 -0.3655  1.1939
13148TIP3   OH260858   2.359   3.331   2.419  0.2035  0.3962 -0.0802
13148TIP3    H160859   2.361   3.423   2.447 -0.8500  0.3399  0.2055
13148TIP3    H260860   2.277   3.297   2.455  0.2788 -0.4862 -0.7304
13149TIP3   OH260861   3.241   1.267  15.411 -0.6768 -0.6690 -0.1968
13149TIP3    H160862   3.227   1.343  15.468  0.7002  1.8408 -3.0776
13149TIP3    H260863   3.328   1.236  15.435 -0.5458 -0.2921 -0.1716
13150TIP3   OH260864   0.476   0.732  13.343  0.2057 -0.5708 -0.3262
13150TIP3    H160865   0.484   0.727  13.247  4.3825  2.9639 -0.3035
13150TIP3    H260866   0.563   0.708  13.375 -1.3153 -2.2933  2.6739
13151TIP3   OH260867   6.231   2.881   0.269  0.1864  0.4079  0.0194
13151TIP3    H160868   6.235   2.884   0.364  0.7840 -0.3486  0.0176
13151TIP3    H260869   6.137   2.884   0.249 -0.0773 -2.0450  0.7280
13152TIP3   OH260870   3.676   5.194  16.299  0.0564  0.1791 -0.0765
13152TIP3    H160871   3.639   5.266  16.349  0.1955  1.0614 -1.2231
13152TIP3    H260872   3.611   5.174  16.232  1.3142  1.2792 -1.6655
13153TIP3   OH260873   3.346   6.262  17.160  0.2499 -0.1346 -0.1308
13153TIP3    H160874   3.255   6.262  17.189 -0.3446 -0.5785 -1.9439
13153TIP3    H260875   3.344   6.305  17.074  1.7306 -0.2948 -0.2568
13154TIP3   OH260876   3.369   0.250  11.815 -0.1891 -0.5083  0.1524
13154TIP3    H160877   3.313   0.284  11.745 -1.5919 -1.2140  0.9078
13154TIP3    H260878   3.386   0.326  11.871  2.7460  0.5737 -2.0720
13155TIP3   OH260879   3.538   6.329  14.643 -0.3929  0.2624  0.4708
13155TIP3    H160880   3.485   6.355  14.568 -2.6469 -1.8899  1.2403
13155TIP3    H260881   3.506   6.384  14.715 -1.5834 -0.9712  0.9134
13156TIP3   OH260882   5.609   3.413   4.121 -0.1955  0.1176  0.2306
13156TIP3    H160883   5.635   3.416   4.213  0.8303 -1.7939  0.0409
13156TIP3    H260884   5.654   3.487   4.081  2.1751 -1.0711  0.6135
13157TIP3   OH260885   0.841   4.972  11.326  0.5784  0.0412 -0.0801
13157TIP3    H160886   0.877   4.883  11.322  1.3679  0.4237 -1.7915
13157TIP3    H260887   0.767   4.971  11.266  0.0819  0.3244  0.5225
13158TIP3   OH260888   1.973   2.236  13.240  0.2785  0.3156  0.2938
13158TIP3    H160889   1.971   2.265  13.148  2.6988  0.5917  0.2900
13158TIP3    H260890   1.979   2.317  13.290 -0.7530  0.1493  0.6960
13159TIP3   OH260891   2.675   5.230   3.567 -0.5643 -0.4210  0.4859
13159TIP3    H160892   2.694   5.283   3.490  1.1798 -0.9485  0.5349
13159TIP3    H260893   2.665   5.141   3.533  0.1836 -0.6511  0.8636
13160TIP3   OH260894   5.689   1.476  14.540  0.2218 -0.3408 -0.5327
13160TIP3    H160895   5.751   1.469  14.612 -0.3889  0.3326  0.0626
13160TIP3    H260896   5.713   1.405  14.481  2.3586  0.6450 -0.9217
13161TIP3   OH260897   0.868   1.267   1.540 -0.3929  0.2408 -0.0263
13161TIP3    H160898   0.881   1.317   1.620  1.4828  0.0320 -0.1782
13161TIP3    H260899   0.906   1.322   1.471 -1.1136 -0.0228 -0.6476
13162TIP3   OH260900   3.524   5.384   4.828 -0.3202 -0.3093  0.1190
13162TIP3    H160901   3.581   5.442   4.779 -1.2635  0.5956  0.0757
13162TIP3    H260902   3.456   5.359   4.766 -0.5042 -0.6226  0.4433
13163TIP3   OH260903   1.340   5.733  16.915  0.6102 -0.2516 -0.3453
13163TIP3    H160904   1.394   5.811  16.923 -0.4869  0.5211 -0.4096
13163TIP3    H260905   1.321   5.725  16.822  0.2158 -0.2545 -0.2660
13164TIP3   OH260906   0.987   2.389   4.959 -0.2375  0.4344  0.4149
13164TIP3    H160907   1.044   2.424   4.891 -1.9241 -1.0820 -1.8549
13164TIP3    H260908   0.907   2.441   4.953 -0.6874 -0.2098  0.6981
13165TIP3   OH260909   0.835   6.127   0.170 -0.7616  0.2532 -0.2703
13165TIP3    H160910   0.906   6.181   0.135  1.5239 -2.7140 -0.4880
13165TIP3    H260911   0.852   6.123   0.264 -0.4523 -0.7172 -0.3655
13166TIP3   OH260912   2.775   3.072   6.546  0.4636 -0.0246 -0.4433
13166TIP3    H160913   2.778   2.982   6.578 -1.1655 -0.1032 -0.4718
13166TIP3    H260914   2.839   3.119   6.600  0.8382 -1.0646  0.0222
13167TIP3   OH260915   1.321   2.565   5.808 -0.5436 -0.0715 -0.4156
13167TIP3    H160916   1.247   2.527   5.856  0.3339 -1.9903 -0.5260
13167TIP3    H260917   1.334   2.506   5.733 -0.8899  2.0097 -2.1412
13168TIP3   OH260918   4.151   4.590   3.697  0.5784 -0.1395  0.0566
13168TIP3    H160919   4.151   4.500   3.663  1.6020 -0.4999  0.9981
13168TIP3    H260920   4.119   4.582   3.786 -1.7307  0.7630 -0.6643
13169TIP3   OH260921   4.831   1.471   2.153 -0.7005 -0.0121  0.6519
13169TIP3    H160922   4.808   1.380   2.173 -0.6750  0.0595  1.0147
13169TIP3    H260923   4.916   1.485   2.194 -0.3956 -0.0209  0.0275
13170TIP3   OH260924   4.908   1.897   5.545  0.1474 -0.3676  0.1083
13170TIP3    H160925   4.880   1.901   5.636 -0.0864 -0.7827  0.0546
13170TIP3    H260926   5.003   1.889   5.550  0.2488  0.8455  0.2904
13171TIP3   OH260927   3.045   2.892  11.216  0.2588  0.6238 -0.3295
13171TIP3    H160928   3.070   2.820  11.159  0.2389 -1.1934  1.8932
13171TIP3    H260929   2.953   2.908  11.196  0.3793  0.3311 -1.1218
13172TIP3   OH260930   4.784   1.183   2.924  0.3663  0.0733 -0.3017
13172TIP3    H160931   4.869   1.179   2.967  0.9545  0.4715 -1.4221
13172TIP3    H260932   4.803   1.172   2.831 -0.8802 -0.5916 -0.4882
13173TIP3   OH260933   0.233   1.577   2.142 -0.1735  0.3814  0.5128
13173TIP3    H160934   0.223   1.612   2.231  0.9448  0.2661  0.6883
13173TIP3    H260935   0.198   1.646   2.085 -1.8862  0.0168  1.0913
13174TIP3   OH260936   2.076   0.069   1.679  0.1093  0.3930  0.1093
13174TIP3    H160937   2.048   0.062   1.770 -0.9459  0.2722 -0.2191
13174TIP3    H260938   2.038   0.151   1.648  0.4297  0.4144 -0.2374
13175TIP3   OH260939   1.666   3.022  13.261  0.0078  0.1986  0.6931
13175TIP3    H160940   1.598   3.050  13.199  0.3826  0.7752  0.5329
13175TIP3    H260941   1.705   3.104  13.291 -1.5952  0.0498  3.3171
13176TIP3   OH260942   4.498   6.306  14.648  0.2561  0.4053 -0.3981
13176TIP3    H160943   4.573   6.264  14.692  0.3626  1.0880  0.0864
13176TIP3    H260944   4.422   6.277  14.698  0.3880  1.2753  0.3290
13177TIP3   OH260945   2.508   4.379  11.581 -0.5397 -0.6600 -0.7014
13177TIP3    H160946   2.467   4.360  11.497  0.7190  0.3010 -1.5317
13177TIP3    H260947   2.544   4.467  11.572  0.2204 -0.8222  0.6103
13178TIP3   OH260948   0.319   5.220   5.561 -0.0767  0.1857 -0.0323
13178TIP3    H160949   0.236   5.173   5.550 -0.3393  0.4354  0.8472
13178TIP3    H260950   0.337   5.258   5.475 -0.7433 -0.0822 -0.2930
13179TIP3   OH260951   3.500   5.385   3.850 -0.2450 -0.0662  0.3955
13179TIP3    H160952   3.580   5.335   3.831 -0.2106 -0.0663  0.5360
13179TIP3    H260953   3.468   5.346   3.932 -0.5093 -0.2134  0.2202
13180TIP3   OH260954   4.589   4.253  13.396  0.4766  0.1824 -0.2580
13180TIP3    H160955   4.583   4.340  13.437 -0.8920 -0.8022  1.6909
13180TIP3    H260956   4.631   4.199  13.462  2.0999 -0.4654 -1.8023
13181TIP3   OH260957   4.493   6.072   1.169  0.0111  0.1033  0.0006
13181TIP3    H160958   4.482   6.000   1.107  0.4134 -1.3434  1.5636
13181TIP3    H260959   4.428   6.055   1.237  0.8355  0.6113  0.9281
13182TIP3   OH260960   5.053   6.130   0.113  0.2704 -0.4300  0.0014
13182TIP3    H160961   5.127   6.089   0.158  1.5942  1.5017 -0.3254
13182TIP3    H260962   5.006   6.057   0.073  0.8785 -1.8768  1.8475
13183TIP3   OH260963   5.037   2.917  17.132 -0.4889  0.3796  0.2996
13183TIP3    H160964   5.042   3.004  17.172  1.5827 -0.3971  1.8259
13183TIP3    H260965   4.983   2.865  17.192 -0.8732  0.3294 -0.0881
13184TIP3   OH260966   2.939   1.458  16.335  0.6127  0.4550 -0.5991
13184TIP3    H160967   2.947   1.517  16.409 -3.6586  3.4709 -2.3397
13184TIP3    H260968   2.952   1.513  16.258 -0.9434 -1.3377 -2.2093
13185TIP3   OH260969   0.122   2.914   0.654 -0.0056 -0.1260 -0.1010
13185TIP3    H160970   0.186   2.959   0.709 -0.2839  0.8658 -0.5803
13185TIP3    H260971   0.038   2.931   0.696  0.0583 -1.6590  0.6840
13186TIP3   OH260972   2.996   0.769  15.226 -0.2723 -0.3182  0.4440
13186TIP3    H160973   3.010   0.701  15.160  0.0156  0.4320 -0.2921
13186TIP3    H260974   3.078   0.772  15.275 -0.2439 -0.4251  0.4040
13187TIP3   OH260975   0.310   1.199  13.009 -0.3662 -0.3269 -0.1525
13187TIP3    H160976   0.248   1.159  12.947  1.0161 -0.6684 -1.3409
13187TIP3    H260977   0.377   1.133  13.022  0.4319  0.5301  0.1277
13188TIP3   OH260978   6.544   2.002  15.967  0.3758 -0.4986 -0.1546
13188TIP3    H160979   6.572   1.991  15.877  2.1320 -0.2983  0.3587
13188TIP3    H260980   6.553   2.096  15.985  0.3462 -0.5829  0.3289
13189TIP3   OH260981   3.744   0.415   0.388 -0.5160  0.8342 -0.0739
13189TIP3    H160982   3.829   0.390   0.422 -1.4495 -0.7644  1.1652
13189TIP3    H260983   3.696   0.447   0.464 -1.4895  0.3835 -0.4852
13190TIP3   OH260984   2.587   2.897   4.984  0.0889 -0.3737 -0.9067
13190TIP3    H160985   2.646   2.966   5.015 -1.5022  0.0405  1.2884
13190TIP3    H260986   2.577   2.838   5.059 -0.4381 -1.7174 -2.0078
13191TIP3   OH260987   4.800   0.210  12.021 -0.3791 -0.2529  0.4361
13191TIP3    H160988   4.848   0.165  11.952 -1.7320 -1.4180  0.2090
13191TIP3    H260989   4.724   0.248  11.976  0.3193  1.5928  0.7726
13192TIP3   OH260990   0.467   6.552  15.666  0.7046 -0.7352  0.5105
13192TIP3    H160991   0.433   6.520  15.582  0.0352  0.6392  0.2371
13192TIP3    H260992   0.411   6.509  15.732  1.3594 -1.9687  0.2765
13193TIP3   OH260993   2.785   3.236   3.264  0.2857 -0.2086 -0.3185
13193TIP3    H160994   2.774   3.186   3.345 -0.9613  1.4311  0.5485
13193TIP3    H260995   2.714   3.207   3.207 -0.0094  0.0659 -0.0879
13194TIP3   OH260996   5.792   0.215   2.412  0.0928 -0.2588 -0.3666
13194TIP3    H160997   5.723   0.152   2.430 -0.4272 -0.1698 -1.9790
13194TIP3    H260998   5.872   0.174   2.446 -0.4072 -1.2890 -0.4150
13195TIP3   OH260999   5.338   5.447  15.546  0.2454 -0.1163 -0.2367
13195TIP3    H161000   5.411   5.498  15.512  0.5047 -1.0004 -1.0270
13195TIP3    H261001   5.378   5.378  15.599  0.0144 -0.8654 -1.0260
13196TIP3   OH261002   6.770   0.011  15.171  0.2010 -0.5334 -0.6352
13196TIP3    H161003   6.677   0.006  15.151 -0.3428  4.5876 -0.2031
13196TIP3    H261004   6.777  -0.019  15.262 -1.7659  2.6784  0.6731
13197TIP3   OH261005   0.052   4.628  13.860  0.3959  0.6204 -0.6438
13197TIP3    H161006  -0.019   4.659  13.917 -0.3664  0.8269 -1.6951
13197TIP3    H261007   0.036   4.671  13.776  1.2129 -0.0824 -1.1681
13198TIP3   OH261008   5.810   0.459  15.309  0.3722  0.1753  0.2428
13198TIP3    H161009   5.800   0.553  15.325  1.0268  0.2704  0.1169
13198TIP3    H261010   5.856   0.453  15.226  1.2142 -0.2340  0.7327
13199TIP3   OH261011   5.507   2.217   4.219 -0.4428 -0.1925  0.3209
13199TIP3    H161012   5.559   2.198   4.141 -0.1167  5.0741 -0.9445
13199TIP3    H261013   5.417   2.196   4.194 -0.0061 -1.1534 -0.4814
13200TIP3   OH261014   6.464   2.403   0.677  0.5709  0.5015  0.3164
13200TIP3    H161015   6.505   2.334   0.626 -2.2179  0.5442 -2.0996
13200TIP3    H261016   6.399   2.359   0.730 -0.8254  1.1802 -0.8096
13201TIP3   OH261017   5.391   3.615  16.815  0.2594 -0.2798 -0.3023
13201TIP3    H161018   5.402   3.522  16.792 -0.1697 -0.3651 -0.1588
13201TIP3    H261019   5.407   3.662  16.733  0.3942 -0.4829 -0.3933
13202TIP3   OH261020   4.720   5.948  10.875 -0.0953  0.3929 -0.1064
13202TIP3    H161021   4.775   5.883  10.830 -1.3871 -1.4227  0.8824
13202TIP3    H261022   4.765   5.965  10.957 -1.9195 -2.6749  1.6719
13203TIP3   OH261023   0.049   3.583   2.465 -0.7065 -0.2573 -0.2262
13203TIP3    H161024   0.119   3.518   2.458 -0.1929  0.4099 -1.6085
13203TIP3    H261025  -0.010   3.548   2.531  0.0155 -1.6958 -0.3203
13204TIP3   OH261026   1.751   6.181  12.618 -0.3465  0.3153  0.2292
13204TIP3    H161027   1.817   6.174  12.686 -0.8523 -0.8207  0.6130
13204TIP3    H261028   1.768   6.107  12.560  0.4388  1.6035 -1.2082
13205TIP3   OH261029   4.281   3.777  10.263  0.1994  0.4681  0.3190
13205TIP3    H161030   4.231   3.704  10.298 -0.3447  0.6178 -0.1496
13205TIP3    H261031   4.353   3.789  10.326 -0.2781  0.1795  0.9183
13206TIP3   OH261032   2.626   3.444  12.711 -0.2254 -0.3204  0.3058
13206TIP3    H161033   2.606   3.528  12.752 -0.5302  0.2124 -0.9258
13206TIP3    H261034   2.554   3.428  12.651  1.1253 -0.2005 -1.3801
13207TIP3   OH261035   3.675   0.459   0.656  0.1979 -0.5006  0.0821
13207TIP3    H161036   3.583   0.438   0.641  0.7556 -2.1634 -1.1806
13207TIP3    H261037   3.695   0.420   0.741 -0.3370  0.1440  0.5097
13208TIP3   OH261038   3.093   5.372   1.283  0.2909  0.0326  0.2274
13208TIP3    H161039   3.034   5.445   1.300 -1.5520 -1.0314 -1.3616
13208TIP3    H261040   3.161   5.408   1.225 -0.1814  0.6526  0.0593
13209TIP3   OH261041   3.484   4.827   0.130  0.0070 -0.6146  0.3883
13209TIP3    H161042   3.496   4.874   0.212  0.7310 -0.0400 -0.0374
13209TIP3    H261043   3.569   4.786   0.113  0.2306  0.2495 -0.6725
13210TIP3   OH261044   2.563   6.547   0.319 -0.1673 -0.1720  0.2615
13210TIP3    H161045   2.526   6.462   0.344 -0.6025  0.5268  2.1465
13210TIP3    H261046   2.539   6.558   0.227 -2.5919 -0.8267  0.7814
13211TIP3   OH261047   2.864   2.459   2.037 -0.1798  0.4689 -0.6681
13211TIP3    H161048   2.810   2.387   2.069  0.7620 -0.1354 -0.4278
13211TIP3    H261049   2.805   2.534   2.036 -1.1477 -0.2756 -0.8298
13212TIP3   OH261050   2.137   1.627  16.431 -0.2045  0.2926 -0.0534
13212TIP3    H161051   2.148   1.555  16.368 -0.2667 -0.5851  0.9329
13212TIP3    H261052   2.218   1.677  16.425  0.1024 -0.2273 -0.2894
13213TIP3   OH261053   4.746   2.203  11.740 -0.0761  0.2295  0.1168
13213TIP3    H161054   4.781   2.225  11.826  0.7785 -1.3699  0.1884
13213TIP3    H261055   4.770   2.277  11.685 -0.1456  1.0131  1.1117
13214TIP3   OH261056   0.530   1.544  14.036  0.5441  0.6348 -0.2472
13214TIP3    H161057   0.607   1.513  14.085  1.0448  2.0525 -0.1209
13214TIP3    H261058   0.531   1.639  14.047 -0.8194  0.7309 -0.8609
13215TIP3   OH261059   4.354   6.740   3.199  0.1498 -0.2005 -0.2975
13215TIP3    H161060   4.371   6.660   3.150  1.1557 -0.4192  0.4004
13215TIP3    H261061   4.384   6.722   3.288 -2.2448 -0.0249  0.6021
13216TIP3   OH261062   2.629   6.611   3.798 -0.1852 -0.3892  0.0928
13216TIP3    H161063   2.623   6.706   3.792 -0.3438 -0.4255 -0.3228
13216TIP3    H261064   2.676   6.595   3.881  1.8719  0.1052 -0.9341
13217TIP3   OH261065   4.473   1.720  11.382 -0.0958 -0.2162  0.8447
13217TIP3    H161066   4.449   1.749  11.294 -0.2116 -0.9837  0.6231
13217TIP3    H261067   4.390   1.724  11.431 -0.9235 -3.6531 -0.1341
13218TIP3   OH261068   3.000   3.704  15.884 -0.1249 -0.0348 -0.3262
13218TIP3    H161069   3.090   3.705  15.852 -0.0214  0.0499 -0.0351
13218TIP3    H261070   2.947   3.685  15.807 -0.0314  2.0343 -0.9324
13219TIP3   OH261071   1.597   0.251   3.742  0.0391  0.0147  0.9368
13219TIP3    H161072   1.671   0.191   3.751 -0.3029 -0.8242 -1.2753
13219TIP3    H261073   1.632   0.327   3.695 -0.9304 -1.4530 -2.3826
13220TIP3   OH261074   5.560   4.771   2.597 -0.3405 -0.5458  0.5552
13220TIP3    H161075   5.568   4.700   2.660  0.4908  0.1911  1.3000
13220TIP3    H261076   5.560   4.851   2.650 -0.4521  0.0535 -0.3181
13221TIP3   OH261077   2.598   5.745  13.331  0.2063  0.0360 -0.3543
13221TIP3    H161078   2.576   5.838  13.325  0.0215 -0.1645 -3.2124
13221TIP3    H261079   2.533   5.701  13.276  0.0749 -1.8456  1.2309
13222TIP3   OH261080   2.163   2.528   3.698  0.6956 -0.2743  0.2067
13222TIP3    H161081   2.083   2.480   3.720  0.0601  1.1080  0.9502
13222TIP3    H261082   2.230   2.460   3.693 -0.0986 -1.2070  1.6900
13223TIP3   OH261083   3.158   6.495  13.320 -0.2827  0.2163 -0.2940
13223TIP3    H161084   3.086   6.527  13.374 -1.5939 -1.9584 -0.7101
13223TIP3    H261085   3.119   6.477  13.234  0.9522 -0.0644 -0.8218
13224TIP3   OH261086   1.371   0.339  15.678 -0.3708 -0.1840 -0.5122
13224TIP3    H161087   1.462   0.349  15.705 -0.4665 -1.3596  0.2821
13224TIP3    H261088   1.332   0.425  15.693  0.4210  0.1113 -0.1148
13225TIP3   OH261089   5.378   1.465  14.268 -0.0807 -0.4775 -0.0718
13225TIP3    H161090   5.400   1.465  14.174  0.1406 -0.9770 -0.0162
13225TIP3    H261091   5.315   1.537  14.277  0.5674  0.1368 -0.4480
13226TIP3   OH261092   0.600   3.444   4.050  0.1229 -0.3091  0.1690
13226TIP3    H161093   0.517   3.473   4.014  0.6400  1.3526  0.2731
13226TIP3    H261094   0.651   3.415   3.975  0.1291  0.4163 -0.1086
13227TIP3   OH261095   1.201   6.672   3.271  0.0091 -0.0240  0.1340
13227TIP3    H161096   1.257   6.688   3.347  0.8752 -0.9958 -0.2766
13227TIP3    H261097   1.173   6.581   3.281 -1.6339  0.5101  0.4197
13228TIP3   OH261098   4.524   2.161  15.134  0.1312  0.0839  0.1903
13228TIP3    H161099   4.592   2.159  15.066  0.7950 -0.0775  0.8594
13228TIP3    H261100   4.562   2.114  15.208 -1.3862 -1.5876 -0.0506
13229TIP3   OH261101   2.440   2.518   4.457  0.0220 -0.1029  0.6096
13229TIP3    H161102   2.500   2.445   4.438  1.7269  1.0077  1.5664
13229TIP3    H261103   2.353   2.479   4.452  0.8728 -2.0672  0.4833
13230TIP3   OH261104   1.103   4.665   0.196  0.7735  0.2042  0.6391
13230TIP3    H161105   1.088   4.668   0.290 -0.4844 -1.5680  0.5240
13230TIP3    H261106   1.140   4.579   0.180  0.7741  0.4038 -0.5170
13231TIP3   OH261107   1.161   3.298  11.692 -0.2519 -0.4396  0.5004
13231TIP3    H161108   1.175   3.215  11.738  0.8364  0.1662  1.2952
13231TIP3    H261109   1.139   3.360  11.762  1.0623  0.4092  0.1809
13232TIP3   OH261110   6.093   1.755   4.421 -0.4712  0.5139  0.4535
13232TIP3    H161111   6.000   1.767   4.441 -1.2527 -2.5217 -1.0667
13232TIP3    H261112   6.129   1.715   4.501 -1.0629 -0.7751  0.0863
13233TIP3   OH261113   2.567   2.887   4.182 -0.0055 -0.3363  0.7289
13233TIP3    H161114   2.584   2.857   4.272 -1.1699 -2.1987  0.3662
13233TIP3    H261115   2.476   2.862   4.166 -0.1008  0.8503 -0.6560
13234TIP3   OH261116   5.994   4.690  14.254  0.1596  0.8259 -0.3014
13234TIP3    H161117   6.001   4.624  14.322  1.1970 -0.3561 -1.5134
13234TIP3    H261118   5.912   4.736  14.272 -0.4568 -0.6537  0.6752
13235TIP3   OH261119   0.186   3.446   0.809  0.4003  0.7217 -0.1223
13235TIP3    H161120   0.097   3.469   0.782 -0.8414 -1.2014  2.1768
13235TIP3    H261121   0.176   3.365   0.859  2.8683  2.7244  3.8544
13236TIP3   OH261122   1.173   2.758  11.546  0.3321 -0.5485 -0.6113
13236TIP3    H161123   1.244   2.767  11.610 -0.5128 -0.0394  0.2693
13236TIP3    H261124   1.180   2.668  11.514  2.1529 -0.1261 -1.4643
13237TIP3   OH261125   1.987   0.776  15.264 -0.2333 -0.0956  0.0983
13237TIP3    H161126   1.976   0.688  15.302 -0.4270  0.2673  0.9100
13237TIP3    H261127   2.080   0.794  15.272 -0.0807 -0.5054 -0.7108
13238TIP3   OH261128   1.051   4.137  14.990  0.4287 -0.1813 -0.0813
13238TIP3    H161129   1.067   4.172  14.902  0.9180 -2.1615 -0.8130
13238TIP3    H261130   1.115   4.066  14.999  0.4070  0.0298  1.9047
13239TIP3   OH261131   1.507   6.206   6.111 -0.0175  0.1380 -0.2043
13239TIP3    H161132   1.466   6.123   6.084  0.0572  0.5914 -1.7888
13239TIP3    H261133   1.601   6.191   6.099  0.0641  0.1483  0.4049
13240TIP3   OH261134   2.740   6.214   0.366 -0.0885  0.3556 -0.1071
13240TIP3    H161135   2.654   6.242   0.397  0.8657 -0.4478  3.4509
13240TIP3    H261136   2.727   6.124   0.335 -0.8887  0.8759 -1.3034
13241TIP3   OH261137   5.954   5.092   3.064 -0.3569 -0.0778  0.1993
13241TIP3    H161138   5.944   4.997   3.061 -1.3260  0.0586 -2.2323
13241TIP3    H261139   5.886   5.125   3.006 -0.1994  2.1252  1.2242
13242TIP3   OH261140   3.867   2.486   4.075  1.0078  0.3775 -0.5253
13242TIP3    H161141   3.841   2.574   4.100 -1.3811 -0.6577  0.7402
13242TIP3    H261142   3.930   2.459   4.142  2.0037  1.2324 -1.1096
13243TIP3   OH261143   6.622   2.193  14.308 -0.0163  0.1277  0.0307
13243TIP3    H161144   6.718   2.185  14.308  0.1763  2.0406 -0.3200
13243TIP3    H261145   6.601   2.221  14.219 -0.6421  2.1031  0.7710
13244TIP3   OH261146   4.744   3.155   4.033 -0.3586 -0.2373 -0.0284
13244TIP3    H161147   4.829   3.114   4.044 -0.1626  0.2866  0.4476
13244TIP3    H261148   4.750   3.237   4.083 -1.0567 -0.0837 -0.1865
13245TIP3   OH261149   5.720   4.536   2.719 -0.7176 -0.1312  0.3044
13245TIP3    H161150   5.800   4.519   2.670  0.5451  0.5196  2.0937
13245TIP3    H261151   5.655   4.476   2.682  1.0572 -1.8629 -0.0381
13246TIP3   OH261152   2.410   1.710   0.840  0.0687  0.2323 -0.0762
13246TIP3    H161153   2.330   1.735   0.793  0.2300  0.3368 -0.2946
13246TIP3    H261154   2.408   1.763   0.920 -0.1973  0.0666  0.0253
13247TIP3   OH261155   1.576   4.390   4.467 -0.9268 -0.3467  0.0133
13247TIP3    H161156   1.571   4.317   4.528 -0.7373  1.0777  1.7700
13247TIP3    H261157   1.629   4.357   4.394  1.7267 -1.0080  2.1662
13248TIP3   OH261158   0.589   2.254  11.739 -1.0775  0.3692 -0.2343
13248TIP3    H161159   0.582   2.176  11.684 -1.0064  0.2386 -0.0596
13248TIP3    H261160   0.655   2.308  11.696 -1.7342  0.7141 -0.8148
13249TIP3   OH261161   5.175   5.581   1.745 -0.0938  0.7338  0.3947
13249TIP3    H161162   5.115   5.640   1.699  0.0382  0.9068  0.4482
13249TIP3    H261163   5.220   5.636   1.809  0.7761  0.7917 -0.2525
13250TIP3   OH261164   2.036   4.316  16.552 -0.0799 -0.1531 -0.2471
13250TIP3    H161165   2.014   4.287  16.463  0.4303  1.3478 -0.8808
13250TIP3    H261166   2.131   4.309  16.557  0.0707  1.4664 -0.4597
13251TIP3   OH261167   0.864   4.518   3.442 -0.2086 -0.2424  0.0668
13251TIP3    H161168   0.927   4.544   3.375  0.0999 -0.4211  0.2912
13251TIP3    H261169   0.905   4.444   3.487  0.1488  0.6826  1.2911
13252TIP3   OH261170   5.031   3.238  12.593 -0.8715 -0.6467 -0.2917
13252TIP3    H161171   4.993   3.267  12.510  0.5062  1.4340 -0.2464
13252TIP3    H261172   5.015   3.311  12.653  1.4583 -0.5405  0.2338
13253TIP3   OH261173   4.268   0.603  12.758 -0.1189 -0.0332 -0.4702
13253TIP3    H161174   4.352   0.587  12.802  0.2282 -0.0183 -1.1223
13253TIP3    H261175   4.268   0.543  12.684 -1.2667 -0.9716  0.2682
13254TIP3   OH261176   4.437   4.917   6.253  0.2828  0.4978  0.0524
13254TIP3    H161177   4.366   4.855   6.261  0.2106  0.5133 -0.4438
13254TIP3    H261178   4.446   4.956   6.340 -0.1345  0.3025  0.1808
13255TIP3   OH261179   0.037   4.158  12.066 -0.8123  0.2838 -0.1418
13255TIP3    H161180   0.060   4.125  11.980  0.2065  0.3446  0.0904
13255TIP3    H261181  -0.058   4.158  12.068 -0.8740  1.8533 -1.8751
13256TIP3   OH261182   4.214   5.321   2.543 -0.4687  0.3586  0.2924
13256TIP3    H161183   4.254   5.294   2.625 -2.7713  1.8185  1.9324
13256TIP3    H261184   4.238   5.252   2.481  2.5544 -0.0061  1.7831
13257TIP3   OH261185   2.580   1.377   5.749 -0.4404  0.0012  0.4206
13257TIP3    H161186   2.551   1.366   5.658 -0.2728  1.1218  0.2203
13257TIP3    H261187   2.542   1.303   5.795  0.4622 -1.2595 -0.7987
13258TIP3   OH261188   4.965   0.293  14.532 -0.3424  0.1000  0.2382
13258TIP3    H161189   5.008   0.330  14.455 -0.6298  0.5823  0.3064
13258TIP3    H261190   4.872   0.300  14.512 -0.4296  0.7053  0.8499
13259TIP3   OH261191   0.947   5.470  12.294  0.0300 -0.5526  0.3288
13259TIP3    H161192   1.019   5.518  12.335  0.6718 -0.1376 -1.2433
13259TIP3    H261193   0.888   5.450  12.366  0.4569  1.3321  1.2485
13260TIP3   OH261194   0.403   5.109  13.102  0.3031  0.4750  0.1583
13260TIP3    H161195   0.479   5.133  13.155 -0.3595  3.0089  0.0179
13260TIP3    H261196   0.328   5.144  13.149 -0.3492  2.2631 -2.1171
13261TIP3   OH261197   0.200   4.644   5.491  0.3015 -0.1865  0.0365
13261TIP3    H161198   0.140   4.687   5.552 -0.8684 -0.7488 -0.7033
13261TIP3    H261199   0.287   4.657   5.530 -0.4713 -1.0141  2.1228
13262TIP3   OH261200   3.554   2.585   5.824  0.3658 -0.0762  1.0263
13262TIP3    H161201   3.484   2.604   5.888 -0.7371  1.1701 -0.5002
13262TIP3    H261202   3.581   2.672   5.793 -0.2292 -0.7332 -1.3593
13263TIP3   OH261203   0.517   6.351  13.766 -0.2035 -0.6640 -0.1709
13263TIP3    H161204   0.442   6.298  13.790  0.2774 -1.1092  0.3741
13263TIP3    H261205   0.493   6.392  13.683 -1.4605  0.0467  0.5331
13264TIP3   OH261206   5.425   2.776  12.886  0.0701  0.4177 -0.7395
13264TIP3    H161207   5.383   2.826  12.956 -2.1676  0.7885 -2.2842
13264TIP3    H261208   5.496   2.833  12.857 -0.1748  1.1080 -0.0322
13265TIP3   OH261209   0.867   0.456  12.586  0.1918  0.4293 -0.0332
13265TIP3    H161210   0.932   0.497  12.530 -0.5816 -0.8150 -1.8923
13265TIP3    H261211   0.789   0.447  12.531 -1.1879  0.8358  1.7999
13266TIP3   OH261212   1.966   0.638  16.336 -0.0822  0.2650 -0.2233
13266TIP3    H161213   1.937   0.624  16.427  0.4290  0.1202 -0.0821
13266TIP3    H261214   2.048   0.590  16.330 -0.7507 -0.7773 -1.1351
13267TIP3   OH261215   3.984   4.933  12.498 -0.3218 -0.0733 -0.0372
13267TIP3    H161216   4.039   4.862  12.465  1.2965  0.7727  0.8063
13267TIP3    H261217   3.895   4.901  12.487  0.3548 -1.7561 -0.7552
13268TIP3   OH261218   6.405   1.860  15.096  0.4470 -0.5568 -0.4350
13268TIP3    H161219   6.443   1.925  15.036  1.7857 -1.7348 -0.8799
13268TIP3    H261220   6.451   1.779  15.076 -0.6751 -1.4801  0.6585
13269TIP3   OH261221   1.209   3.366  14.316 -0.6558 -0.2664  0.0870
13269TIP3    H161222   1.119   3.398  14.327 -1.4110 -2.3378  0.1027
13269TIP3    H261223   1.260   3.445  14.295 -2.2860  1.0822  1.0390
13270TIP3   OH261224   4.274   3.353   5.481  0.0534 -0.8847 -0.6168
13270TIP3    H161225   4.256   3.301   5.559 -1.6857 -0.4175 -0.6936
13270TIP3    H261226   4.311   3.435   5.514  0.1768 -1.0576 -0.3308
13271TIP3   OH261227   4.818   6.186   1.286 -0.3482 -0.0913 -0.3302
13271TIP3    H161228   4.727   6.168   1.310 -0.1236 -1.4116 -0.4130
13271TIP3    H261229   4.830   6.141   1.202  0.2576  0.4126 -0.5170
13272TIP3   OH261230   4.978   3.326  15.533 -0.3338  0.4769 -0.2260
13272TIP3    H161231   5.054   3.360  15.486 -0.5320  0.3113 -0.6662
13272TIP3    H261232   4.930   3.275  15.468  0.2083 -1.0377  0.5323
13273TIP3   OH261233   3.212   4.974  11.962  0.2635  0.0747 -0.6173
13273TIP3    H161234   3.278   5.009  11.902  0.0548  0.9675 -0.3344
13273TIP3    H261235   3.238   4.882  11.975  0.4432 -0.0640 -1.8761
13274TIP3   OH261236   3.881   5.272   1.781  0.2690  0.0724 -0.8544
13274TIP3    H161237   3.873   5.361   1.814 -0.7079 -0.5082  0.5282
13274TIP3    H261238   3.819   5.268   1.708  0.1786  0.4887 -0.8030
13275TIP3   OH261239   6.064   4.538  15.746  0.0963  0.2249  0.2854
13275TIP3    H161240   6.018   4.597  15.686  0.7671  0.3879 -0.0750
13275TIP3    H261241   5.995   4.502  15.802 -0.4908  0.3115 -0.3767
13276TIP3   OH261242   4.156   3.491  10.913 -0.2340 -0.1862 -0.2619
13276TIP3    H161243   4.090   3.549  10.875 -0.5757 -0.5401 -0.2199
13276TIP3    H261244   4.109   3.443  10.981  0.7263  1.4717  1.6004
13277TIP3   OH261245   1.718   1.019  11.486  0.3661  0.4087 -0.0392
13277TIP3    H161246   1.700   1.042  11.395  4.8341  1.9747 -0.6596
13277TIP3    H261247   1.696   1.098  11.535 -0.4741  0.1372  0.0184
13278TIP3   OH261248   6.157   3.289  13.928  0.4129  0.2131  0.5264
13278TIP3    H161249   6.161   3.358  13.863  1.5900 -0.5641 -0.2481
13278TIP3    H261250   6.246   3.285  13.965  0.0664 -0.1378  1.3500
13279TIP3   OH261251   1.902   1.980   2.870  0.0273  0.0956  0.2923
13279TIP3    H161252   1.938   2.013   2.788 -0.5881 -0.2548 -0.1295
13279TIP3    H261253   1.870   1.892   2.848  1.9345 -0.9078  1.4685
13280TIP3   OH261254   2.859   3.960   2.407 -0.2857 -0.1587 -0.5445
13280TIP3    H161255   2.786   3.925   2.356  0.3720 -0.9771 -0.9403
13280TIP3    H261256   2.830   4.048   2.432 -0.6749  0.2303 -2.2485
13281TIP3   OH261257   0.653   3.855  12.432 -0.3535 -0.3608  0.3078
13281TIP3    H161258   0.740   3.851  12.393 -0.5586 -0.2105 -0.1594
13281TIP3    H261259   0.595   3.882  12.361 -0.7278 -0.0960  0.7095
13282TIP3   OH261260   0.724   1.148   1.723  0.0374 -0.1272 -0.2640
13282TIP3    H161261   0.687   1.063   1.700  1.4607 -1.0504  0.8051
13282TIP3    H261262   0.776   1.173   1.647  0.7016 -0.8451 -0.0521
13283TIP3   OH261263   5.253   1.242  11.912  0.3388 -0.0487 -0.7895
13283TIP3    H161264   5.209   1.212  11.992  2.0478 -1.7672 -0.4548
13283TIP3    H261265   5.219   1.184  11.844 -1.4116  1.6684 -1.4112
13284TIP3   OH261266   4.504   5.382  17.078  0.3956 -0.2702  0.4776
13284TIP3    H161267   4.503   5.378  17.174  0.4921  0.0651  0.4976
13284TIP3    H261268   4.416   5.358  17.051  0.1722  0.3046  0.6844
13285TIP3   OH261269   0.512   4.619   2.042 -0.2224  0.2451  0.4562
13285TIP3    H161270   0.464   4.592   1.964 -1.6225  0.7304  1.1381
13285TIP3    H261271   0.524   4.538   2.093  1.3523 -0.2078 -0.5893
13286TIP3   OH261272   4.498   1.842  15.098  0.2902 -0.3681  0.9574
13286TIP3    H161273   4.454   1.775  15.151  0.7658  0.8527  2.9139
13286TIP3    H261274   4.563   1.880  15.156 -0.6565  2.5290  0.1876
13287TIP3   OH261275   2.019   6.320   1.854  0.3398 -0.3826 -0.0450
13287TIP3    H161276   2.036   6.374   1.777 -0.4161 -0.6468 -0.3923
13287TIP3    H261277   1.995   6.383   1.922  1.0184 -0.1488 -0.0163
13288TIP3   OH261278   3.569   3.742   5.687  0.7180 -0.2368 -0.0653
13288TIP3    H161279   3.527   3.656   5.694  0.2036  0.1383  1.7037
13288TIP3    H261280   3.661   3.725   5.708  0.7689 -0.4630 -0.4524
13289TIP3   OH261281   1.106   5.958   0.626  0.2197  0.3584 -0.0573
13289TIP3    H161282   1.098   5.904   0.704 -2.0327 -1.1380 -1.2833
13289TIP3    H261283   1.057   6.037   0.646 -0.7594 -0.2252 -0.0976
13290TIP3   OH261284   0.241   3.717   3.349  0.2869 -0.2594 -0.3582
13290TIP3    H161285   0.175   3.650   3.334  0.2134  0.1604 -1.9862
13290TIP3    H261286   0.250   3.721   3.445 -1.4682 -0.8617 -0.1482
13291TIP3   OH261287   1.401   1.957  13.526  0.1712 -0.1095 -0.8564
13291TIP3    H161288   1.399   2.028  13.590  2.1541 -1.6416  0.9650
13291TIP3    H261289   1.309   1.936  13.511 -0.3106 -0.3253  2.1737
13292TIP3   OH261290   3.674   2.836   5.712  0.0829 -0.5314  0.0800
13292TIP3    H161291   3.692   2.879   5.628 -0.0310  0.3854  0.5238
13292TIP3    H261292   3.627   2.901   5.764  1.8458 -0.3832  1.5699
13293TIP3   OH261293   1.203   4.213  13.998 -0.4111 -0.0837  0.4539
13293TIP3    H161294   1.130   4.274  14.007 -0.6738 -0.5099  1.3119
13293TIP3    H261295   1.177   4.153  13.928 -0.7129  0.0045  0.4891
13294TIP3   OH261296   5.440   3.980   4.359 -0.4776 -0.3440  0.4522
13294TIP3    H161297   5.468   3.949   4.273 -0.5124 -1.2446  0.7618
13294TIP3    H261298   5.492   3.929   4.421  0.0813  0.8291  0.9588
13295TIP3   OH261299   1.045   2.825  16.092  0.5658 -0.4893 -0.2423
13295TIP3    H161300   1.048   2.899  16.153  0.7567 -1.5199  1.0116
13295TIP3    H261301   1.107   2.761  16.128 -0.4787 -1.7584 -0.6705
13296TIP3   OH261302   6.237   4.875   1.676 -0.8289  0.0527 -0.0545
13296TIP3    H161303   6.305   4.832   1.624 -0.6803 -0.6619  0.7164
13296TIP3    H261304   6.179   4.915   1.611 -0.0739  0.0516 -0.7340
13297TIP3   OH261305   4.487   5.267  13.636  0.0943  0.1990 -0.0509
13297TIP3    H161306   4.425   5.314  13.581 -0.9308 -1.1356 -0.0593
13297TIP3    H261307   4.573   5.293  13.602 -0.4744  1.1872 -0.7711
13298TIP3   OH261308   1.950   5.999  13.257 -0.4067  1.0552 -0.7827
13298TIP3    H161309   1.951   5.909  13.290 -0.5698  1.7764  1.2733
13298TIP3    H261310   1.881   5.999  13.190  0.2818 -0.5845 -1.5086
13299TIP3   OH261311   0.143   1.484  12.648 -0.0667  0.1218  0.1132
13299TIP3    H161312   0.238   1.492  12.656  0.1059 -1.4421 -0.1533
13299TIP3    H261313   0.115   1.567  12.609  1.1129  0.8215  0.7376
13300TIP3   OH261314   1.671   4.849   5.583  0.1225  0.2549  0.0368
13300TIP3    H161315   1.599   4.858   5.520 -0.5132  0.9524  0.8496
13300TIP3    H261316   1.640   4.895   5.661  1.7981  1.2547  0.1237
13301TIP3   OH261317   3.727   3.468  12.871 -0.2995 -0.2492  0.4591
13301TIP3    H161318   3.638   3.489  12.898 -0.1736 -0.9767  1.5023
13301TIP3    H261319   3.768   3.552  12.854 -1.0509  0.1113  0.4287
13302TIP3   OH261320   3.071   3.691  13.845  0.0219  0.2182 -0.4264
13302TIP3    H161321   3.048   3.759  13.781 -0.9574  1.9224  1.6661
13302TIP3    H261322   3.004   3.624  13.833 -0.0927  0.4700 -1.2628
13303TIP3   OH261323   3.728   3.236   5.399  0.2641 -0.0677 -0.1500
13303TIP3    H161324   3.819   3.229   5.429 -0.3483 -0.1118  1.7092
13303TIP3    H261325   3.695   3.316   5.439 -0.2415  0.4735 -1.6121
13304TIP3   OH261326   2.893   5.562   1.590 -0.3376 -0.1465  0.3137
13304TIP3    H161327   2.907   5.563   1.495 -0.2020 -1.9125  0.2955
13304TIP3    H261328   2.979   5.582   1.627 -0.2444 -0.1084  0.0782
13305TIP3   OH261329   5.220   6.487   2.596 -0.0033 -0.7323  0.1378
13305TIP3    H161330   5.140   6.468   2.644 -1.4544  4.0648 -0.1857
13305TIP3    H261331   5.284   6.510   2.663 -0.7025  1.4187  0.1004
13306TIP3   OH261332   1.500   3.574   1.085 -0.5764  1.0033  0.6504
13306TIP3    H161333   1.546   3.531   1.158  0.8033  0.7831 -0.3309
13306TIP3    H261334   1.498   3.507   1.017  1.1708  2.3103 -0.7303
13307TIP3   OH261335   0.164   5.638   1.781 -0.1815  0.2945 -0.1176
13307TIP3    H161336   0.155   5.638   1.877  0.2915  2.2083 -0.0490
13307TIP3    H261337   0.193   5.549   1.760 -0.0121 -0.0679  1.5402
13308TIP3   OH261338   4.197   4.852  10.224 -0.6235  0.6574 -0.2793
13308TIP3    H161339   4.136   4.926  10.221 -1.9415 -0.4484 -1.3603
13308TIP3    H261340   4.173   4.805  10.304 -1.1708  0.2637 -0.6657
13309TIP3   OH261341   5.514   2.739   2.427 -0.0896 -1.1050 -0.4572
13309TIP3    H161342   5.498   2.724   2.333  1.0281 -1.2501 -0.6300
13309TIP3    H261343   5.601   2.701   2.443 -0.2400 -1.0082  0.6251
13310TIP3   OH261344   5.699   0.223   1.627 -0.0280  0.2848 -0.0000
13310TIP3    H161345   5.613   0.197   1.594  0.1947 -0.8531  0.2979
13310TIP3    H261346   5.693   0.317   1.639 -0.8106  0.4019 -1.2510
13311TIP3   OH261347   6.701   0.234   1.478 -0.0043  0.2805 -0.2604
13311TIP3    H161348   6.752   0.154   1.489  1.0814  1.1669  1.3340
13311TIP3    H261349   6.659   0.223   1.393  0.3605 -1.8447 -0.2072
13312TIP3   OH261350   2.277   6.085  14.542 -0.4804 -0.3165  0.1093
13312TIP3    H161351   2.216   6.056  14.609  0.5964  1.8639  2.0961
13312TIP3    H261352   2.355   6.030  14.554  0.8132  1.9899  2.5845
13313TIP3   OH261353   1.669   1.121  13.062 -0.5881  0.9704 -0.3953
13313TIP3    H161354   1.691   1.193  13.004 -1.1926  1.3569 -0.1505
13313TIP3    H261355   1.578   1.100  13.041 -0.6956  0.8762  0.1496
13314TIP3   OH261356   0.539   5.514  11.744  0.3551  0.0253 -0.2772
13314TIP3    H161357   0.548   5.421  11.763 -2.5009 -0.0516  0.9521
13314TIP3    H261358   0.497   5.518  11.658 -0.4515  0.1351  0.1129
13315TIP3   OH261359   5.736   6.276  15.295  0.7939 -0.1180 -0.4401
13315TIP3    H161360   5.731   6.196  15.348 -0.3768 -0.1767 -0.6349
13315TIP3    H261361   5.742   6.346  15.359  0.0549 -0.2389 -0.2325
13316TIP3   OH261362   3.955   2.990   6.729  0.0923 -0.3209  0.1507
13316TIP3    H161363   4.002   3.040   6.662  2.0154  0.4387  1.9891
13316TIP3    H261364   3.876   3.042   6.747  0.8180  0.7793  0.2281
13317TIP3   OH261365   4.495   6.503  16.912 -0.6348  0.0456 -0.6150
13317TIP3    H161366   4.506   6.508  16.817 -0.0703  0.6659 -0.5188
13317TIP3    H261367   4.530   6.586  16.944 -0.0781 -0.5040  0.2039
13318TIP3   OH261368   2.322   2.742  13.843  0.4125  0.5033 -0.5092
13318TIP3    H161369   2.324   2.652  13.875  1.4236  0.7648  0.1981
13318TIP3    H261370   2.284   2.736  13.756 -0.3280 -0.5005 -0.1244
13319TIP3   OH261371   1.123   4.988  12.873 -0.0543  0.2470  0.1708
13319TIP3    H161372   1.096   5.011  12.961  0.5644 -0.3906  0.5338
13319TIP3    H261373   1.076   5.049  12.816  0.9414  1.8605  1.0621
13320TIP3   OH261374   4.719   4.048   5.176 -0.3879 -0.1924  0.0309
13320TIP3    H161375   4.696   4.133   5.139  1.9773 -0.1892 -1.4952
13320TIP3    H261376   4.734   3.992   5.100  1.5032 -1.0376  0.9990
13321TIP3   OH261377   5.257   5.931  11.491  0.1614  0.7761  0.0026
13321TIP3    H161378   5.352   5.943  11.482 -0.0080  1.5434 -0.8956
13321TIP3    H261379   5.222   6.020  11.484 -0.6876  0.4023 -0.5183
13322TIP3   OH261380   3.692   2.877   6.222  0.0662  0.2567  0.3223
13322TIP3    H161381   3.740   2.893   6.303 -0.7156 -0.3685  0.9198
13322TIP3    H261382   3.613   2.829   6.250 -0.3656  0.3210 -0.7640
13323TIP3   OH261383   3.377   4.059  13.450 -0.1052 -0.3194 -0.3052
13323TIP3    H161384   3.406   4.126  13.512 -0.8104  2.1738 -2.5998
13323TIP3    H261385   3.289   4.086  13.425 -0.4247 -2.1441 -1.2218
13324TIP3   OH261386   3.528   4.597   2.414 -0.1068  0.1262 -0.8126
13324TIP3    H161387   3.565   4.510   2.404  1.4687  0.8163 -1.1245
13324TIP3    H261388   3.602   4.657   2.401 -0.7792  1.4615  1.1776
13325TIP3   OH261389   2.027   3.382  11.930  0.6346  0.2616 -0.3112
13325TIP3    H161390   2.013   3.364  12.023 -0.5969  1.2477 -0.2791
13325TIP3    H261391   2.104   3.332  11.906  1.2158  0.3444  1.3577
13326TIP3   OH261392   4.730   6.388   2.558 -0.2644 -0.5900 -0.2727
13326TIP3    H161393   4.687   6.334   2.624 -2.3613  0.1985 -0.9292
13326TIP3    H261394   4.815   6.410   2.595 -1.0124 -0.9962  1.7235
13327TIP3   OH261395   4.714   4.877   3.310 -0.2887 -0.3680 -0.4413
13327TIP3    H161396   4.681   4.880   3.400 -2.0756 -1.1295 -1.0575
13327TIP3    H261397   4.704   4.967   3.278 -0.2440 -0.2341 -0.0834
13328TIP3   OH261398   2.866   3.281  14.182 -0.3233 -0.3308 -0.2162
13328TIP3    H161399   2.807   3.245  14.116 -0.7215  2.4864 -1.4669
13328TIP3    H261400   2.934   3.215  14.192 -0.6274 -1.1198 -2.9533
13329TIP3   OH261401   4.058   4.006  13.205  0.1615 -0.0460  0.1349
13329TIP3    H161402   4.003   4.085  13.200 -1.1562 -0.9691 -0.2595
13329TIP3    H261403   4.000   3.939  13.242  1.3344 -0.7907  0.6577
13330TIP3   OH261404   4.025   6.416  15.377 -0.1844 -0.4878  0.4913
13330TIP3    H161405   3.949   6.439  15.324  0.3427 -0.5593 -0.2980
13330TIP3    H261406   3.997   6.432  15.468 -0.5600  1.1519  0.0996
13331TIP3   OH261407   6.114   1.861  14.394 -0.2076 -0.5757  0.3425
13331TIP3    H161408   6.044   1.877  14.457 -0.2400 -3.4850  1.1250
13331TIP3    H261409   6.186   1.915  14.424 -0.7039 -0.8239  2.0483
13332TIP3   OH261410   5.321   1.425  15.454 -0.0046  0.2281  0.1041
13332TIP3    H161411   5.228   1.419  15.474  0.1568  0.1382  0.8231
13332TIP3    H261412   5.364   1.431  15.539  0.6331  0.4659 -0.2337
13333TIP3   OH261413   2.841   1.335  12.768  0.3208  0.1216 -0.4198
13333TIP3    H161414   2.917   1.319  12.713 -0.0257 -0.8253 -0.6261
13333TIP3    H261415   2.773   1.278  12.733 -0.0263 -0.1882  0.7257
13334TIP3   OH261416   0.685   5.924  11.788 -0.0309  0.1741 -0.5348
13334TIP3    H161417   0.730   5.844  11.814 -1.4373 -0.9816 -1.5734
13334TIP3    H261418   0.611   5.931  11.849 -1.4976 -0.8320 -2.1561
13335TIP3   OH261419   4.677   2.749  15.599 -0.9870  0.2309  0.3517
13335TIP3    H161420   4.705   2.700  15.676 -0.0668  1.7514  1.0046
13335TIP3    H261421   4.734   2.719  15.528 -1.2202 -0.4889  0.4625
13336TIP3   OH261422   0.531   1.515  12.845  0.2222 -0.4633  0.1283
13336TIP3    H161423   0.477   1.495  12.922 -0.1445 -0.7214 -0.1956
13336TIP3    H261424   0.468   1.546  12.780  0.3425 -1.7136 -0.5874
13337TIP3   OH261425   6.267   4.816  16.444  0.4480 -0.0691 -0.3097
13337TIP3    H161426   6.208   4.846  16.375 -2.1321 -1.3437  1.2813
13337TIP3    H261427   6.293   4.728  16.416  1.9555  0.6382 -1.2022
13338TIP3   OH261428   4.118   3.908  13.555 -0.1182  0.1733 -0.2833
13338TIP3    H161429   4.122   3.836  13.492  0.0093  0.5518 -0.7110
13338TIP3    H261430   4.178   3.881  13.625  0.8274  0.3903 -1.0020
13339TIP3   OH261431   2.822   3.438  17.070  0.5800 -0.3496 -0.0176
13339TIP3    H161432   2.743   3.388  17.050  0.1076  0.0334  0.8407
13339TIP3    H261433   2.879   3.426  16.994 -0.2302 -0.7820 -0.5577
13340TIP3   OH261434   0.087   5.587   5.043 -0.0696 -0.6916 -0.2346
13340TIP3    H161435   0.158   5.546   4.993 -0.9316 -2.1663 -0.2425
13340TIP3    H261436   0.108   5.567   5.134 -0.0099 -0.3781 -0.1790
13341TIP3   OH261437   2.583   0.067  11.202 -0.3281 -0.3637  0.3025
13341TIP3    H161438   2.636  -0.011  11.216  1.9250  0.8060 -1.3184
13341TIP3    H261439   2.496   0.034  11.179  0.6341 -2.3768 -0.5215
13342TIP3   OH261440   0.188   0.176   1.199  0.4214 -0.2156 -0.6560
13342TIP3    H161441   0.283   0.164   1.197  0.4493 -0.1648  0.1348
13342TIP3    H261442   0.170   0.240   1.130  1.0707  0.4624 -0.1999
13343TIP3   OH261443   0.151   6.533   4.269 -0.0264  0.2475  0.5955
13343TIP3    H161444   0.234   6.542   4.223  0.3448  0.5503  1.3074
13343TIP3    H261445   0.162   6.587   4.347 -0.9149  0.3319  0.6619
13344TIP3   OH261446   3.557   3.285  11.462 -0.1911 -0.5394  0.2107
13344TIP3    H161447   3.541   3.191  11.469 -1.1884 -0.3341  0.7665
13344TIP3    H261448   3.589   3.297  11.373 -0.8458 -1.3047 -0.1364
13345TIP3   OH261449   0.734   1.772   5.457 -0.2985 -0.0963 -0.4169
13345TIP3    H161450   0.661   1.802   5.405 -1.5224 -0.5022  1.0323
13345TIP3    H261451   0.775   1.852   5.490 -0.9897  0.0997 -0.0284
13346TIP3   OH261452   5.622   5.363   2.120  0.2983  0.0148  0.1332
13346TIP3    H161453   5.602   5.294   2.183  0.0605  0.4617  0.5454
13346TIP3    H261454   5.649   5.316   2.041  1.6073 -0.5284  0.8980
13347TIP3   OH261455   6.270   3.171   3.323  0.1694 -0.8029  0.2095
13347TIP3    H161456   6.336   3.116   3.365  2.0073  1.0933 -0.0531
13347TIP3    H261457   6.237   3.227   3.394 -0.5845 -1.2347  0.1916
13348TIP3   OH261458   0.917   4.393   6.313 -0.0921 -0.2117  0.9100
13348TIP3    H161459   0.943   4.473   6.267 -0.2348  0.7106  2.4029
13348TIP3    H261460   0.822   4.394   6.311 -0.0983 -0.1466  1.2674
13349TIP3   OH261461   6.563   1.189  14.288  0.3929 -0.1271  0.4623
13349TIP3    H161462   6.640   1.240  14.264  1.0148 -0.3651  1.9162
13349TIP3    H261463   6.540   1.219  14.375  0.0027 -1.4115  0.8139
13350TIP3   OH261464   5.471   1.819   5.768 -0.0270  0.1336  0.1099
13350TIP3    H161465   5.560   1.853   5.778 -0.2583  1.4332 -1.9837
13350TIP3    H261466   5.436   1.817   5.857  1.3805  1.5812  0.7229
13351TIP3   OH261467   1.152   5.873  16.219 -0.4369  0.0618  0.2542
13351TIP3    H161468   1.206   5.847  16.294 -0.3210  0.8474  0.4472
13351TIP3    H261469   1.215   5.909  16.156 -0.6493  0.2984  0.1796
13352TIP3   OH261470   5.378   0.151   3.038 -0.7358  0.0514 -0.3295
13352TIP3    H161471   5.376   0.065   2.996  0.2018  0.9927 -2.4011
13352TIP3    H261472   5.302   0.151   3.097  0.2593 -2.8246  1.0665
13353TIP3   OH261473   6.073   3.295  11.590 -0.4229  0.7653 -0.0215
13353TIP3    H161474   6.027   3.260  11.513 -1.2078 -0.8245  1.1371
13353TIP3    H261475   6.035   3.382  11.603 -1.3719  0.4332 -0.5304
13354TIP3   OH261476   1.139   6.264  12.335  0.2735 -0.5196  0.4925
13354TIP3    H161477   1.156   6.353  12.304 -0.4145 -0.4750  0.2391
13354TIP3    H261478   1.046   6.264  12.359  0.3444 -1.0843  0.7788
13355TIP3   OH261479   2.691   0.526  13.016  0.3365  0.3599 -0.3097
13355TIP3    H161480   2.695   0.604  13.072  0.6683 -0.8570  1.3980
13355TIP3    H261481   2.773   0.479  13.035  0.2868 -0.2444 -1.5584
13356TIP3   OH261482   1.965   1.840  11.028  0.2252 -0.1729 -0.2436
13356TIP3    H161483   1.872   1.830  11.007  0.0974 -0.6560  0.5128
13356TIP3    H261484   2.000   1.751  11.029  0.1110 -0.2401  1.9711
13357TIP3   OH261485   0.555   0.107  16.549 -0.1297  0.1637  0.1279
13357TIP3    H161486   0.650   0.100  16.554 -0.0174  0.8098 -0.8743
13357TIP3    H261487   0.529   0.145  16.633  0.6164  1.0547 -0.0305
13358TIP3   OH261488   2.415   1.851  16.521 -0.2063 -0.0277  0.0601
13358TIP3    H161489   2.484   1.888  16.465  1.0641 -2.7017 -0.2208
13358TIP3    H261490   2.463   1.815  16.596 -1.3748 -1.2523  0.2326
13359TIP3   OH261491   5.146   6.434  15.713 -0.4784  0.6288  0.0602
13359TIP3    H161492   5.149   6.361  15.652  0.7462  0.5171  0.2400
13359TIP3    H261493   5.054   6.442  15.737 -1.0687  1.0350 -2.2144
13360TIP3   OH261494   0.668   3.056  16.399  0.3680 -0.6441  0.4002
13360TIP3    H161495   0.630   3.065  16.486  0.3165 -1.0906  0.4271
13360TIP3    H261496   0.754   3.096  16.405 -0.8491  2.1726 -0.1897
13361TIP3   OH261497   5.201   2.849  16.291  0.1067  0.0005 -0.0770
13361TIP3    H161498   5.247   2.766  16.299  0.5064  0.3387  1.3413
13361TIP3    H261499   5.235   2.902  16.364 -1.1448  0.9141 -0.1389
13362TIP3   OH261500   1.801   4.041   1.257  0.1702 -0.5896  0.4587
13362TIP3    H161501   1.766   4.065   1.343 -1.1911 -1.7055  0.2437
13362TIP3    H261502   1.724   4.033   1.201  0.9528 -0.9980 -0.5797
13363TIP3   OH261503   1.927   2.533   4.293 -0.0521 -0.0374  0.2118
13363TIP3    H161504   1.929   2.626   4.273  1.7167 -0.0182  0.3419
13363TIP3    H261505   2.013   2.501   4.266  0.2059 -1.1670  2.2340
13364TIP3   OH261506   4.378   5.391   5.566 -0.2017  0.0391  0.0701
13364TIP3    H161507   4.423   5.362   5.487 -0.7487 -0.4115 -0.0775
13364TIP3    H261508   4.437   5.457   5.604 -0.4810  1.1232 -1.3326
13365TIP3   OH261509   0.592   1.589   3.263  0.2987 -0.1805 -0.2111
13365TIP3    H161510   0.633   1.638   3.334 -0.8938  0.3013  0.1576
13365TIP3    H261511   0.574   1.654   3.196  0.1142 -0.3855 -0.3622
13366TIP3   OH261512   3.827   2.610   5.725  0.4018 -0.3251 -0.6870
13366TIP3    H161513   3.746   2.562   5.746 -0.1517 -0.2052 -2.4308
13366TIP3    H261514   3.799   2.700   5.712  1.3354  0.3669  1.8524
13367TIP3   OH261515   6.249   1.369  13.986  0.2899  0.0791  0.3859
13367TIP3    H161516   6.284   1.282  13.972 -0.2908 -0.1400  0.2610
13367TIP3    H261517   6.210   1.392  13.901 -1.4971 -0.4389  1.0466
13368TIP3   OH261518   4.586   4.143   3.521 -0.3435  0.3855 -0.0445
13368TIP3    H161519   4.502   4.100   3.538 -1.3468  1.5850 -1.8036
13368TIP3    H261520   4.571   4.234   3.545  0.5220  0.5742 -0.2173
13369TIP3   OH261521   1.309   5.995  14.205  0.1116  0.0999 -0.0085
13369TIP3    H161522   1.344   6.003  14.116  0.7745 -0.4663  0.1997
13369TIP3    H261523   1.250   6.070  14.214 -0.8035 -0.4453 -1.3010
13370TIP3   OH261524   6.124   2.901  16.126 -0.0055 -0.1219 -0.6795
13370TIP3    H161525   6.172   2.984  16.131 -1.3061  0.6061 -0.1112
13370TIP3    H261526   6.048   2.920  16.071  1.1399 -1.6794 -2.8676
13371TIP3   OH261527   5.159   1.458  13.137 -0.5555 -0.4706  0.0635
13371TIP3    H161528   5.094   1.471  13.068 -0.3246  1.4412  0.1865
13371TIP3    H261529   5.137   1.373  13.174 -0.8857 -1.3972 -2.1505
13372TIP3   OH261530   5.484   0.120  15.284  0.0636  0.1296 -0.2654
13372TIP3    H161531   5.579   0.119  15.285  0.0696 -0.6521  1.6501
13372TIP3    H261532   5.459   0.070  15.362 -1.9009  0.7561 -0.4648
13373TIP3   OH261533   5.142   0.292   2.754 -0.2465  0.5954  0.2085
13373TIP3    H161534   5.230   0.301   2.719 -0.7518  0.7096 -1.0753
13373TIP3    H261535   5.132   0.198   2.772  0.9878  0.9187  2.6969
13374TIP3   OH261536   3.753   1.010   3.621  0.4686  0.9303  0.1821
13374TIP3    H161537   3.768   0.917   3.633 -1.3744  0.7455  1.0754
13374TIP3    H261538   3.731   1.019   3.528 -0.0403  0.3984  0.2556
13375TIP3   OH261539   1.427   5.027  12.227  0.5243 -0.5499  0.2675
13375TIP3    H161540   1.506   5.074  12.200  0.0155  0.5087  0.5975
13375TIP3    H261541   1.375   5.020  12.147 -0.2117  1.0751  0.5762
13376TIP3   OH261542   6.553   1.105  16.735 -0.6031  0.2740  0.1475
13376TIP3    H161543   6.559   1.119  16.641  1.2463 -0.4875  0.1317
13376TIP3    H261544   6.515   1.186  16.769  0.4245  1.2685 -1.0411
13377TIP3   OH261545   4.994   1.509   3.073 -0.5202  0.0032  0.2593
13377TIP3    H161546   5.064   1.479   3.016 -1.3275 -0.6021 -0.4185
13377TIP3    H261547   5.039   1.546   3.149  0.5092 -1.2982  0.2910
13378TIP3   OH261548   0.838   4.687  11.312  0.3943  0.4901 -0.2224
13378TIP3    H161549   0.913   4.681  11.252  1.0969  1.6580  0.5146
13378TIP3    H261550   0.762   4.672  11.257  1.1938 -1.1455 -0.9144
13379TIP3   OH261551   4.228   1.262  11.922  0.0501  0.0275 -0.4327
13379TIP3    H161552   4.264   1.350  11.913  0.5736 -0.1277  0.1333
13379TIP3    H261553   4.288   1.207  11.872  0.0848 -0.0984 -0.2523
13380TIP3   OH261554   4.328   1.968  12.827 -0.7034 -0.0544  0.3119
13380TIP3    H161555   4.359   1.883  12.860 -0.9376 -0.7551 -1.2476
13380TIP3    H261556   4.348   2.030  12.898 -1.2592 -1.5404  1.7950
13381TIP3   OH261557   0.918   6.759  14.019  0.2184  0.1044 -0.1505
13381TIP3    H161558   0.876   6.730  13.938 -0.3415 -0.8986  0.4927
13381TIP3    H261559   0.882   6.702  14.087  2.7591 -0.9511  0.3886
13382TIP3   OH261560   1.349   4.258  15.999 -0.3876 -0.9183  0.1760
13382TIP3    H161561   1.387   4.192  15.941 -1.5297 -1.3991 -0.0385
13382TIP3    H261562   1.353   4.218  16.086  0.3685 -0.6252  0.2742
13383TIP3   OH261563   1.075   6.675  17.124  0.0011 -0.0100 -0.0773
13383TIP3    H161564   1.083   6.589  17.165  1.5456  0.6905  1.1127
13383TIP3    H261565   1.093   6.737  17.194 -3.5717  1.3858 -0.2925
13384TIP3   OH261566   3.109   5.115  12.698 -0.2485 -0.6401  0.4761
13384TIP3    H161567   3.065   5.031  12.683 -1.3742 -0.0920  0.7419
13384TIP3    H261568   3.178   5.117  12.632 -0.7640 -1.4005 -0.0925
13385TIP3   OH261569   3.096   6.104   0.114  0.0508 -0.2859 -0.6321
13385TIP3    H161570   3.146   6.024   0.098  0.2073 -0.2382 -0.3786
13385TIP3    H261571   3.086   6.107   0.209  1.9015  1.1261 -0.4658
13386TIP3   OH261572   1.845   1.745  15.136  0.8847  0.0386 -0.9452
13386TIP3    H161573   1.764   1.764  15.182  1.1752 -0.7921 -0.0769
13386TIP3    H261574   1.883   1.831  15.116  0.1471  0.4112 -0.7369
13387TIP3   OH261575   3.458   3.341   0.976 -0.0653 -0.4670  0.2366
13387TIP3    H161576   3.485   3.430   0.956 -2.4179  0.3688  0.5822
13387TIP3    H261577   3.536   3.299   1.011  1.1455  1.3661 -0.2114
13388TIP3   OH261578   0.843   6.011  17.094 -0.1608  0.2160  0.9915
13388TIP3    H161579   0.828   6.085  17.152  0.6795  1.6647 -0.6018
13388TIP3    H261580   0.938   5.999  17.094 -0.1684  0.1535 -0.0031
13389TIP3   OH261581   4.715   4.030  11.661  0.5185  0.3452  0.0616
13389TIP3    H161582   4.788   3.971  11.642 -0.0084 -0.2387 -0.1520
13389TIP3    H261583   4.750   4.118  11.643  0.6049 -0.0535 -1.8253
13390TIP3   OH261584   3.348   3.856  15.631  0.0697 -0.2653 -0.9123
13390TIP3    H161585   3.262   3.837  15.595 -0.0542 -1.6345  0.0709
13390TIP3    H261586   3.401   3.780  15.609  0.4566 -0.3637  0.2946
13391TIP3   OH261587   4.067   3.507  16.578  0.2520  0.0807 -0.0886
13391TIP3    H161588   4.122   3.462  16.643 -1.7057 -3.7978 -0.9539
13391TIP3    H261589   3.994   3.543  16.628  1.0512  1.0066  0.4234
13392TIP3   OH261590   4.645   6.495  14.291 -0.3072  0.7899  0.4529
13392TIP3    H161591   4.652   6.509  14.386  0.4426 -1.2935  0.7260
13392TIP3    H261592   4.558   6.458  14.279  0.6602 -1.6573  0.7051
13393TIP3   OH261593   5.139   2.704  14.594  0.6253  0.9192 -0.3737
13393TIP3    H161594   5.080   2.690  14.668 -0.2471 -0.5141 -1.3338
13393TIP3    H261595   5.199   2.772  14.625  0.1318  0.5084  1.5711
13394TIP3   OH261596   2.183   1.888   3.075  0.5032  0.1045 -0.0329
13394TIP3    H161597   2.188   1.847   2.989 -0.5367 -1.6385  0.6967
13394TIP3    H261598   2.171   1.981   3.057 -0.8376 -0.3791 -1.7854
13395TIP3   OH261599   1.959   3.213  12.176 -0.2935 -0.1597  0.2493
13395TIP3    H161600   1.986   3.182  12.263 -0.5043 -0.0390  0.3588
13395TIP3    H261601   1.983   3.143  12.117 -0.4270 -0.3727  0.4480
13396TIP3   OH261602   3.116   0.813   3.334 -0.3778  0.0929 -0.5354
13396TIP3    H161603   3.159   0.813   3.249 -0.3516  0.2063 -0.5228
13396TIP3    H261604   3.102   0.906   3.354  1.4132  0.1857  0.4903
13397TIP3   OH261605   5.110   0.975   0.214  0.0144  0.2161  0.6496
13397TIP3    H161606   5.197   1.016   0.222 -0.0742  0.5549 -0.1274
13397TIP3    H261607   5.060   1.014   0.286  0.3401  0.4373  0.7621
13398TIP3   OH261608   0.904   5.279  17.234  0.4480 -0.2428 -0.4330
13398TIP3    H161609   0.932   5.188  17.223  1.6933  0.2661 -1.6588
13398TIP3    H261610   0.960   5.313  17.304  1.1119  0.0145 -1.0728
13399TIP3   OH261611   0.189   5.514  16.367  0.1497 -0.0339 -0.4007
13399TIP3    H161612   0.138   5.468  16.434  1.3824 -1.1975 -0.2307
13399TIP3    H261613   0.238   5.445  16.322  1.9264  1.0947 -0.2591
13400TIP3   OH261614   1.900   4.803   1.222 -0.6814 -0.7353 -0.5747
13400TIP3    H161615   1.907   4.885   1.270  0.7220 -0.2402 -1.5688
13400TIP3    H261616   1.854   4.826   1.141  1.1173 -0.5514 -1.5924
13401TIP3   OH261617   6.071   2.547   2.586  0.2880 -0.3850 -0.3860
13401TIP3    H161618   5.979   2.540   2.611  0.4404 -0.1967  0.2353
13401TIP3    H261619   6.109   2.462   2.609 -0.0648 -1.0098 -2.0625
13402TIP3   OH261620   5.025   5.062  16.166 -0.8284 -0.9345 -0.1981
13402TIP3    H161621   4.992   5.019  16.087 -0.3925 -1.2832 -0.1937
13402TIP3    H261622   4.975   5.024  16.237  0.1203 -2.0388 -0.1072
13403TIP3   OH261623   6.740   4.143  14.781 -1.0205  0.2780  0.0070
13403TIP3    H161624   6.698   4.121  14.864 -0.0558 -2.7867 -0.2542
13403TIP3    H261625   6.834   4.147  14.802 -0.9985  2.2824 -0.3851
13404TIP3   OH261626   4.818   3.784  13.020  0.4588 -0.3451 -0.1192
13404TIP3    H161627   4.776   3.847  13.078  1.6298 -0.8492  1.2997
13404TIP3    H261628   4.756   3.711  13.016  0.2709 -0.2075  0.2984
13405TIP3   OH261629   1.721   5.400   1.862 -0.5245 -0.0262 -0.2246
13405TIP3    H161630   1.763   5.404   1.948 -0.2501  0.5824 -0.3904
13405TIP3    H261631   1.644   5.344   1.876  0.5352 -1.4828 -0.0109
13406TIP3   OH261632   3.864   6.411   5.179  0.4605 -0.4020 -0.3530
13406TIP3    H161633   3.922   6.337   5.194 -1.1340 -1.2612  1.9134
13406TIP3    H261634   3.911   6.486   5.216  2.0122 -0.2490 -2.5289
13407TIP3   OH261635   2.880   0.473   0.390  0.5190  0.5214  0.0752
13407TIP3    H161636   2.831   0.392   0.404  0.5804  0.6062  0.7948
13407TIP3    H261637   2.891   0.510   0.478  1.0265  0.9938 -0.1836
13408TIP3   OH261638   0.307   1.706  13.787 -0.2904 -0.1923 -0.4651
13408TIP3    H161639   0.266   1.767  13.726 -0.4797 -1.2946 -1.4485
13408TIP3    H261640   0.399   1.734  13.792 -1.0925  2.2419  1.6899
13409TIP3   OH261641   3.314   4.627  16.286  0.7173  0.3022 -0.2877
13409TIP3    H161642   3.409   4.636  16.285  0.6852  0.6832 -0.0310
13409TIP3    H261643   3.285   4.686  16.356  0.3468 -0.3334  0.1048
13410TIP3   OH261644   5.792   4.207  12.386 -0.6769 -0.1209  0.0356
13410TIP3    H161645   5.708   4.223  12.429 -0.3957  0.3141  0.4245
13410TIP3    H261646   5.853   4.189  12.458 -0.8747 -2.5338 -0.3366
13411TIP3   OH261647   1.908   1.366   1.555 -0.8111 -0.6866 -0.4429
13411TIP3    H161648   2.003   1.376   1.566 -1.1666  0.8667  1.4505
13411TIP3    H261649   1.899   1.310   1.478  1.6655 -1.6614 -0.0845
13412TIP3   OH261650   3.551   5.593  12.947 -0.1956  0.3116 -0.4028
13412TIP3    H161651   3.594   5.509  12.966  0.2126  0.1645 -1.9330
13412TIP3    H261652   3.480   5.598  13.011  0.0925 -0.9665  0.0379
13413TIP3   OH261653   2.553   2.139   3.844 -0.1784  0.2126  0.3033
13413TIP3    H161654   2.615   2.127   3.916 -0.0138 -2.7523 -0.2787
13413TIP3    H261655   2.596   2.202   3.786  0.4410  1.3176  1.9004
13414TIP3   OH261656   2.106   0.819   3.401 -0.1549 -0.2299 -0.0072
13414TIP3    H161657   2.043   0.886   3.428  0.4779  0.2740  0.2537
13414TIP3    H261658   2.091   0.807   3.307  0.1506  0.7472 -0.1891
13415TIP3   OH261659   0.174   0.276  10.970  0.1518  0.4047 -0.2382
13415TIP3    H161660   0.110   0.262  11.039  1.1605  0.9153  0.8163
13415TIP3    H261661   0.140   0.351  10.920 -0.6342 -0.0426 -0.3662
13416TIP3   OH261662   4.653   0.600  15.984 -0.0205  0.0435 -0.2081
13416TIP3    H161663   4.671   0.525  16.040  0.2696 -0.6536 -1.2243
13416TIP3    H261664   4.584   0.570  15.925 -2.2597  1.6198  1.4845
13417TIP3   OH261665   6.377   3.695   4.284 -0.6400 -0.6889  0.3905
13417TIP3    H161666   6.347   3.619   4.234  1.0883 -1.7222  0.8621
13417TIP3    H261667   6.387   3.662   4.373 -2.1545  0.7262  1.0955
13418TIP3   OH261668   6.602   5.719  14.075 -0.0314 -0.1321  0.1996
13418TIP3    H161669   6.599   5.701  14.169  0.3865  0.8300  0.4020
13418TIP3    H261670   6.511   5.714  14.046 -0.5084  2.1761  1.1654
13419TIP3   OH261671   0.610   3.092   1.631  0.2268  0.0925  0.1963
13419TIP3    H161672   0.580   3.012   1.587  1.5233  0.1396 -0.7846
13419TIP3    H261673   0.531   3.146   1.637 -0.1629 -0.2678 -1.3270
13420TIP3   OH261674   2.166   0.045  12.787  0.0641 -0.8285 -0.6034
13420TIP3    H161675   2.124   0.114  12.838 -1.0715 -1.1504 -1.1021
13420TIP3    H261676   2.225   0.091  12.727  0.2643 -0.3727 -0.0591
13421TIP3   OH261677   2.581   5.104  13.252 -0.5018 -0.0246 -0.2451
13421TIP3    H161678   2.573   5.009  13.259  1.4188 -0.0864  1.5128
13421TIP3    H261679   2.603   5.120  13.160 -1.6908 -1.1963 -0.7440
13422TIP3   OH261680   2.781   2.416  11.597  0.1294  0.2839  0.3449
13422TIP3    H161681   2.846   2.486  11.608  2.1916 -1.4633 -0.4074
13422TIP3    H261682   2.831   2.335  11.608 -1.6489 -1.1504 -1.7592
13423TIP3   OH261683   1.364   1.226   1.049 -0.2662 -0.2562 -0.4234
13423TIP3    H161684   1.275   1.195   1.029 -0.7182  1.3129 -0.8977
13423TIP3    H261685   1.359   1.321   1.039  1.5428 -0.1764 -0.7349
13424TIP3   OH261686   2.293   0.521  12.249 -0.4883  0.6461 -0.1347
13424TIP3    H161687   2.313   0.603  12.203  2.4074  0.2441  0.3133
13424TIP3    H261688   2.298   0.545  12.342 -0.5761  0.1836 -0.0112
13425TIP3   OH261689   4.108   0.375  14.026  0.0351  0.0429 -0.0175
13425TIP3    H161690   4.061   0.373  14.110  0.9951 -1.7622  0.4950
13425TIP3    H261691   4.186   0.427  14.044 -0.9833  1.7919 -0.4836
13426TIP3   OH261692   2.200   4.095  15.594  0.8825 -0.2039  0.3539
13426TIP3    H161693   2.113   4.105  15.555  1.1213 -2.9914 -1.0238
13426TIP3    H261694   2.254   4.060  15.523  2.7812  0.1386  1.6009
13427TIP3   OH261695   2.538   4.024  11.306  0.4597  0.0156 -0.0258
13427TIP3    H161696   2.489   4.026  11.388  0.1049  1.4427 -0.2749
13427TIP3    H261697   2.629   4.037  11.333  0.3733  0.2377  0.1569
13428TIP3   OH261698   2.820   3.658   6.755  0.0490  0.1932  0.3852
13428TIP3    H161699   2.758   3.669   6.684 -0.5110  0.3646  0.8949
13428TIP3    H261700   2.818   3.742   6.801  0.1258 -0.0456  0.8234
13429TIP3   OH261701   4.561   3.136  14.149 -0.1695 -0.0623 -0.1121
13429TIP3    H161702   4.492   3.199  14.170  0.4791  0.0321  1.7812
13429TIP3    H261703   4.513   3.060  14.115 -1.3013 -0.3523  2.0507
13430TIP3   OH261704   4.663   1.680  16.026 -0.5503 -0.1441 -0.0116
13430TIP3    H161705   4.638   1.595  16.062 -2.5704  0.5702  0.3798
13430TIP3    H261706   4.705   1.659  15.943 -2.8435 -1.4872 -0.9068
13431TIP3   OH261707   0.880   4.929  14.016  0.5566 -0.4307 -0.1099
13431TIP3    H161708   0.901   5.022  14.005  0.1481  0.0373  2.8136
13431TIP3    H261709   0.790   4.921  13.985  0.2497  0.3473  0.5704
13432TIP3   OH261710   2.796   4.268   4.141  0.8972 -0.1053 -0.8303
13432TIP3    H161711   2.874   4.217   4.162  1.7406  1.6332  0.3540
13432TIP3    H261712   2.820   4.358   4.162 -1.9456  0.2639  1.0216
13433TIP3   OH261713   1.406   5.696   1.252 -0.0615  0.2142 -0.0686
13433TIP3    H161714   1.403   5.621   1.193 -2.0806 -0.0085  0.2907
13433TIP3    H261715   1.338   5.680   1.316 -0.5841  2.3879 -0.0223
13434TIP3   OH261716   6.656   0.246  16.982 -0.2017 -0.0737  0.0362
13434TIP3    H161717   6.751   0.240  16.991 -0.3406  0.8040  2.6293
13434TIP3    H261718   6.641   0.332  16.942  0.1083 -0.4532 -0.9072
13435TIP3   OH261719   6.429   4.934   4.149 -0.0996 -0.2078 -0.0281
13435TIP3    H161720   6.471   4.951   4.065  0.9123  0.8678  0.6769
13435TIP3    H261721   6.355   4.877   4.128  0.9041 -1.0080 -1.4673
13436TIP3   OH261722   0.379   6.771  11.964 -0.1597  0.2879 -0.3368
13436TIP3    H161723   0.331   6.853  11.970  1.1624  0.9905  1.1434
13436TIP3    H261724   0.461   6.794  11.920  0.1195 -0.2804 -0.1310
13437TIP3   OH261725   1.900   5.757  13.322 -0.7851  0.3868 -0.3255
13437TIP3    H161726   1.854   5.767  13.406 -0.4058  0.5930 -0.1395
13437TIP3    H261727   1.929   5.666  13.322 -1.6762  0.0975 -0.6934
13438TIP3   OH261728   3.612   2.590  12.878  0.0770  0.0724 -0.2189
13438TIP3    H161729   3.690   2.625  12.836 -0.8086  0.8143 -1.2743
13438TIP3    H261730   3.557   2.561  12.805  0.8492 -3.7253  0.6005
13439TIP3   OH261731   3.127   3.706   4.978  0.5199  0.4025 -0.1971
13439TIP3    H161732   3.143   3.617   4.948  0.5378  0.1896  0.4395
13439TIP3    H261733   3.065   3.742   4.914 -0.3194 -0.4148  0.1436
13440TIP3   OH261734   0.550   3.093  14.928 -0.1381  0.0966  0.0028
13440TIP3    H161735   0.621   3.036  14.959 -0.1411  0.4316  0.6241
13440TIP3    H261736   0.475   3.070  14.982 -0.0670  0.8796  0.4401
13441TIP3   OH261737   5.857   4.396  17.203 -0.1927  0.0052  0.4674
13441TIP3    H161738   5.843   4.407  17.109  0.3359 -1.7472  0.1699
13441TIP3    H261739   5.946   4.362  17.210  0.4269  1.8028  1.7381
13442TIP3   OH261740   3.013   0.989  16.468 -0.1816 -0.3149  0.0857
13442TIP3    H161741   3.040   1.069  16.424  0.8331 -1.1940 -0.9040
13442TIP3    H261742   3.004   1.014  16.560  0.3356  0.8764 -0.1826
13443TIP3   OH261743   2.882   0.218   5.456 -0.1357  0.2476  0.4543
13443TIP3    H161744   2.827   0.291   5.483 -0.2681  0.2060  0.2961
13443TIP3    H261745   2.832   0.174   5.388  0.5234  0.7869 -0.3827
13444TIP3   OH261746   3.707   1.692  16.288  0.3046 -0.3711 -0.3687
13444TIP3    H161747   3.737   1.681  16.378  0.9811  0.3042 -0.5157
13444TIP3    H261748   3.784   1.720  16.239 -0.1939 -0.1467 -1.0450
13445TIP3   OH261749   1.348   3.827  13.670  0.2821  0.2992  0.4068
13445TIP3    H161750   1.404   3.804  13.744 -0.2789  0.6542  0.9552
13445TIP3    H261751   1.281   3.884  13.708 -0.5252 -0.2220 -0.2114
13446TIP3   OH261752   2.850   3.206   4.354 -0.3198 -0.6706  0.4080
13446TIP3    H161753   2.801   3.146   4.297 -1.2940 -0.0558  0.5719
13446TIP3    H261754   2.928   3.228   4.303 -1.1031 -0.2511 -0.6583
13447TIP3   OH261755   6.772   0.164  14.130  0.2444 -0.7031  0.2096
13447TIP3    H161756   6.692   0.135  14.173  1.1972 -1.0537  1.7839
13447TIP3    H261757   6.821   0.084  14.112  0.4007 -0.4701 -0.4239
13448TIP3   OH261758   4.303   2.269  13.567  0.7326 -0.2563  0.4810
13448TIP3    H161759   4.268   2.333  13.504  0.1317 -0.8075  0.2376
13448TIP3    H261760   4.253   2.284  13.647 -1.6271 -2.4483 -0.4946
13449TIP3   OH261761   5.841   3.478  15.666 -0.5118 -0.2820 -0.3647
13449TIP3    H161762   5.905   3.463  15.736 -1.7184 -0.6598  0.6751
13449TIP3    H261763   5.883   3.542  15.608  0.8609 -0.6339  0.2191
13450TIP3   OH261764   0.494   1.168  10.830 -0.2996  0.0098 -0.0570
13450TIP3    H161765   0.546   1.245  10.856 -0.9204  0.1495  0.8047
13450TIP3    H261766   0.535   1.137  10.749 -0.2880  1.4986 -0.6439
13451TIP3   OH261767   2.851   1.284  13.209  0.0522 -0.0701 -0.4799
13451TIP3    H161768   2.846   1.379  13.197 -0.9507  0.0584  0.9008
13451TIP3    H261769   2.928   1.271  13.264 -0.4539  0.0284  0.2512
13452TIP3   OH261770   3.371   4.616   3.642 -0.4924 -0.4419 -0.1197
13452TIP3    H161771   3.319   4.589   3.718  1.1105 -1.6600  0.6041
13452TIP3    H261772   3.355   4.549   3.577 -1.2318  0.1643 -0.5666
13453TIP3   OH261773   0.649   5.259   3.681  0.0583  0.0285  0.5003
13453TIP3    H161774   0.690   5.274   3.766 -0.6810  3.1245  0.3662
13453TIP3    H261775   0.681   5.331   3.626 -2.9946  0.6275 -0.5480
13454TIP3   OH261776   4.586   2.823  11.505  0.0339 -0.1444 -0.0752
13454TIP3    H161777   4.517   2.837  11.571 -0.7662  1.8010 -1.2634
13454TIP3    H261778   4.660   2.790  11.555 -0.8035  0.6002  1.7155
13455TIP3   OH261779   2.543   2.925  11.404 -0.5890 -0.1588  0.4360
13455TIP3    H161780   2.493   2.909  11.324 -3.0582 -1.2958  2.1560
13455TIP3    H261781   2.545   2.841  11.449  0.6293  0.5100  1.6751
13456TIP3   OH261782   5.866   3.867  15.718 -0.0920 -0.5552  0.5014
13456TIP3    H161783   5.930   3.915  15.770  0.6194 -0.0827 -0.7979
13456TIP3    H261784   5.827   3.805  15.780  2.0985 -1.3252  1.1690
13457TIP3   OH261785   5.810   3.942  11.229 -0.1176  0.1610  0.0365
13457TIP3    H161786   5.834   3.925  11.138 -0.9143 -0.8147  0.0099
13457TIP3    H261787   5.832   3.861  11.275  1.8631  1.2257  1.0359
13458TIP3   OH261788   1.738   3.060   4.602  0.2510 -0.7982 -0.0511
13458TIP3    H161789   1.739   3.000   4.676  0.8690 -0.5952  0.1118
13458TIP3    H261790   1.661   3.034   4.551  0.8628 -2.1335 -0.3179
13459TIP3   OH261791   6.535   6.552  15.546  0.7091 -0.3055 -0.5701
13459TIP3    H161792   6.594   6.481  15.525  0.8321  0.1683 -1.8631
13459TIP3    H261793   6.587   6.613  15.599  0.2961 -1.6636  1.4848
13460TIP3   OH261794   3.579   4.647  16.280 -0.2652 -0.0036 -0.0326
13460TIP3    H161795   3.645   4.603  16.227  0.2630 -1.0758  1.5090
13460TIP3    H261796   3.546   4.580  16.340 -3.3954  0.2621 -1.3353
13461TIP3   OH261797   6.148   4.566   3.708 -0.2701 -0.7804 -0.2074
13461TIP3    H161798   6.161   4.473   3.689  0.1283 -0.8737  0.5083
13461TIP3    H261799   6.066   4.570   3.757 -0.0672 -0.8044  0.1361
13462TIP3   OH261800   0.539   5.033   0.753 -0.1798 -0.2599  0.0478
13462TIP3    H161801   0.619   5.017   0.803  0.7397 -0.5898 -1.5070
13462TIP3    H261802   0.569   5.048   0.663 -1.8772 -0.6669 -0.6114
13463TIP3   OH261803   0.165   4.004   3.690 -0.2551 -0.7989 -0.6419
13463TIP3    H161804   0.252   4.042   3.698 -0.0867 -1.1968 -0.5949
13463TIP3    H261805   0.139   4.022   3.600 -0.4594  0.0387 -0.4232
13464TIP3   OH261806   2.489   5.499   5.730 -0.6612  0.3520 -0.0977
13464TIP3    H161807   2.473   5.405   5.722 -1.9849  0.5893 -0.3309
13464TIP3    H261808   2.441   5.525   5.809  2.3700  0.2585  1.8579
13465TIP3   OH261809   6.589   1.435   4.267  0.1439 -0.2582  0.3207
13465TIP3    H161810   6.589   1.369   4.198 -3.5932 -0.4819  0.4403
13465TIP3    H261811   6.601   1.384   4.348  1.1199 -0.3490  0.1290
13466TIP3   OH261812   4.184   4.378   0.822  0.6635 -0.4153 -0.5480
13466TIP3    H161813   4.198   4.451   0.882 -3.0842  0.7184 -0.9488
13466TIP3    H261814   4.222   4.407   0.739  0.7084  0.3421 -0.2600
13467TIP3   OH261815   0.949   0.079   4.431  0.5203  0.0314 -0.2879
13467TIP3    H161816   0.952   0.086   4.526 -0.2022 -0.0207 -0.2625
13467TIP3    H261817   0.972  -0.012   4.413 -1.2188 -0.4632 -0.0667
13468TIP3   OH261818   4.931   4.988   4.555 -0.2819  0.4709  0.1777
13468TIP3    H161819   4.895   5.076   4.566  0.7400  0.8306  0.7406
13468TIP3    H261820   5.014   4.990   4.604  0.7669 -0.1671 -1.5533
13469TIP3   OH261821   5.061   0.699   5.686  0.2003  0.4225  0.1106
13469TIP3    H161822   5.125   0.629   5.676 -0.5188 -0.1860 -0.3154
13469TIP3    H261823   5.112   0.780   5.682  0.8782 -0.0387 -0.7054
13470TIP3   OH261824   5.447   6.333   0.465 -0.1207  0.0387 -0.1207
13470TIP3    H161825   5.463   6.307   0.556  1.3111 -0.8654 -0.6248
13470TIP3    H261826   5.460   6.428   0.465  1.1515 -0.1249  0.3566
13471TIP3   OH261827   3.963   5.404   1.534  0.4840  0.1155  0.2019
13471TIP3    H161828   3.991   5.352   1.609  0.5979  1.8077  1.3607
13471TIP3    H261829   4.004   5.362   1.459 -0.3480 -2.1230  0.9665
13472TIP3   OH261830   3.442   2.741   5.364  0.2680 -0.7664  0.1235
13472TIP3    H161831   3.416   2.827   5.397  1.3465  0.3399 -1.8355
13472TIP3    H261832   3.414   2.680   5.432 -2.8374  0.8643  0.3749
13473TIP3   OH261833   6.093   2.424  16.580 -0.0959 -0.2373  0.0219
13473TIP3    H161834   6.075   2.390  16.668 -0.5458  0.1601  0.0837
13473TIP3    H261835   6.054   2.511  16.580  0.2011 -0.1029 -0.4654
13474TIP3   OH261836   0.010   5.277  14.304 -0.3957  0.3460 -1.0482
13474TIP3    H161837  -0.074   5.239  14.275  0.0552 -0.9015 -0.7626
13474TIP3    H261838  -0.011   5.323  14.385 -1.1301  1.4797 -1.8724
13475TIP3   OH261839   4.812   2.182  12.759  0.3584 -0.2428  0.1405
13475TIP3    H161840   4.828   2.223  12.844  1.6074 -1.4236  0.4939
13475TIP3    H261841   4.834   2.250  12.696 -0.0309  0.4590  0.7527
13476TIP3   OH261842   2.197   0.230  10.749 -0.3878  0.1613 -0.1333
13476TIP3    H161843   2.270   0.189  10.794  1.0329  2.7868  0.0917
13476TIP3    H261844   2.238   0.280  10.678 -2.0721  0.6025 -0.8282
13477TIP3   OH261845   0.051   4.992   4.180  0.0536  0.4048 -0.8627
13477TIP3    H161846  -0.012   5.057   4.208  0.3451  0.3116  0.0150
13477TIP3    H261847   0.026   4.971   4.090 -0.5194  1.1359 -0.8727
13478TIP3   OH261848   0.783   6.234   4.532 -0.3221  0.1338  0.1171
13478TIP3    H161849   0.777   6.141   4.509  0.5627  0.2159 -0.4888
13478TIP3    H261850   0.809   6.235   4.623  0.6372 -0.2141 -0.1537
13479TIP3   OH261851   1.280   2.397  16.833 -0.5814  0.6174  0.0370
13479TIP3    H161852   1.366   2.356  16.830 -0.4247  0.7424  2.0513
13479TIP3    H261853   1.252   2.387  16.923 -1.4606  3.0315  0.0864
13480TIP3   OH261854   3.672   0.456   3.423 -0.3846 -0.4558  0.0070
13480TIP3    H161855   3.690   0.377   3.372 -1.6103 -1.8006  1.5730
13480TIP3    H261856   3.625   0.514   3.363  0.6119 -0.8907 -1.1843
13481TIP3   OH261857   5.379   4.526  13.616  0.8979  0.1629 -0.4595
13481TIP3    H161858   5.371   4.591  13.685 -1.4827  0.5843 -1.0870
13481TIP3    H261859   5.328   4.561  13.543 -0.1336 -2.2327 -0.9336
13482TIP3   OH261860   4.947   3.864  11.630  0.0441 -0.0462  0.1658
13482TIP3    H161861   4.969   3.953  11.605 -0.3368 -0.0467 -0.1746
13482TIP3    H261862   5.029   3.827  11.663  0.0883  0.5845  0.7698
13483TIP3   OH261863   6.564   5.308  10.815 -0.1241  0.3031  0.1339
13483TIP3    H161864   6.654   5.303  10.848  0.9207  0.6224 -2.5640
13483TIP3    H261865   6.558   5.236  10.752 -2.1360 -0.4404  1.1446
13484TIP3   OH261866   3.515   1.583   3.957 -0.0004 -0.7417 -0.4226
13484TIP3    H161867   3.464   1.540   3.888 -0.4638 -1.1645  0.1745
13484TIP3    H261868   3.605   1.553   3.943  0.0358 -0.2575 -1.2779
13485TIP3   OH261869   2.088   6.419   4.049  0.3261 -0.1427 -0.1219
13485TIP3    H161870   2.156   6.397   3.985  1.6065 -1.7812  1.7244
13485TIP3    H261871   2.131   6.477   4.111 -0.9796  1.6333 -0.8161
13486TIP3   OH261872   5.072   0.852  16.961 -0.4865  0.0925 -0.2339
13486TIP3    H161873   5.147   0.886  16.913 -0.3543 -1.1405 -0.9260
13486TIP3    H261874   5.035   0.784  16.904 -0.9164 -0.7118  0.9710
13487TIP3   OH261875   3.421   0.905   4.120 -0.2537  0.0224 -0.7953
13487TIP3    H161876   3.434   0.994   4.152 -2.2836  0.0498 -0.0166
13487TIP3    H261877   3.400   0.915   4.027 -0.7966  0.3623 -0.6306
13488TIP3   OH261878   4.100   3.451   2.296  0.5029 -1.0383  0.2802
13488TIP3    H161879   4.015   3.474   2.260  0.9555  1.9003  0.9570
13488TIP3    H261880   4.147   3.410   2.224 -1.4933 -2.8503 -0.0578
13489TIP3   OH261881   3.755   2.669   1.147  0.5784 -0.1202  0.1570
13489TIP3    H161882   3.755   2.755   1.190  0.3719  0.5546 -1.1810
13489TIP3    H261883   3.840   2.663   1.105  0.1303 -0.0648 -0.7561
13490TIP3   OH261884   2.809   2.085  13.608 -1.1162  0.1706 -0.2474
13490TIP3    H161885   2.881   2.148  13.605 -2.9784  2.4134  0.2618
13490TIP3    H261886   2.788   2.067  13.517 -2.4244  2.5608 -0.4597
13491TIP3   OH261887   4.037   3.480   4.815  0.6024  0.7882  0.6494
13491TIP3    H161888   4.024   3.519   4.728 -0.3769  2.4954  1.5300
13491TIP3    H261889   3.952   3.490   4.858 -0.0453 -3.3707  0.5578
13492TIP3   OH261890   5.263   5.809  12.252 -0.4913  0.0716 -0.3555
13492TIP3    H161891   5.275   5.726  12.206 -2.0957 -0.8839  0.9280
13492TIP3    H261892   5.232   5.785  12.339 -0.2709  1.9932  0.2864
13493TIP3   OH261893   1.863   5.246  12.928  0.4800  0.1316  0.2829
13493TIP3    H161894   1.868   5.293  13.011  1.6237  0.2209  0.1683
13493TIP3    H261895   1.873   5.314  12.861 -1.8728  0.2655  0.0216
13494TIP3   OH261896   4.180   3.429   4.364  0.8053  0.5962 -0.0489
13494TIP3    H161897   4.102   3.474   4.395  1.2900  1.6607 -0.3583
13494TIP3    H261898   4.221   3.491   4.303  0.6001 -0.8903 -1.7459
13495TIP3   OH261899   2.512   0.812   6.171 -0.0048  0.6416  1.2074
13495TIP3    H161900   2.439   0.849   6.221 -0.7063 -0.2003  0.8130
13495TIP3    H261901   2.555   0.752   6.232 -1.1763 -0.7855  0.6605
13496TIP3   OH261902   5.070   1.486   2.335  0.5867  0.1775 -0.0361
13496TIP3    H161903   5.106   1.473   2.423 -0.1976 -0.9424  0.1267
13496TIP3    H261904   5.146   1.504   2.281  1.2929 -1.0322  0.5244
13497TIP3   OH261905   6.620   0.584   1.806 -0.2434  0.3880  0.8308
13497TIP3    H161906   6.527   0.569   1.827 -0.0511 -0.1268  1.3449
13497TIP3    H261907   6.629   0.679   1.805 -0.8415  0.4428  0.5031
13498TIP3   OH261908   1.984   3.045   0.024 -0.5586 -0.5980 -0.4503
13498TIP3    H161909   2.028   2.974   0.072 -1.2055 -1.2232 -0.7616
13498TIP3    H261910   1.892   3.019   0.024 -0.6476 -0.2737 -1.4759
13499TIP3   OH261911   2.511   4.881   5.729 -0.1157 -0.0446  0.4297
13499TIP3    H161912   2.501   4.823   5.805  0.8155 -1.6301 -0.6139
13499TIP3    H261913   2.581   4.941   5.754  0.6543 -0.9946  0.5898
13500TIP3   OH261914   5.097   3.164  11.234  0.3559 -0.7093 -0.8017
13500TIP3    H161915   5.031   3.116  11.284 -0.8049  1.9654  0.2834
13500TIP3    H261916   5.176   3.160  11.289 -0.9214  2.2602  1.3858
13501TIP3   OH261917   2.963   0.572   2.973 -0.1632 -0.1603  0.0574
13501TIP3    H161918   2.959   0.574   3.068  0.2307 -0.2647  0.0800
13501TIP3    H261919   2.975   0.479   2.951 -0.6729 -0.1873 -0.1141
13502TIP3   OH261920   1.372   4.763  16.805  0.0119 -0.4215 -0.7140
13502TIP3    H161921   1.346   4.798  16.720  1.6493 -0.9366 -1.4537
13502TIP3    H261922   1.429   4.689  16.784  0.1509 -0.7794  0.8395
13503TIP3   OH261923   2.981   5.829  10.858 -0.8931  0.2314 -0.6567
13503TIP3    H161924   3.063   5.790  10.827 -0.8508  0.1034 -0.3834
13503TIP3    H261925   2.957   5.891  10.789  0.0303  1.1011 -0.1975
13504TIP3   OH261926   4.760   3.918  12.217  0.1934  0.1875  0.1465
13504TIP3    H161927   4.772   3.830  12.181 -1.6298 -0.4948  1.1256
13504TIP3    H261928   4.847   3.957  12.215  1.2124 -1.9819  0.5504
13505TIP3   OH261929   6.241   2.944  11.914 -0.3202 -0.3109  0.2992
13505TIP3    H161930   6.317   2.895  11.883 -0.5874 -0.5339 -0.0115
13505TIP3    H261931   6.235   3.019  11.854  0.6974  0.6790  1.3905
13506TIP3   OH261932   3.245   3.128   1.139 -0.1614  0.8216  0.5910
13506TIP3    H161933   3.173   3.139   1.077 -0.0851 -0.4249  0.2778
13506TIP3    H261934   3.279   3.217   1.152  1.1130  0.8992 -2.7269
13507TIP3   OH261935   2.151   1.251  11.463  0.1169 -0.2700  0.6404
13507TIP3    H161936   2.179   1.280  11.549  1.1668  0.0871  0.1882
13507TIP3    H261937   2.233   1.230  11.417 -0.3596  0.5893 -0.6320
13508TIP3   OH261938   1.534   0.686  14.152  0.0817 -0.1343  0.2203
13508TIP3    H161939   1.625   0.661  14.139  0.8714  2.4080  0.5533
13508TIP3    H261940   1.484   0.609  14.124  2.2749 -1.1857 -0.9830
13509TIP3   OH261941   5.473   1.354   4.373  0.1632  0.8392 -0.6263
13509TIP3    H161942   5.404   1.331   4.435  0.5142  2.0729  0.2227
13509TIP3    H261943   5.538   1.285   4.383 -0.5660  0.1035 -0.8598
13510TIP3   OH261944   0.911   3.831  12.345  0.2928  0.2650 -0.6460
13510TIP3    H161945   0.942   3.908  12.297 -0.7399  1.4135  0.4818
13510TIP3    H261946   0.941   3.845  12.434 -0.2155 -0.4767 -0.3579
13511TIP3   OH261947   4.279   0.763   4.528 -0.1517 -0.2678  0.2819
13511TIP3    H161948   4.300   0.786   4.619 -0.2698 -1.7620  0.7122
13511TIP3    H261949   4.208   0.699   4.536  0.4585 -1.0875 -0.8124
13512TIP3   OH261950   6.163   1.373  10.445  0.6268  0.1283 -0.0370
13512TIP3    H161951   6.108   1.446  10.473  2.2116  2.4617 -2.7551
13512TIP3    H261952   6.231   1.367  10.511  0.2728  0.8818  0.4000
13513TIP3   OH261953   2.957   2.302   0.976  0.3781 -0.3726  0.4247
13513TIP3    H161954   3.052   2.308   0.987  0.6109 -1.0448 -1.1087
13513TIP3    H261955   2.945   2.245   0.900 -1.1978  2.0592 -1.2317
13514TIP3   OH261956   1.143   3.881   4.273  0.3898 -0.2988 -0.3538
13514TIP3    H161957   1.066   3.826   4.287 -0.0478  0.0045 -1.5206
13514TIP3    H261958   1.178   3.852   4.189  0.6502  0.6099 -0.5636
13515TIP3   OH261959   1.921   2.400   3.722  0.0264 -0.2772  0.3530
13515TIP3    H161960   1.905   2.454   3.800  1.8853 -0.4091  0.8361
13515TIP3    H261961   1.875   2.318   3.741 -0.1140 -0.0532  1.0163
13516TIP3   OH261962   3.785   3.446  11.922  0.1109 -0.0734  0.7560
13516TIP3    H161963   3.742   3.378  11.973 -0.2500 -0.6851 -0.3448
13516TIP3    H261964   3.727   3.460  11.847  0.3992  1.1419  0.7533
13517TIP3   OH261965   3.578   6.079  16.521  0.3544  0.0483 -0.5490
13517TIP3    H161966   3.584   6.140  16.447 -0.3081  2.1695  1.0859
13517TIP3    H261967   3.602   6.132  16.597 -0.4423 -1.7069  0.9564
13518TIP3   OH261968   3.969   0.004   5.747  0.3502  0.5922  0.2056
13518TIP3    H161969   3.879  -0.013   5.775  0.9645 -1.9766  0.7768
13518TIP3    H261970   4.023  -0.044   5.809  2.0594  0.9282 -0.9808
13519TIP3   OH261971   1.329   1.566  10.851  0.0560 -0.6080 -0.3832
13519TIP3    H161972   1.270   1.518  10.908  0.7410 -0.8600  0.1133
13519TIP3    H261973   1.320   1.524  10.765 -1.2888  0.0433 -0.5659
13520TIP3   OH261974   0.759   0.955  13.552  0.1978 -0.9472 -0.4030
13520TIP3    H161975   0.834   1.010  13.528  0.5008 -0.8559  0.7129
13520TIP3    H261976   0.727   0.994  13.633 -0.2578 -1.7788 -0.1862
13521TIP3   OH261977   1.156   0.923   3.085  0.0590 -0.4909  0.8250
13521TIP3    H161978   1.115   1.004   3.114  0.7101  0.2847 -0.4009
13521TIP3    H261979   1.188   0.882   3.165  1.5664  1.4716  1.2566
13522TIP3   OH261980   5.207   4.988  11.515  0.0629  0.0812 -0.5644
13522TIP3    H161981   5.210   5.074  11.557 -0.9286  0.1202 -0.5680
13522TIP3    H261982   5.215   4.925  11.588  1.4983  0.1694 -0.6269
13523TIP3   OH261983   1.370   4.187   2.969  0.0220  0.1039 -0.9242
13523TIP3    H161984   1.350   4.214   2.879 -0.8753  0.6150 -0.5818
13523TIP3    H261985   1.366   4.092   2.967  0.4665  0.0961 -1.5320
13524TIP3   OH261986   5.492   5.253   4.145 -0.1394  1.1754 -0.2668
13524TIP3    H161987   5.553   5.314   4.103  1.8179  0.2652  1.1913
13524TIP3    H261988   5.541   5.171   4.151 -1.1861  0.6708  1.7417
13525TIP3   OH261989   1.493   3.211   4.836 -0.2271  0.5062  0.3303
13525TIP3    H161990   1.422   3.202   4.771  0.0586  0.2533  0.0510
13525TIP3    H261991   1.465   3.157   4.909 -0.3380  0.4359  0.2368
13526TIP3   OH261992   1.899   0.013  15.721 -0.1283  0.4281  0.8789
13526TIP3    H161993   1.897  -0.083  15.731 -0.5592  0.5194  1.7270
13526TIP3    H261994   1.979   0.030  15.672  2.2720 -0.0765  4.3953
13527TIP3   OH261995   2.567   4.390   0.634  0.2843  0.1261  0.2652
13527TIP3    H161996   2.484   4.420   0.669 -0.7570 -0.4425 -1.6381
13527TIP3    H261997   2.579   4.303   0.673 -0.4448 -0.1514 -0.1161
13528TIP3   OH261998   5.220   1.269   1.187  0.0649 -0.3144  0.2699
13528TIP3    H161999   5.289   1.281   1.122  0.8396  0.5767  1.2399
13528TIP3    H262000   5.176   1.189   1.161  0.3172  0.0739 -1.4024
13529TIP3   OH262001   5.103   4.724   4.818  0.0849 -0.3742 -0.0227
13529TIP3    H162002   5.069   4.797   4.870  0.5695 -0.4574  0.4200
13529TIP3    H262003   5.121   4.763   4.732 -1.7604 -0.4956 -0.4736
13530TIP3   OH262004   5.082   2.431   0.808  0.4055 -0.0001  0.3991
13530TIP3    H162005   5.066   2.346   0.766 -0.0055  0.7009 -0.8949
13530TIP3    H262006   5.151   2.413   0.872  1.1839 -1.0637 -0.7021
13531TIP3   OH262007   3.343   5.461   5.327 -0.1576  0.2863 -0.1555
13531TIP3    H162008   3.324   5.555   5.333 -0.5019  0.2143 -0.1279
13531TIP3    H262009   3.401   5.454   5.252  0.3145  0.5900  0.1755
13532TIP3   OH262010   5.423   6.636  16.090  0.4784 -0.8389 -0.6183
13532TIP3    H162011   5.490   6.592  16.038  0.7083  0.2028 -1.2268
13532TIP3    H262012   5.342   6.590  16.068  0.8209 -1.4062 -0.7115
13533TIP3   OH262013   5.507   5.792   1.680 -0.1606 -0.0977 -0.6380
13533TIP3    H162014   5.583   5.847   1.701  0.1991 -0.2289 -1.5745
13533TIP3    H262015   5.439   5.821   1.741  0.1190  1.1996 -0.9287
13534TIP3   OH262016   2.860   6.063   4.435  0.1463  0.3476  0.0963
13534TIP3    H162017   2.859   6.031   4.345  1.0026 -0.7646  0.4663
13534TIP3    H262018   2.945   6.105   4.445  0.5578 -0.6167  0.7407
13535TIP3   OH262019   2.058   5.549  13.600  0.7151  0.4793 -0.2101
13535TIP3    H162020   2.146   5.512  13.594  1.1586  1.5354 -0.2440
13535TIP3    H262021   2.020   5.534  13.513  2.0552  2.9904 -1.2635
13536TIP3   OH262022   1.174   2.680  13.223  0.5287  0.2207 -0.4319
13536TIP3    H162023   1.220   2.608  13.267  0.7810  1.2450  1.0083
13536TIP3    H262024   1.109   2.709  13.287 -0.9777 -0.0650 -1.7922
13537TIP3   OH262025   3.724   1.918   2.761  0.3469  0.1267  0.3159
13537TIP3    H162026   3.803   1.881   2.801  1.6443  1.0123 -1.3871
13537TIP3    H262027   3.735   2.013   2.769 -0.3023  0.2671 -0.4004
13538TIP3   OH262028   3.271   3.877  11.243  0.4667  0.3711 -0.2387
13538TIP3    H162029   3.184   3.837  11.235  0.2861  0.9221 -1.0754
13538TIP3    H262030   3.322   3.838  11.172  0.7666  0.4232 -0.0569
13539TIP3   OH262031   0.009   4.525  16.088  0.3818  0.4473  0.7767
13539TIP3    H162032   0.026   4.609  16.131  1.1663  0.1413  1.0761
13539TIP3    H262033   0.087   4.511  16.033 -1.1609  1.4573 -1.7536
13540TIP3   OH262034   0.253   6.680  13.804 -0.1265 -0.7529 -0.2112
13540TIP3    H162035   0.206   6.652  13.882 -0.0400 -0.4476 -0.0503
13540TIP3    H262036   0.202   6.752  13.769 -0.7731 -1.6102 -1.0595
13541TIP3   OH262037   6.126   4.759  15.912 -0.0032 -0.1213  0.2990
13541TIP3    H162038   6.166   4.826  15.856 -1.4272  0.9915  0.5820
13541TIP3    H262039   6.095   4.692  15.850 -0.3101  0.4193 -0.1344
13542TIP3   OH262040   0.572   4.346  11.615 -0.3272 -0.5201 -0.1073
13542TIP3    H162041   0.627   4.424  11.623 -0.4311 -0.6105  1.7845
13542TIP3    H262042   0.619   4.289  11.555  0.7032  0.2020 -0.0006
13543TIP3   OH262043   2.317   6.548  14.918  0.5121 -0.2862 -0.4800
13543TIP3    H162044   2.403   6.510  14.939  0.0895 -1.1096 -0.2327
13543TIP3    H262045   2.299   6.518  14.829  0.3755 -0.2990 -0.4478
13544TIP3   OH262046   3.804   2.387   5.971 -0.1172  0.3694 -0.2143
13544TIP3    H162047   3.755   2.465   5.997 -0.4300  0.5133 -1.2016
13544TIP3    H262048   3.878   2.421   5.920  2.1637  0.2942  2.8881
13545TIP3   OH262049   5.869   1.715  13.472  0.4797 -0.3970  0.1700
13545TIP3    H162050   5.934   1.774  13.433  1.0765 -1.1405  0.0164
13545TIP3    H262051   5.877   1.731  13.566 -0.9226  1.3573  0.0149
13546TIP3   OH262052   4.159   5.637  16.038  0.1776  0.3053 -0.4078
13546TIP3    H162053   4.192   5.551  16.065 -1.0334 -0.0453 -0.0226
13546TIP3    H262054   4.200   5.698  16.098  2.2635  0.1761 -1.6583
13547TIP3   OH262055   2.326   3.937  15.116 -0.2680 -0.6890 -0.6027
13547TIP3    H162056   2.286   3.854  15.094  0.0021 -1.0254  0.1616
13547TIP3    H262057   2.337   3.982  15.032  0.5854 -1.8692 -1.1384
13548TIP3   OH262058   4.018   2.392  16.910  0.1318 -0.0531  0.0933
13548TIP3    H162059   4.047   2.352  16.828 -0.0075  2.3911 -1.1706
13548TIP3    H262060   4.045   2.330  16.977  1.6925 -1.3229 -1.6566
13549TIP3   OH262061   1.696   1.506   4.244 -0.2053  0.3844  0.2386
13549TIP3    H162062   1.715   1.546   4.329 -0.6679  2.0092 -0.3968
13549TIP3    H262063   1.610   1.540   4.221 -0.0936 -0.0678 -0.8588
13550TIP3   OH262064   3.607   4.757  13.350 -0.2132  0.2853 -0.1822
13550TIP3    H162065   3.566   4.695  13.290 -1.1059 -0.7304  1.4430
13550TIP3    H262066   3.668   4.705  13.402 -0.1475  0.9555  0.4305
13551TIP3   OH262067   5.962   2.069   2.397  0.2875 -0.2169  0.0659
13551TIP3    H162068   5.910   2.127   2.453  1.0969  1.1773 -0.5896
13551TIP3    H262069   6.030   2.035   2.454 -0.3479 -0.7504  0.5186
13552TIP3   OH262070   3.520   5.109  14.819  0.4556 -0.3500 -0.1922
13552TIP3    H162071   3.456   5.068  14.761 -0.6192 -1.8051  1.9250
13552TIP3    H262072   3.495   5.202  14.820  0.0332 -0.4513 -1.4661
13553TIP3   OH262073   2.125   4.259  14.605  0.5436 -0.2865 -0.2208
13553TIP3    H162074   2.062   4.242  14.535  0.7355 -1.3975 -0.1280
13553TIP3    H262075   2.168   4.341  14.579  0.1439 -0.3392 -1.0644
13554TIP3   OH262076   0.631   1.535   0.754  0.1528  0.3959 -0.2993
13554TIP3    H162077   0.649   1.572   0.667 -1.0187  1.7382  0.0165
13554TIP3    H262078   0.563   1.469   0.738  0.3760  0.2071 -0.4817
13555TIP3   OH262079   1.500   5.766   5.655 -0.4255 -0.4227  0.1321
13555TIP3    H162080   1.568   5.809   5.708 -0.4686  1.0547 -0.9966
13555TIP3    H262081   1.495   5.819   5.575 -1.6906 -1.5427 -0.5352
13556TIP3   OH262082   0.815   4.035  14.353  0.0806  0.1845 -0.5587
13556TIP3    H162083   0.729   4.075  14.369  0.0013 -0.1989 -0.0376
13556TIP3    H262084   0.811   4.006  14.262 -0.4569 -0.1149 -0.4414
13557TIP3   OH262085   5.486   6.226  17.179  0.3990  0.2700  0.0831
13557TIP3    H162086   5.471   6.238  17.273  0.3390  0.0049  0.1065
13557TIP3    H262087   5.399   6.234  17.139  0.5916  1.7117 -0.0896
13558TIP3   OH262088   3.105   5.855   2.909 -0.4320 -0.3722  0.1400
13558TIP3    H162089   3.015   5.855   2.942 -0.8185 -1.4699 -0.9004
13558TIP3    H262090   3.108   5.929   2.848 -0.4266  0.0899  0.6918
13559TIP3   OH262091   4.781   3.959   3.142 -0.2307  0.1930  0.3808
13559TIP3    H162092   4.740   3.942   3.057  0.5279 -0.9025  0.2195
13559TIP3    H262093   4.710   3.955   3.205 -0.6502  0.0539 -0.1014
13560TIP3   OH262094   1.328   2.039   4.766 -0.0090  0.2658 -0.0943
13560TIP3    H162095   1.268   1.973   4.803 -0.5472  2.0432  2.3256
13560TIP3    H262096   1.271   2.110   4.737  0.8524  1.6339  1.5017
13561TIP3   OH262097   3.458   4.677  17.049 -0.1162  0.7528 -0.2798
13561TIP3    H162098   3.381   4.681  17.106  0.6210 -0.3215  0.8217
13561TIP3    H262099   3.503   4.761  17.063  0.2226  0.3709  0.9604
13562TIP3   OH262100   2.629   3.319  11.890  0.3063 -0.2414 -0.7703
13562TIP3    H162101   2.609   3.380  11.961  0.4806 -0.7130 -0.3086
13562TIP3    H262102   2.647   3.375  11.815  1.4840  0.3306 -0.0966
13563TIP3   OH262103   1.636   2.183   4.847 -0.0204  0.2219 -0.0180
13563TIP3    H162104   1.704   2.229   4.798 -1.1103  0.0559 -1.7512
13563TIP3    H262105   1.582   2.142   4.779 -1.8707  0.4192  1.3028
13564TIP3   OH262106   1.257   0.501   3.713  0.4884  0.7254 -0.1585
13564TIP3    H162107   1.313   0.576   3.697 -0.5288  1.6648  0.5854
13564TIP3    H262108   1.266   0.446   3.636  2.0447  1.1112 -0.2492
13565TIP3   OH262109   0.458   3.724  14.921  0.5725 -0.1635  0.1352
13565TIP3    H162110   0.477   3.637  14.885 -0.8208 -0.3215 -0.2394
13565TIP3    H262111   0.465   3.712  15.016 -3.7973 -1.7646  0.3546
13566TIP3   OH262112   3.993   3.946  16.338 -0.3850 -0.4802 -0.4876
13566TIP3    H162113   3.975   3.858  16.371  0.7933 -0.3051  0.6286
13566TIP3    H262114   4.088   3.954  16.340 -0.4554  0.6046 -1.1581
13567TIP3   OH262115   2.357   1.500  11.588  0.3397  0.2929 -0.2225
13567TIP3    H162116   2.274   1.495  11.635  0.9345  1.2777  0.9524
13567TIP3    H262117   2.391   1.411  11.590 -1.2081 -0.3694 -1.7005
13568TIP3   OH262118   0.625   0.150   0.529  0.2588  0.3981 -0.3442
13568TIP3    H162119   0.533   0.123   0.527  0.8945 -1.8037 -1.1125
13568TIP3    H262120   0.652   0.149   0.437  0.6035  2.6827 -0.2946
13569TIP3   OH262121   1.833   3.420   2.612  0.0562  0.5075  0.4153
13569TIP3    H162122   1.834   3.335   2.656 -0.2275  0.5173  0.4467
13569TIP3    H262123   1.813   3.483   2.682 -1.3160  0.4223  0.1269
13570TIP3   OH262124   4.068   1.111  15.047 -0.5832  0.3058 -0.3357
13570TIP3    H162125   4.125   1.165  15.101  0.6805 -2.6994  1.4917
13570TIP3    H262126   3.979   1.133  15.076  0.0421 -0.8549  2.6825
13571TIP3   OH262127   0.845   2.537   5.538  0.2184 -0.2083 -0.1021
13571TIP3    H162128   0.831   2.579   5.623  1.3796 -0.2339  0.1087
13571TIP3    H262129   0.814   2.602   5.474 -0.2156  0.0007  0.3227
13572TIP3   OH262130   1.220   5.650   0.116  0.4370 -0.4716 -0.1583
13572TIP3    H162131   1.197   5.631   0.025  2.0735  1.3354 -0.9907
13572TIP3    H262132   1.136   5.662   0.160 -0.3542 -0.4902 -1.6261
13573TIP3   OH262133   1.889   5.739   1.973  0.2031  0.3641  0.4591
13573TIP3    H162134   1.949   5.804   1.936  0.1567  0.2693  0.2100
13573TIP3    H262135   1.843   5.704   1.896 -1.5470  1.8179  0.8357
13574TIP3   OH262136   2.614   3.111  16.358  0.6923 -0.6177 -0.1426
13574TIP3    H162137   2.553   3.181  16.383  2.4005  0.9972 -0.4040
13574TIP3    H262138   2.638   3.069  16.440 -0.2706 -0.8360  0.0323
13575TIP3   OH262139   0.627   5.780  10.888  0.6713  0.0009  0.5887
13575TIP3    H162140   0.593   5.766  10.976  2.4055  1.1143  1.4636
13575TIP3    H262141   0.721   5.766  10.896  0.8503  0.1081 -1.0960
13576TIP3   OH262142   0.453   1.094   3.738  0.0286 -0.1360 -0.6264
13576TIP3    H162143   0.407   1.174   3.714  0.2219  0.1551 -0.0349
13576TIP3    H262144   0.396   1.051   3.801  0.8460  0.5457  0.6022
13577TIP3   OH262145   0.789   4.553  14.085  0.2390  1.0500 -0.3163
13577TIP3    H162146   0.770   4.611  14.012  2.6926  2.7195  0.2930
13577TIP3    H262147   0.819   4.612  14.155  2.0316 -0.8659  0.5796
13578TIP3   OH262148   2.447   1.942  13.786 -0.0487 -0.6170  0.4276
13578TIP3    H162149   2.408   2.019  13.827 -1.5559 -1.9008  1.4486
13578TIP3    H262150   2.460   1.968  13.695 -1.9027  0.3353  0.4185
13579TIP3   OH262151   2.898   0.279  10.715  0.3351  0.0290 -0.3174
13579TIP3    H162152   2.941   0.364  10.703 -1.6319  0.6622 -3.3903
13579TIP3    H262153   2.919   0.230  10.635 -1.5687 -0.9980 -0.2101
13580TIP3   OH262154   1.692   3.287   5.195 -0.5118  0.9316  0.1588
13580TIP3    H162155   1.741   3.367   5.208  1.4809 -0.3123  0.4369
13580TIP3    H262156   1.749   3.217   5.227 -1.1803 -0.8323 -2.2832
13581TIP3   OH262157   5.082   4.211   5.225  0.2940  0.3521  0.3650
13581TIP3    H162158   5.052   4.184   5.312 -1.5428  1.5985  0.1417
13581TIP3    H262159   5.008   4.259   5.188  0.6196 -1.2272 -2.3994
13582TIP3   OH262160   0.962   1.085   4.749 -0.3672 -0.3072 -0.1880
13582TIP3    H162161   0.956   1.009   4.692  0.3995 -0.4949 -0.0092
13582TIP3    H262162   0.885   1.078   4.806 -1.4659  0.1919 -1.5710
13583TIP3   OH262163   5.227   3.518   4.574  0.5173  0.2616 -0.0696
13583TIP3    H162164   5.178   3.598   4.596  1.2690  0.7587 -0.1889
13583TIP3    H262165   5.247   3.479   4.659 -0.0823  0.0536 -0.0190
13584TIP3   OH262166   5.300   3.950   4.766  0.0279 -0.0250  0.0687
13584TIP3    H162167   5.247   4.002   4.706 -2.9801 -0.8187  1.9433
13584TIP3    H262168   5.290   3.860   4.735 -0.9788 -0.3565  1.3093
13585TIP3   OH262169   5.497   3.426  12.835  0.3907  0.7102 -0.3672
13585TIP3    H162170   5.474   3.508  12.877  0.9510  0.6045  0.1419
13585TIP3    H262171   5.572   3.393  12.884 -0.3489 -0.5243 -0.0130
13586TIP3   OH262172   6.742   3.253  11.149 -0.3367 -0.5176  0.1417
13586TIP3    H162173   6.788   3.299  11.079 -0.3842 -1.2725 -0.3981
13586TIP3    H262174   6.692   3.321  11.194 -0.5525 -0.0783 -0.7581
13587TIP3   OH262175   3.305   1.727  16.164 -0.7876  0.0765 -0.2562
13587TIP3    H162176   3.259   1.692  16.087  0.1290  0.9205 -1.1982
13587TIP3    H262177   3.378   1.667  16.177 -0.6204  0.2469 -0.3968
13588TIP3   OH262178   6.223   1.273  12.480 -0.1640 -0.4350 -0.2208
13588TIP3    H162179   6.263   1.289  12.566 -1.8630  0.9045  0.3386
13588TIP3    H262180   6.270   1.197  12.446 -0.2573 -1.7374  2.4056
13589TIP3   OH262181   1.161   6.431   0.231 -0.4121  0.2729 -0.5868
13589TIP3    H162182   1.185   6.342   0.206  0.7715  0.5200 -0.3378
13589TIP3    H262183   1.238   6.484   0.210 -1.4470  1.4029 -1.6101
13590TIP3   OH262184   4.800   4.690   0.506 -0.1524  1.0417  0.4761
13590TIP3    H162185   4.875   4.694   0.446 -1.6163 -1.5234 -1.6472
13590TIP3    H262186   4.753   4.772   0.491 -0.6462  0.3189 -2.1356
13591TIP3   OH262187   1.456   4.909  12.679  0.0824 -0.2358 -0.0124
13591TIP3    H162188   1.517   4.861  12.622  0.3111  0.7394 -0.5952
13591TIP3    H262189   1.407   4.966  12.620 -3.2362 -2.8178  0.0454
13592TIP3   OH262190   2.921   5.383  12.350 -0.0374 -0.0111 -0.3953
13592TIP3    H162191   3.004   5.357  12.389 -0.9504 -1.6274  0.5698
13592TIP3    H262192   2.923   5.347  12.262 -0.2303 -1.1788  0.0678
13593TIP3   OH262193   6.434   5.687  15.291 -0.0443 -0.6273 -0.6694
13593TIP3    H162194   6.352   5.730  15.266 -0.3297  0.4675  1.9887
13593TIP3    H262195   6.413   5.594  15.294 -1.1640 -0.3682 -0.2007
13594TIP3   OH262196   0.917   3.528  12.803  0.5042  0.6776  0.4629
13594TIP3    H162197   1.001   3.560  12.836  0.7130  0.1491  0.4604
13594TIP3    H262198   0.870   3.497  12.881 -0.4069  2.5737  0.6799
13595TIP3   OH262199   4.479   3.360   0.895  0.3814 -0.3554 -0.0897
13595TIP3    H162200   4.503   3.302   0.967  1.2035  0.0723 -0.0146
13595TIP3    H262201   4.558   3.364   0.840  0.3066  0.6376 -0.1314
13596TIP3   OH262202   2.067   1.939  13.990  0.1660  0.7240 -0.1948
13596TIP3    H162203   2.079   1.926  13.896  1.1945  1.6888 -0.2096
13596TIP3    H262204   2.090   1.855  14.030 -0.0219  0.3944 -0.7828
13597TIP3   OH262205   2.090   5.485  15.138  0.4523  0.1978  0.0577
13597TIP3    H162206   2.064   5.448  15.054  1.6572 -0.2023 -0.1568
13597TIP3    H262207   2.161   5.427  15.168 -0.7485 -0.3521  1.8972
13598TIP3   OH262208   3.443   2.812  16.524 -0.6800 -0.3941  0.1570
13598TIP3    H162209   3.373   2.755  16.555 -0.2216 -0.6386  0.7500
13598TIP3    H262210   3.522   2.777  16.564 -0.0600 -0.7800 -1.4105
13599TIP3   OH262211   2.113   0.593   0.044  0.5701 -0.4273  0.2416
13599TIP3    H162212   2.021   0.572   0.032  0.2185  1.1878 -0.0120
13599TIP3    H262213   2.119   0.629   0.132  0.3800  2.3205 -0.8089
13600TIP3   OH262214   2.985   5.451   5.409 -0.4016 -0.3877 -0.0532
13600TIP3    H162215   3.001   5.531   5.359  1.2536  0.0093  1.0320
13600TIP3    H262216   2.913   5.473   5.468 -2.1080 -0.7439 -1.9506
13601TIP3   OH262217   5.366   2.273  14.320  0.6531 -0.0687 -0.3110
13601TIP3    H162218   5.431   2.326  14.365  0.5577 -1.4637  1.5236
13601TIP3    H262219   5.417   2.222  14.256  1.5738 -1.8128  1.7107
13602TIP3   OH262220   1.555   5.951  16.682 -0.5432 -0.2780 -0.5807
13602TIP3    H162221   1.520   5.962  16.771  0.0544 -0.8873 -0.2654
13602TIP3    H262222   1.535   6.033  16.638 -0.7284  0.0754  0.1553
13603TIP3   OH262223   2.986   2.099  13.076 -0.1304 -0.1994 -0.1453
13603TIP3    H162224   2.973   2.097  12.982  2.2787  0.6057 -0.5351
13603TIP3    H262225   2.957   2.186  13.103  1.5960  0.5263 -0.5626
13604TIP3   OH262226   1.631   4.321   2.819 -0.5671 -0.0608 -0.0281
13604TIP3    H162227   1.634   4.307   2.913 -0.2938 -1.1412 -0.1805
13604TIP3    H262228   1.585   4.244   2.785 -0.4205  0.1840 -0.7990
13605TIP3   OH262229   2.948   4.569   2.701 -0.0884 -0.3077  0.0908
13605TIP3    H162230   3.023   4.623   2.728 -0.7833 -0.5843  2.7330
13605TIP3    H262231   2.983   4.513   2.632  1.2063  1.9786 -1.1679
13606TIP3   OH262232   0.760   5.600  16.303 -0.0072 -0.5667 -0.1999
13606TIP3    H162233   0.773   5.586  16.209 -1.2205  1.3751 -0.6786
13606TIP3    H262234   0.723   5.517  16.335  1.6444 -1.7033 -1.1615
13607TIP3   OH262235   1.588   4.945   3.232 -0.0997 -0.0862  0.3914
13607TIP3    H162236   1.524   5.011   3.206  0.0825 -0.5479 -1.2726
13607TIP3    H262237   1.539   4.863   3.234  0.5208 -0.4965 -1.2350
13608TIP3   OH262238   2.953   4.441  13.681 -1.0954  0.1895 -0.4966
13608TIP3    H162239   3.036   4.426  13.635 -0.5576  1.9198 -0.1078
13608TIP3    H262240   2.975   4.429  13.774 -1.5836 -0.6643 -0.4895
13609TIP3   OH262241   3.294   2.212  15.137  0.3426  0.1855 -0.4635
13609TIP3    H162242   3.335   2.237  15.054 -1.2616  0.5870 -1.1371
13609TIP3    H262243   3.325   2.277  15.199 -0.0465  1.0702 -1.1895
13610TIP3   OH262244   3.929   4.938  12.868  0.2077 -0.5113 -0.3711
13610TIP3    H162245   3.958   4.922  12.779 -0.4102  2.2394 -1.1067
13610TIP3    H262246   4.001   4.986  12.909 -0.0646 -0.5857  0.1978
13611TIP3   OH262247   3.078   4.091   2.676 -0.9946  0.2194 -0.1997
13611TIP3    H162248   3.072   4.004   2.637  0.1769  0.3410 -0.6782
13611TIP3    H262249   3.005   4.140   2.638 -2.6082 -0.9827  1.2536
13612TIP3   OH262250   3.815   3.009   3.557  0.5921  0.0313 -0.1549
13612TIP3    H162251   3.824   2.939   3.493  0.7535  0.3984 -0.5340
13612TIP3    H262252   3.732   3.052   3.534 -0.8021 -1.5846  1.6084
13613TIP3   OH262253   1.741   5.840   5.798  0.2226 -0.6599 -0.6031
13613TIP3    H162254   1.802   5.855   5.726  1.5986 -1.4494  0.3617
13613TIP3    H262255   1.780   5.766   5.846 -0.5686 -0.0196  1.0383
13614TIP3   OH262256   6.394   0.687   3.672  0.2301 -0.2250  0.1900
13614TIP3    H162257   6.327   0.728   3.617 -0.6748  1.1254  2.2506
13614TIP3    H262258   6.435   0.759   3.719  2.0525 -1.2068  0.1652
13615TIP3   OH262259   3.316   6.051   5.819  0.7100 -0.0324  0.1694
13615TIP3    H162260   3.244   6.095   5.865  0.9960  0.2944  0.3013
13615TIP3    H262261   3.335   6.109   5.745 -0.0492 -0.7745 -0.6186
13616TIP3   OH262262   1.771   4.297   5.535  0.5365  0.9055  0.3113
13616TIP3    H162263   1.775   4.215   5.487 -0.0276  0.5634  0.8371
13616TIP3    H262264   1.820   4.280   5.616 -1.8019  0.2288  1.6411
13617TIP3   OH262265   3.742   1.459   3.987  0.2250  0.0098  0.4302
13617TIP3    H162266   3.837   1.468   3.982  0.4865 -1.6839  1.9224
13617TIP3    H262267   3.727   1.366   4.004 -1.7338  0.1278 -0.4864
13618TIP3   OH262268   3.910   0.395  13.202 -0.2161 -0.5116 -1.0281
13618TIP3    H162269   3.876   0.447  13.276 -0.4201 -1.1699 -0.6571
13618TIP3    H262270   3.934   0.311  13.241 -0.7502 -1.0296 -1.7928
13619TIP3   OH262271   4.221   1.480   5.294  0.2151 -0.3175 -0.3270
13619TIP3    H162272   4.234   1.394   5.334 -1.1218 -0.0823  0.6691
13619TIP3    H262273   4.280   1.481   5.219  0.9092 -1.7557  0.1771
13620TIP3   OH262274   5.129   0.036   2.819  0.2942 -0.1360 -0.3563
13620TIP3    H162275   5.143  -0.026   2.891  0.6129 -0.4976 -0.7254
13620TIP3    H262276   5.046   0.008   2.780  1.2937 -1.4207 -1.6076
13621TIP3   OH262277   0.443   2.114  16.617 -0.2246  0.4269 -0.7632
13621TIP3    H162278   0.368   2.054  16.621 -0.8295  1.1455 -1.1061
13621TIP3    H262279   0.403   2.201  16.615  0.6665  0.8924  0.7669
13622TIP3   OH262280   3.104   0.872   2.645 -0.2163  0.5831  0.5009
13622TIP3    H162281   3.189   0.911   2.628  0.4036 -0.5693  0.8803
13622TIP3    H262282   3.084   0.821   2.566 -1.3346  2.1596 -0.2776
13623TIP3   OH262283   4.254   2.683  15.776  0.0067 -0.4285 -0.3897
13623TIP3    H162284   4.257   2.723  15.689  0.4028  1.1389  0.3245
13623TIP3    H262285   4.279   2.754  15.835 -0.9975 -1.2791  1.0708
13624TIP3   OH262286   5.554   5.184  14.245 -0.2547 -0.2447 -0.3165
13624TIP3    H162287   5.584   5.249  14.308  1.5246 -1.8338  0.4958
13624TIP3    H262288   5.631   5.131  14.225 -1.0296 -0.4726 -3.0040
13625TIP3   OH262289   3.984   5.285  14.606 -0.3474 -0.6686 -0.4628
13625TIP3    H162290   3.918   5.275  14.538 -1.5905 -0.0675  0.6517
13625TIP3    H262291   3.972   5.209  14.663 -0.4306 -0.2730  0.0477
13626TIP3   OH262292   5.266   0.504   2.037 -0.2968  0.0844 -0.1783
13626TIP3    H162293   5.174   0.531   2.044 -0.4110  0.3010 -2.2329
13626TIP3    H262294   5.309   0.546   2.111 -2.0385 -0.8938  1.4624
13627TIP3   OH262295   1.453   6.363   4.037 -0.0700 -0.3775  0.4052
13627TIP3    H162296   1.523   6.301   4.015  0.1861 -0.4507  1.4049
13627TIP3    H262297   1.496   6.428   4.094  0.2682  2.1230 -2.5813
13628TIP3   OH262298   5.195   3.132   5.713  0.2089  0.6892 -0.2671
13628TIP3    H162299   5.138   3.175   5.777 -0.4063  0.9786 -1.0002
13628TIP3    H262300   5.148   3.053   5.688 -0.2247  1.3136 -1.4408
13629TIP3   OH262301   5.786   4.331  14.040 -0.5612  0.0641  0.4751
13629TIP3    H162302   5.755   4.359  14.126 -0.7017  1.9514 -0.1649
13629TIP3    H262303   5.759   4.401  13.981  0.5554 -0.6497 -0.9161
13630TIP3   OH262304   0.035   6.216  15.586  0.2035  0.0060  0.1941
13630TIP3    H162305   0.033   6.312  15.585 -1.0469 -0.0018  1.1704
13630TIP3    H262306   0.126   6.194  15.565  0.7114  1.4233  0.8298
13631TIP3   OH262307   2.266   4.987   0.892 -0.3074  0.3614 -0.3817
13631TIP3    H162308   2.318   4.938   0.827 -0.4852 -0.5029  0.1137
13631TIP3    H262309   2.327   5.005   0.963 -0.9231 -1.5868  0.6797
13632TIP3   OH262310   0.576   4.469   5.672 -0.0337 -0.0571 -0.1499
13632TIP3    H162311   0.622   4.496   5.752  1.8806 -0.4893 -1.0779
13632TIP3    H262312   0.539   4.550   5.637  1.3156  0.5675 -0.1808
13633TIP3   OH262313   1.482   4.809   1.889 -0.0581 -0.1287  0.0837
13633TIP3    H162314   1.447   4.786   1.975  0.6628  0.2813  0.4962
13633TIP3    H262315   1.480   4.905   1.887  1.9246 -0.0530  0.5115
13634TIP3   OH262316   0.308   6.699  14.229  0.1914 -0.6043 -0.1933
13634TIP3    H162317   0.372   6.763  14.259 -2.5154  2.0412  0.2426
13634TIP3    H262318   0.257   6.678  14.308 -2.0964  0.5680 -1.2885
13635TIP3   OH262319   1.004   5.929   2.536  0.1508  0.6375  0.1478
13635TIP3    H162320   1.004   5.841   2.498  1.4402  0.4613  0.5303
13635TIP3    H262321   1.012   5.987   2.461  1.2420  0.3456  0.0311
13636TIP3   OH262322   0.093   5.085   1.128  0.1431 -0.1529  0.5268
13636TIP3    H162323   0.080   4.994   1.156  0.7382 -0.8250 -1.2975
13636TIP3    H262324   0.104   5.079   1.033 -1.6181  2.0203  0.1498
13637TIP3   OH262325   1.473   3.973  11.696  0.3194 -0.2558 -0.0950
13637TIP3    H162326   1.404   4.025  11.737  0.2803 -0.9206  0.6839
13637TIP3    H262327   1.457   3.884  11.726  1.8099 -0.3376  0.4638
13638TIP3   OH262328   5.692   6.260   4.829 -0.0511  0.0871  0.2922
13638TIP3    H162329   5.670   6.276   4.921  1.1256  0.5295  0.5069
13638TIP3    H262330   5.764   6.320   4.811  0.8720 -1.2097 -0.4382
13639TIP3   OH262331   5.710   4.596  10.307 -0.5589  0.0910  0.0457
13639TIP3    H162332   5.678   4.637  10.226 -0.8418  1.0240  0.6239
13639TIP3    H262333   5.630   4.568  10.352 -0.3342 -1.7927 -0.7005
13640TIP3   OH262334   3.804   0.232   5.837  0.1491  0.2175 -0.2378
13640TIP3    H162335   3.766   0.265   5.919 -1.6472 -0.6880 -0.6796
13640TIP3    H262336   3.881   0.183   5.864  0.6443  1.5127  0.7483
13641TIP3   OH262337   2.601   6.646  15.783 -0.4262 -0.2503 -0.4215
13641TIP3    H162338   2.614   6.559  15.821 -0.5995 -0.7648 -1.5167
13641TIP3    H262339   2.671   6.654  15.718 -0.6158  0.3071 -0.5563
13642TIP3   OH262340   4.246   1.289  11.269  0.4638  0.5848 -0.4000
13642TIP3    H162341   4.156   1.301  11.237 -0.1266 -0.5441  0.7755
13642TIP3    H262342   4.236   1.265  11.361  1.9408 -0.0926 -0.3954
13643TIP3   OH262343   6.698   5.755   3.777 -0.0667  0.5234 -0.7527
13643TIP3    H162344   6.629   5.721   3.721 -0.0696  0.9786 -1.0283
13643TIP3    H262345   6.652   5.800   3.847 -0.0942 -1.1805  0.3599
13644TIP3   OH262346   0.135   0.889  12.708  0.3072 -0.0448 -0.2106
13644TIP3    H162347   0.219   0.850  12.685  0.5831  0.2769  0.2462
13644TIP3    H262348   0.156   0.974  12.746 -0.1491 -0.3885  0.8507
13645TIP3   OH262349   3.508   5.642   3.713  0.0200  0.2406 -0.1619
13645TIP3    H162350   3.523   5.554   3.748 -0.3045 -0.3398 -1.4537
13645TIP3    H262351   3.469   5.627   3.627  0.3460  1.6494 -0.5624
13646TIP3   OH262352   3.646   0.016   0.165 -0.0481  0.1379 -0.4974
13646TIP3    H162353   3.726   0.060   0.193  1.2242 -1.9031 -0.8278
13646TIP3    H262354   3.621   0.060   0.084 -0.6967  2.4444  0.9066
13647TIP3   OH262355   2.946   2.002   0.817  0.2292 -0.6906  0.5235
13647TIP3    H162356   3.041   1.997   0.827  0.4143  0.2318 -0.6835
13647TIP3    H262357   2.911   1.950   0.890  1.6271  0.2896  1.9235
13648TIP3   OH262358   4.906   4.513   1.397  0.4843 -0.1148  0.8315
13648TIP3    H162359   4.870   4.578   1.458  2.9237  0.1735  2.0372
13648TIP3    H262360   4.993   4.546   1.376 -0.0894 -0.5353 -2.3889
13649TIP3   OH262361   5.921   5.556   0.377  0.3209  0.2807  0.3116
13649TIP3    H162362   5.916   5.650   0.389 -0.6855  0.3496 -0.6420
13649TIP3    H262363   5.995   5.529   0.432  0.9419  1.6837  0.1810
13650TIP3   OH262364   6.708   0.042   5.566 -0.1561 -0.2090  0.6307
13650TIP3    H162365   6.672  -0.009   5.494 -0.1351 -0.6541  0.9325
13650TIP3    H262366   6.699   0.133   5.538 -1.0683 -0.3376  0.4961
13651TIP3   OH262367   3.970   3.509  13.049  0.6733 -0.1756  0.3906
13651TIP3    H162368   3.882   3.485  13.075  0.0263 -0.0170 -1.5534
13651TIP3    H262369   3.960   3.549  12.962  2.6713 -0.4139  0.0045
13652TIP3   OH262370   6.628   4.246  10.263 -0.4815 -0.3532 -0.2733
13652TIP3    H162371   6.565   4.315  10.241 -0.2687 -0.3873 -0.9780
13652TIP3    H262372   6.713   4.288  10.254 -0.3062 -0.9987 -1.7335
13653TIP3   OH262373   3.143   6.124  11.079  0.2759  0.2448  0.9905
13653TIP3    H162374   3.188   6.143  11.162 -1.6141  1.4923  1.7860
13653TIP3    H262375   3.087   6.049  11.099  0.9177 -0.3914  0.4156
13654TIP3   OH262376   5.406   1.066  16.618 -0.5286 -0.2980  0.0631
13654TIP3    H162377   5.399   1.160  16.636 -0.4143 -0.1858 -0.4920
13654TIP3    H262378   5.322   1.044  16.576 -1.0757 -0.6991  1.3303
13655TIP3   OH262379   5.781   0.037   0.858  0.3485  0.1080 -0.1783
13655TIP3    H162380   5.858   0.072   0.902  1.4370 -2.3840 -0.0561
13655TIP3    H262381   5.712   0.038   0.924  1.0492 -0.3572  0.5634
13656TIP3   OH262382   6.124   4.013   1.841  0.6460  0.1267 -0.4217
13656TIP3    H162383   6.094   4.103   1.827  0.0396  0.3905  2.2327
13656TIP3    H262384   6.132   4.005   1.937  0.1839 -2.8036 -0.5823
13657TIP3   OH262385   4.115   1.858  12.101 -0.8113  0.3534  0.0036
13657TIP3    H162386   4.163   1.925  12.150  0.5063 -0.9243  0.5203
13657TIP3    H262387   4.146   1.868  12.011 -1.2411  0.9697 -0.0780
13658TIP3   OH262388   3.630   3.461  16.313  0.0010 -0.0722 -0.3028
13658TIP3    H162389   3.666   3.391  16.259 -0.8058  0.6392 -1.8073
13658TIP3    H262390   3.706   3.511  16.342  0.3607  0.5824 -2.2736
13659TIP3   OH262391   1.981   1.922  16.903  0.2663 -0.0266 -0.0728
13659TIP3    H162392   2.013   1.866  16.832 -0.9083  2.9361 -3.1104
13659TIP3    H262393   2.057   1.977  16.926  0.3570 -0.2829  0.2426
13660TIP3   OH262394   4.137   5.415  13.826  0.2662  0.6156  0.1858
13660TIP3    H162395   4.195   5.452  13.759  1.5947  0.6758  1.3467
13660TIP3    H262396   4.174   5.328  13.844  0.2116  0.7978  1.2027
13661TIP3   OH262397   6.375   0.631   0.759  0.7810 -0.1915 -0.6610
13661TIP3    H162398   6.330   0.708   0.794  1.1973 -0.2075 -0.0772
13661TIP3    H262399   6.418   0.662   0.679 -1.6630 -0.5908 -2.1530
13662TIP3   OH262400   4.989   1.697  17.044  0.0965  0.2846  0.7401
13662TIP3    H162401   4.964   1.725  16.956 -1.5600 -0.2150  1.0239
13662TIP3    H262402   4.931   1.746  17.102  0.9383  0.3427  1.5380
13663TIP3   OH262403   6.485   1.729   5.723  0.0921  0.5224 -0.0938
13663TIP3    H162404   6.409   1.746   5.668 -2.5812 -0.5419  3.0591
13663TIP3    H262405   6.513   1.640   5.700 -0.4927  0.3944 -0.3044
13664TIP3   OH262406   3.724   5.233   3.828  0.2721  0.4558 -0.0636
13664TIP3    H162407   3.780   5.171   3.782 -2.5939 -0.3162 -2.7128
13664TIP3    H262408   3.694   5.186   3.905  1.1499 -0.0713 -0.0385
13665TIP3   OH262409   6.065   1.291  11.334 -0.0039  0.7729  0.3298
13665TIP3    H162410   5.989   1.256  11.380 -0.2778  2.2845  1.0925
13665TIP3    H262411   6.029   1.330  11.254 -0.0905  1.6936  0.8024
13666TIP3   OH262412   4.440   1.836  11.119 -0.2949 -0.8872  0.0386
13666TIP3    H162413   4.375   1.902  11.095  2.0467  1.7495  0.7562
13666TIP3    H262414   4.524   1.882  11.113  1.1979 -3.1327  2.8898
13667TIP3   OH262415   1.588   4.446   0.516 -0.2867  0.2744  0.2471
13667TIP3    H162416   1.596   4.479   0.605 -0.6979  0.3483  0.2586
13667TIP3    H262417   1.559   4.521   0.464  0.6911  0.4206 -0.0910
13668TIP3   OH262418   0.549   0.193   0.932  0.4265 -0.0671 -0.0728
13668TIP3    H162419   0.566   0.102   0.907 -0.7136 -0.4950  0.6489
13668TIP3    H262420   0.629   0.222   0.975  0.2619 -1.2260  1.0470
13669TIP3   OH262421   1.208   5.695  15.754 -0.6431  0.2039 -0.6099
13669TIP3    H162422   1.240   5.698  15.844  0.4264 -0.8665 -0.9470
13669TIP3    H262423   1.250   5.769  15.711 -1.0537  0.6395 -0.2798
13670TIP3   OH262424   1.177   6.481   4.222 -0.1715  0.7176  0.1695
13670TIP3    H162425   1.105   6.456   4.165 -0.7779  0.6046  0.9736
13670TIP3    H262426   1.153   6.446   4.308  1.1993  0.0060  0.2832
13671TIP3   OH262427   0.671   2.776   6.187 -0.0088 -0.6724 -0.2046
13671TIP3    H162428   0.696   2.848   6.245 -0.5270 -0.8377  0.2199
13671TIP3    H262429   0.587   2.803   6.150  0.5717 -0.3271 -1.2849
13672TIP3   OH262430   0.850   5.858  16.356  0.3925 -0.5410 -0.2216
13672TIP3    H162431   0.856   5.851  16.261 -2.7061 -1.4888 -0.3983
13672TIP3    H262432   0.797   5.783  16.383 -0.6594  0.9308  2.0067
13673TIP3   OH262433   3.665   3.709  12.054 -0.4564  0.0071 -0.0678
13673TIP3    H162434   3.732   3.650  12.019 -0.8476 -2.6326  3.4282
13673TIP3    H262435   3.582   3.664  12.036 -1.0214  1.1706 -0.4325
13674TIP3   OH262436   1.118   6.442  12.988  0.0254  0.1722 -0.3315
13674TIP3    H162437   1.161   6.364  12.952 -0.2834 -0.7898  1.3239
13674TIP3    H262438   1.039   6.452  12.935  0.6214  0.0095 -1.2667
13675TIP3   OH262439   1.890   5.731   4.035  0.1245 -0.7565  0.4998
13675TIP3    H162440   1.846   5.646   4.041 -3.1540  0.8053  0.0294
13675TIP3    H262441   1.948   5.722   3.959 -1.3633 -2.0937 -0.5339
13676TIP3   OH262442   5.512   0.964   5.209 -0.0246 -0.2367  0.4181
13676TIP3    H162443   5.588   1.005   5.166  1.1988  0.2507  2.9548
13676TIP3    H262444   5.440   1.026   5.193  1.2919  1.8552  2.2882
13677TIP3   OH262445   0.479   4.516   2.860 -0.5691 -0.1144  0.7205
13677TIP3    H162446   0.395   4.557   2.884 -0.0477  0.1707  2.1233
13677TIP3    H262447   0.489   4.445   2.923 -0.1199 -0.6410  0.0579
13678TIP3   OH262448   4.029   0.132  15.556 -0.3394  0.0239  0.1300
13678TIP3    H162449   4.008   0.198  15.622 -1.1498  0.3151 -0.4107
13678TIP3    H262450   3.967   0.061  15.573  0.7981 -0.7895  0.9688
13679TIP3   OH262451   6.470   5.142   0.220 -0.3675 -0.6666  0.2194
13679TIP3    H162452   6.475   5.049   0.242  1.3391 -0.7072 -0.2018
13679TIP3    H262453   6.421   5.182   0.291 -1.1619 -1.9052  0.3719
13680TIP3   OH262454   1.700   6.354  14.954 -0.4106  0.3710  0.2577
13680TIP3    H162455   1.768   6.418  14.972 -1.6394  2.0287 -0.8372
13680TIP3    H262456   1.654   6.345  15.038  0.1915  0.4136  0.5955
13681TIP3   OH262457   1.059   5.704  13.418 -0.0288 -0.4628  0.8562
13681TIP3    H162458   1.040   5.611  13.430  0.1756 -0.7541 -0.9983
13681TIP3    H262459   0.974   5.747  13.431 -0.5228 -1.0925 -0.2772
13682TIP3   OH262460   2.618   2.393   2.505 -0.1626  0.2858  0.5379
13682TIP3    H162461   2.533   2.349   2.498 -0.1728  0.4415 -0.3546
13682TIP3    H262462   2.681   2.322   2.509 -0.3741  0.1493  2.0091
13683TIP3   OH262463   5.021   1.389  16.004 -0.1698 -0.4923  0.2795
13683TIP3    H162464   5.113   1.369  16.022 -0.1840  0.9199  2.0555
13683TIP3    H262465   5.019   1.484  15.991 -1.5225 -0.3803  1.2604
13684TIP3   OH262466   5.398   6.627  14.946  0.1214  0.8997  0.6130
13684TIP3    H162467   5.313   6.672  14.939 -0.8583 -0.9800  0.1291
13684TIP3    H262468   5.416   6.596  14.857  1.4625  1.5094  0.6606
13685TIP3   OH262469   4.057   2.680  12.933 -0.1013 -0.2042  0.1268
13685TIP3    H162470   4.024   2.706  12.847  2.0134  0.5570 -0.4951
13685TIP3    H262471   4.050   2.758  12.987  0.2437 -0.1602  0.1121
13686TIP3   OH262472   5.919   1.814   4.905  0.5566  0.3612 -0.7867
13686TIP3    H162473   5.912   1.909   4.909  2.4581  0.4756  0.4575
13686TIP3    H262474   6.011   1.795   4.923  0.1924 -1.7202 -0.8887
13687TIP3   OH262475   4.457   2.911   6.604  0.3928 -0.1132  0.1633
13687TIP3    H162476   4.450   3.005   6.624 -0.4885 -0.3712  1.0794
13687TIP3    H262477   4.492   2.872   6.683 -1.6105 -0.9074  0.6866
13688TIP3   OH262478   4.787   4.307   6.280  0.2567  0.4248 -0.1091
13688TIP3    H162479   4.852   4.238   6.270  1.3404  1.3717  0.2784
13688TIP3    H262480   4.726   4.294   6.208  1.2859 -0.0288 -0.9055
13689TIP3   OH262481   5.379   3.001   6.217 -0.2309  0.0780 -0.0531
13689TIP3    H162482   5.440   3.061   6.259 -0.5662  0.0536  0.4781
13689TIP3    H262483   5.430   2.921   6.202  0.7322  1.0842 -2.4076
13690TIP3   OH262484   2.989   6.720  12.412 -0.7272  0.0686 -0.4468
13690TIP3    H162485   3.070   6.676  12.386 -0.7884 -0.9030  0.9308
13690TIP3    H262486   2.934   6.717  12.334 -0.1918 -1.0994 -0.7914
13691TIP3   OH262487   0.145   3.198  10.763  0.1104  0.2972  0.3185
13691TIP3    H162488   0.176   3.135  10.828 -1.9887 -0.0768  0.9900
13691TIP3    H262489   0.205   3.187  10.689  0.9944 -1.0611  1.2188
13692TIP3   OH262490   3.264   3.009  15.298 -0.0290 -0.1610 -0.4086
13692TIP3    H162491   3.333   2.946  15.317  1.4947  1.4401 -0.5408
13692TIP3    H262492   3.291   3.050  15.216 -1.4626  0.0623 -0.7939
13693TIP3   OH262493   0.744   2.827  16.624 -0.1149 -0.4438  0.4193
13693TIP3    H162494   0.677   2.806  16.559 -0.7860  1.4656  0.4793
13693TIP3    H262495   0.826   2.826  16.575 -0.8195  2.9582 -0.9409
13694TIP3   OH262496   3.512   2.386  13.934 -0.0367 -0.1633  0.3785
13694TIP3    H162497   3.507   2.481  13.936  1.2814 -0.0680 -0.6256
13694TIP3    H262498   3.591   2.365  13.984  1.7587 -0.5181 -2.5018
13695TIP3   OH262499   5.659   0.542   1.683 -0.6725  0.3598  0.4416
13695TIP3    H162500   5.713   0.620   1.699 -0.3264  0.1281  0.4015
13695TIP3    H262501   5.658   0.496   1.768  0.8999 -0.7047 -0.1009
13696TIP3   OH262502   0.996   5.393  16.713  0.2659  0.1480  0.3994
13696TIP3    H162503   0.979   5.435  16.628  0.3033 -1.3484 -0.3716
13696TIP3    H262504   1.080   5.351  16.702 -0.4333 -1.3383  0.6729
13697TIP3   OH262505   1.412   2.856  15.876  0.0307 -0.1956  0.5460
13697TIP3    H162506   1.347   2.885  15.940 -0.7459 -0.2947 -0.1921
13697TIP3    H262507   1.465   2.934  15.860 -1.8544  0.7919 -1.1815
13698TIP3   OH262508   4.618   1.051   5.018  0.2886  0.3863  0.3052
13698TIP3    H162509   4.634   1.143   4.998 -1.4868  0.8178  0.7587
13698TIP3    H262510   4.523   1.046   5.033  0.7605 -0.9450  3.1805
13699TIP3   OH262511   5.882   2.977  16.485  0.1079 -0.3268 -0.3354
13699TIP3    H162512   5.884   2.900  16.427 -0.8275 -0.7803  0.2152
13699TIP3    H262513   5.826   3.040  16.440 -1.3015 -0.9980  0.4444
13700TIP3   OH262514   4.063   1.644  13.661  0.2234  0.4067  0.4832
13700TIP3    H162515   4.127   1.623  13.593 -0.5706  1.3550 -0.5715
13700TIP3    H262516   4.088   1.731  13.692 -0.4359  0.7021  0.1950
13701TIP3   OH262517   0.750   4.978  15.188  0.5106 -0.3194 -0.0184
13701TIP3    H162518   0.765   4.998  15.095 -0.3934  0.5330  0.0102
13701TIP3    H262519   0.659   4.949  15.192  0.2967  0.4240  0.7158
13702TIP3   OH262520   4.777   2.620   2.408  0.2103 -0.0533  0.4371
13702TIP3    H162521   4.737   2.689   2.460  0.4570  0.0283  0.5226
13702TIP3    H262522   4.710   2.551   2.402 -0.0596  0.2242  0.2902
13703TIP3   OH262523   2.537   5.849  13.765 -0.1284  0.2418  0.6680
13703TIP3    H162524   2.585   5.830  13.846  1.1373  0.6068  0.0262
13703TIP3    H262525   2.446   5.828  13.785  0.3584 -0.8740  1.7982
13704TIP3   OH262526   2.751   3.758   3.829  0.2813  0.3967  0.5226
13704TIP3    H162527   2.770   3.851   3.831 -0.1375  0.4946  0.0887
13704TIP3    H262528   2.681   3.745   3.893  0.2623  0.3974  0.5019
13705TIP3   OH262529   2.802   0.656  16.321  0.1832 -0.1600  0.0180
13705TIP3    H162530   2.783   0.563  16.338  0.8429  0.1546  2.6844
13705TIP3    H262531   2.719   0.700  16.340  0.6824  0.0979  1.6717
13706TIP3   OH262532   2.303   3.401   2.138  0.2003 -0.2401  0.2011
13706TIP3    H162533   2.241   3.459   2.181  0.4004 -0.0410  0.2213
13706TIP3    H262534   2.337   3.345   2.208  0.0597 -0.3312  0.1949
13707TIP3   OH262535   1.525   2.816  11.635 -0.4307 -0.0892  0.0952
13707TIP3    H162536   1.603   2.853  11.678 -1.4984  1.4317  0.7563
13707TIP3    H262537   1.457   2.820  11.702 -1.6426  0.6124 -1.1590
13708TIP3   OH262538   1.158   0.208   6.268  0.2737 -0.0771 -0.1614
13708TIP3    H162539   1.223   0.278   6.276 -0.0551  0.1223  0.7652
13708TIP3    H262540   1.184   0.143   6.333 -1.9077  1.1612  2.0220
13709TIP3   OH262541   4.362   6.308   3.375 -0.2072 -0.3999 -0.2655
13709TIP3    H162542   4.286   6.294   3.430 -0.6218 -1.6955 -1.1540
13709TIP3    H262543   4.345   6.392   3.332 -0.8291 -0.3742  0.0222
13710TIP3   OH262544   2.224   1.256   3.576 -0.2007 -0.0186  0.0887
13710TIP3    H162545   2.302   1.201   3.582 -0.7554 -0.9544 -1.1965
13710TIP3    H262546   2.188   1.239   3.489 -0.8041  1.8151 -0.0618
13711TIP3   OH262547   6.220   0.589   1.078 -0.8453 -0.0432 -0.3140
13711TIP3    H162548   6.306   0.629   1.089 -1.4214  1.4330 -1.0454
13711TIP3    H262549   6.236   0.495   1.087  0.7371  0.2533  0.1533
13712TIP3   OH262550   0.196   1.535   3.261  0.9569  0.1257  0.0730
13712TIP3    H162551   0.142   1.597   3.211  1.4705  1.0841  0.6801
13712TIP3    H262552   0.280   1.579   3.271  1.2867 -0.6193  0.6355
13713TIP3   OH262553   3.586   3.459   3.009 -0.2143  0.9950  0.1774
13713TIP3    H162554   3.656   3.510   2.968 -1.0612  2.7889  0.9104
13713TIP3    H262555   3.592   3.480   3.102 -0.0193 -0.9472  0.6172
13714TIP3   OH262556   4.744   2.516   3.570 -0.0415  0.2828 -0.0626
13714TIP3    H162557   4.779   2.572   3.640 -0.1873 -0.3081  0.4937
13714TIP3    H262558   4.775   2.428   3.594  0.3324  0.1562 -1.0169
13715TIP3   OH262559   3.349   3.174   0.762 -0.0727 -0.5350  0.3002
13715TIP3    H162560   3.265   3.153   0.803 -0.9316  1.4244 -0.3971
13715TIP3    H262561   3.393   3.231   0.825 -0.6956  1.1393 -0.7443
13716TIP3   OH262562   3.040   2.227  14.325 -0.1242  0.0373  0.0676
13716TIP3    H162563   2.985   2.187  14.393  0.2271 -0.4904  0.0401
13716TIP3    H262564   3.107   2.276  14.374  0.3907 -0.7002  0.1047
13717TIP3   OH262565   0.673   2.031  15.945 -0.1975  0.3955 -0.2395
13717TIP3    H162566   0.579   2.040  15.928 -0.5572 -0.6431  1.1179
13717TIP3    H262567   0.678   1.998  16.035  1.4694  0.3521 -0.3344
13718TIP3   OH262568   5.630   6.309  13.522 -0.0893 -0.5606  0.1240
13718TIP3    H162569   5.560   6.348  13.470 -0.7235 -1.2143  0.4836
13718TIP3    H262570   5.591   6.230  13.559  0.3874 -0.1813  1.4691
13719TIP3   OH262571   3.943   2.067  14.690  0.1585 -0.1006 -0.1848
13719TIP3    H162572   3.970   2.156  14.713 -1.1777  0.7482 -1.8359
13719TIP3    H262573   4.003   2.042  14.620  0.5664 -0.5397  0.3133
13720TIP3   OH262574   5.812   6.452   2.747 -0.8348 -0.6292  0.6323
13720TIP3    H162575   5.816   6.458   2.842 -1.5334  1.0116  0.5625
13720TIP3    H262576   5.888   6.399   2.723  0.9481  1.3220  1.8809
13721TIP3   OH262577   1.765   3.606   2.798  0.2871 -0.2686  0.2425
13721TIP3    H162578   1.697   3.564   2.851  0.2905 -0.1335  0.3559
13721TIP3    H262579   1.732   3.694   2.782 -1.0364 -1.2254 -2.4444
13722TIP3   OH262580   3.597   3.900  11.778  0.0187 -0.3888  0.3178
13722TIP3    H162581   3.555   3.848  11.846  0.6658 -0.3963  0.7160
13722TIP3    H262582   3.533   3.968  11.756 -0.3765 -0.6718  0.5951
13723TIP3   OH262583   4.113   2.096  14.155 -0.1549  0.1755 -0.4078
13723TIP3    H162584   4.179   2.027  14.167  0.5326  0.8500 -0.2203
13723TIP3    H262585   4.163   2.171  14.123 -0.5588  1.2252  1.3485
13724TIP3   OH262586   0.403   6.432   2.459 -0.3962  0.5378  0.0516
13724TIP3    H162587   0.319   6.411   2.419 -0.0101  1.6805 -1.4164
13724TIP3    H262588   0.384   6.444   2.552 -1.2443 -2.5671  0.3318
13725TIP3   OH262589   0.699   4.255   2.212 -0.3478 -0.8558 -0.7152
13725TIP3    H162590   0.772   4.317   2.206  0.4439 -1.6574  0.2957
13725TIP3    H262591   0.623   4.309   2.231  0.0752 -0.0515 -1.2526
13726TIP3   OH262592   1.554   5.723  14.184 -0.1218 -0.3183  0.4994
13726TIP3    H162593   1.631   5.669  14.164 -0.4647 -1.1865  1.4622
13726TIP3    H262594   1.530   5.763  14.101  0.4747 -1.2277 -0.1181
13727TIP3   OH262595   3.035   3.432   4.420 -0.4938 -0.0593  0.3657
13727TIP3    H162596   2.951   3.406   4.459 -0.3581 -0.3636  0.4610
13727TIP3    H262597   3.030   3.527   4.413 -0.6249 -0.0217  0.9023
13728TIP3   OH262598   0.297   6.515   4.761  0.4589 -0.2017  0.1821
13728TIP3    H162599   0.245   6.557   4.692  1.4890  0.4768 -0.1939
13728TIP3    H262600   0.371   6.575   4.774  0.0401 -0.1131  2.1730
13729TIP3   OH262601   3.848   0.169   2.266  0.2494  0.3984 -0.2338
13729TIP3    H162602   3.923   0.219   2.236  0.1899  0.9853  0.5767
13729TIP3    H262603   3.807   0.224   2.334 -0.6797 -0.0764 -0.3903
13730TIP3   OH262604   1.895   2.643   6.483 -0.4235 -0.1958  0.8182
13730TIP3    H162605   1.980   2.599   6.477  0.3077  1.1969  0.8993
13730TIP3    H262606   1.903   2.719   6.426 -1.8377 -0.3862  0.3473
13731TIP3   OH262607   5.451   2.579  16.882 -0.0660 -0.1081 -0.0034
13731TIP3    H162608   5.410   2.601  16.799 -0.8949 -1.8753 -0.0682
13731TIP3    H262609   5.379   2.578  16.945  0.1246 -1.5422  0.2008
13732TIP3   OH262610   5.676   6.237  16.846  0.4455 -1.0670 -0.0207
13732TIP3    H162611   5.772   6.234  16.841  0.4179 -1.4253 -0.3125
13732TIP3    H262612   5.659   6.295  16.920  0.8951 -1.6629  0.5584
13733TIP3   OH262613   6.032   1.185   0.159  0.0476  0.1977 -0.3587
13733TIP3    H162614   5.946   1.226   0.167 -0.5169 -1.0467  0.0237
13733TIP3    H262615   6.018   1.112   0.099  0.9216  0.2223 -0.5960
13734TIP3   OH262616   1.035   4.084   4.481 -0.1892 -0.0077  0.9404
13734TIP3    H162617   0.948   4.068   4.516 -0.5013  0.5008  0.4169
13734TIP3    H262618   1.057   4.004   4.433 -1.5347  0.8948 -1.2589
13735TIP3   OH262619   0.360   1.333   3.665  0.4790 -0.3314  0.2189
13735TIP3    H162620   0.402   1.330   3.579 -2.7268 -0.1193 -1.4194
13735TIP3    H262621   0.368   1.424   3.693  1.3150 -0.3514  0.0456
13736TIP3   OH262622   0.506   4.653   3.385 -0.4299 -0.6884  0.1711
13736TIP3    H162623   0.512   4.705   3.465 -2.7015 -0.9609  0.5505
13736TIP3    H262624   0.462   4.572   3.413 -0.1301 -1.3093 -1.1234
13737TIP3   OH262625   2.952   4.959   1.386  0.1535 -0.1235  0.1144
13737TIP3    H162626   2.883   4.895   1.367  1.7938 -0.9375 -3.4754
13737TIP3    H262627   2.998   4.923   1.461 -1.4178 -1.1245  0.6170
13738TIP3   OH262628   0.920   0.865   4.243  0.0829  0.0421  0.2321
13738TIP3    H162629   0.946   0.773   4.248  0.1046  0.1602  2.9429
13738TIP3    H262630   0.988   0.906   4.189  0.0301 -1.5358 -1.0482
13739TIP3   OH262631   4.362   4.867   2.054  0.1553 -0.0702 -0.0348
13739TIP3    H162632   4.395   4.831   1.972  2.7232 -1.7168  1.6229
13739TIP3    H262633   4.408   4.950   2.065 -0.7683  0.5238 -0.6273
13740TIP3   OH262634   4.745   4.214   4.059 -0.8074  0.7410  0.4195
13740TIP3    H162635   4.823   4.168   4.026 -0.3213  1.6290  0.3051
13740TIP3    H262636   4.781   4.282   4.117 -1.4845  1.2873  0.2029
13741TIP3   OH262637   5.833   0.109  13.374  0.0581 -0.3876  0.2148
13741TIP3    H162638   5.832   0.109  13.469  0.3357 -0.2463  0.2176
13741TIP3    H262639   5.925   0.115  13.350 -0.1532  3.0822 -0.0489
13742TIP3   OH262640   4.341   5.621   5.748 -0.3074 -0.1562  0.3110
13742TIP3    H162641   4.355   5.528   5.768  2.5873  0.0565 -0.5630
13742TIP3    H262642   4.398   5.667   5.809 -0.1935  0.9660 -0.6383
13743TIP3   OH262643   6.382   5.836  11.431  0.2227  0.5668  0.5814
13743TIP3    H162644   6.447   5.826  11.362 -0.2799  2.3294 -0.1840
13743TIP3    H262645   6.434   5.845  11.511  0.8637  0.1809  0.2125
13744TIP3   OH262646   2.746   1.962   2.825  0.9837 -0.3899  0.6583
13744TIP3    H162647   2.833   1.922   2.824  1.4159  0.5162  1.3267
13744TIP3    H262648   2.758   2.046   2.869  0.0225  0.3519 -0.4547
13745TIP3   OH262649   5.989   1.300   2.613  0.2209 -0.2332 -0.6381
13745TIP3    H162650   5.934   1.343   2.548  0.8499  2.0186  0.3009
13745TIP3    H262651   6.027   1.225   2.565 -2.0115 -0.6468 -1.8539
13746TIP3   OH262652   6.288   0.565   6.382  0.1542 -0.4713 -0.2776
13746TIP3    H162653   6.359   0.627   6.398  2.9125 -3.8571  1.1078
13746TIP3    H262654   6.214   0.620   6.356  2.9049  3.2487 -0.6191
13747TIP3   OH262655   5.792   1.276   3.430  0.2768 -0.4948 -0.8285
13747TIP3    H162656   5.726   1.234   3.485  1.7376 -0.5643  0.9342
13747TIP3    H262657   5.869   1.220   3.439  1.3750  1.0063 -0.7562
13748TIP3   OH262658   1.939   3.302   1.833 -0.0308 -0.0894  0.2018
13748TIP3    H162659   1.898   3.373   1.881  0.5922 -0.0616  0.6994
13748TIP3    H262660   1.948   3.335   1.743  2.0337  1.2191  0.8574
13749TIP3   OH262661   1.821   1.175  16.356  0.1592  0.1698 -0.7129
13749TIP3    H162662   1.736   1.178  16.400  1.0003  2.0388  0.8883
13749TIP3    H262663   1.884   1.162  16.427  1.3690  0.7995 -1.6587
13750TIP3   OH262664   4.583   5.441  16.735 -0.3863  0.0292  0.0902
13750TIP3    H162665   4.674   5.424  16.710 -0.9753 -0.3031 -1.9343
13750TIP3    H262666   4.557   5.363  16.785  0.8428  0.7454  1.8948
13751TIP3   OH262667   3.181   6.512   1.723  0.5990  0.1728 -0.6447
13751TIP3    H162668   3.159   6.539   1.812  3.9502  1.9075 -0.2523
13751TIP3    H262669   3.165   6.418   1.722 -1.3195  0.4244  1.1765
13752TIP3   OH262670   4.259   3.952   0.189 -0.0853 -0.0608  0.5456
13752TIP3    H162671   4.181   3.897   0.193  0.1843 -0.5500 -0.6493
13752TIP3    H262672   4.263   3.994   0.274  0.1905 -2.5502  1.8057
13753TIP3   OH262673   2.506   5.983  16.708 -0.1428 -0.0128 -0.1768
13753TIP3    H162674   2.429   6.034  16.732  0.0499 -0.2186  0.9171
13753TIP3    H262675   2.518   5.999  16.615 -1.3578  0.2232 -0.2959
13754TIP3   OH262676   0.860   2.505  17.114 -0.0223 -0.0663  0.2130
13754TIP3    H162677   0.800   2.449  17.065  0.5032 -0.0278 -0.4900
13754TIP3    H262678   0.805   2.578  17.143 -0.3315 -0.0470 -0.3920
13755TIP3   OH262679   0.078   3.409  14.965 -0.1271 -0.1291 -0.3278
13755TIP3    H162680   0.082   3.438  14.874 -0.9885 -0.7099 -0.5604
13755TIP3    H262681   0.011   3.340  14.965  2.2694 -2.5382  0.1058
13756TIP3   OH262682   4.064   3.965  15.365 -0.4181  0.5697 -0.3966
13756TIP3    H162683   4.043   3.886  15.414  1.3994 -0.0826 -0.6282
13756TIP3    H262684   4.154   3.986  15.391 -0.3184  1.6352 -1.5470
13757TIP3   OH262685   1.298   0.126  16.979  0.1796  0.4186 -0.2337
13757TIP3    H162686   1.208   0.114  17.009  0.2742  1.8317  0.6681
13757TIP3    H262687   1.303   0.076  16.898 -1.5429  0.6454 -0.5048
13758TIP3   OH262688   5.398   5.726  12.881  0.4801 -0.8314  0.1661
13758TIP3    H162689   5.308   5.737  12.851  0.3720 -0.9570  0.4399
13758TIP3    H262690   5.444   5.803  12.849  0.0228 -0.2178  0.9803
13759TIP3   OH262691   4.413   4.208  11.263 -0.2859 -0.4655 -0.2845
13759TIP3    H162692   4.333   4.240  11.306  1.1535  2.8595  0.0800
13759TIP3    H262693   4.395   4.216  11.169 -0.7749 -0.8022 -0.2226
13760TIP3   OH262694   2.072   5.713  16.880 -0.4847 -0.5493  0.4522
13760TIP3    H162695   1.994   5.766  16.860 -0.8886 -1.5394 -0.6649
13760TIP3    H262696   2.129   5.773  16.929 -1.9256  0.1958  1.2652
13761TIP3   OH262697   3.353   3.775   5.412 -0.1403  0.2870 -0.0662
13761TIP3    H162698   3.312   3.826   5.482  0.9037  1.2967 -0.1697
13761TIP3    H262699   3.385   3.697   5.455  1.8666  1.6139  0.9072
13762TIP3   OH262700   5.462   1.338   2.432  0.1899  0.0943 -0.7584
13762TIP3    H162701   5.523   1.377   2.370 -1.6648  4.7698  0.1074
13762TIP3    H262702   5.416   1.271   2.382  2.6598 -0.1623 -2.7710
13763TIP3   OH262703   2.305   3.310  14.312  0.5890 -0.4160 -0.1133
13763TIP3    H162704   2.263   3.289  14.395  0.2800 -1.1611 -0.4487
13763TIP3    H262705   2.373   3.243  14.302 -0.1064 -1.0164 -0.9809
13764TIP3   OH262706   2.042   5.824  14.268  0.2611  0.3623 -0.3714
13764TIP3    H162707   1.986   5.755  14.234 -1.2855  1.3051  0.2109
13764TIP3    H262708   2.108   5.837  14.200  0.2626 -1.3169 -0.7027
13765TIP3   OH262709   3.353   1.029   1.941  0.1338 -0.0804  0.1370
13765TIP3    H162710   3.292   1.014   2.013 -0.5448 -1.0119 -0.6342
13765TIP3    H262711   3.312   1.100   1.890 -0.3979 -0.8223 -0.4765
13766TIP3   OH262712   4.137   5.015  12.165 -0.0332 -0.2966 -0.3648
13766TIP3    H162713   4.049   4.980  12.177  0.4030 -0.9458  1.0245
13766TIP3    H262714   4.175   4.962  12.095  0.5156 -2.4272  1.5139
13767TIP3   OH262715   1.641   2.260  13.281  0.2424  0.1641  0.3733
13767TIP3    H162716   1.691   2.179  13.270  1.0184  1.0667 -3.4323
13767TIP3    H262717   1.707   2.327  13.298  0.0742  0.7287 -1.0679
13768TIP3   OH262718   6.420   0.898   3.887  0.0651  0.3379 -0.1799
13768TIP3    H162719   6.501   0.879   3.934  0.6844  1.6772 -0.6677
13768TIP3    H262720   6.392   0.983   3.921 -0.6947  0.2654 -0.6110
13769TIP3   OH262721   3.740   5.088  16.822  0.4178 -0.5723  0.1336
13769TIP3    H162722   3.770   5.012  16.772 -0.5589 -0.6080 -0.4067
13769TIP3    H262723   3.758   5.162  16.764 -1.2025 -0.6621 -0.5145
13770TIP3   OH262724   4.986   2.592  15.191 -0.1113 -0.3903 -0.8572
13770TIP3    H162725   4.919   2.622  15.130 -0.8188 -2.1624 -0.9862
13770TIP3    H262726   5.004   2.502  15.164  0.4157 -0.8033  0.8258
13771TIP3   OH262727   6.643   4.508  16.900  0.6795 -0.1264 -0.0441
13771TIP3    H162728   6.727   4.470  16.924  0.5904 -0.8762 -0.8826
13771TIP3    H262729   6.666   4.592  16.860  0.9889 -0.0451  0.3070
13772TIP3   OH262730   2.436   2.595   2.377  0.2506  0.1391  0.3199
13772TIP3    H162731   2.519   2.623   2.338  0.5188  0.1458  0.8978
13772TIP3    H262732   2.436   2.635   2.464 -0.5551  0.4871  0.1609
13773TIP3   OH262733   4.980   6.757  13.710 -0.4760 -0.1311  0.2547
13773TIP3    H162734   4.930   6.677  13.726 -0.3411 -0.1894  0.3974
13773TIP3    H262735   4.915   6.821  13.683 -0.5435 -0.3775 -0.1696
13774TIP3   OH262736   4.158   1.249   4.767  0.2759 -0.3261 -0.0588
13774TIP3    H162737   4.200   1.293   4.693  1.8119 -0.1660  0.8842
13774TIP3    H262738   4.112   1.319   4.813 -0.0741 -0.2972 -0.4499
13775TIP3   OH262739   3.324   5.646  14.008 -0.0813 -0.2951  0.0562
13775TIP3    H162740   3.403   5.609  13.968 -0.1016 -1.4275  1.0217
13775TIP3    H262741   3.350   5.735  14.032  0.7843 -0.5169 -0.0182
13776TIP3   OH262742   1.067   1.107  14.314  0.2251 -0.1420 -0.5749
13776TIP3    H162743   1.101   1.065  14.235 -0.7533 -0.7035 -0.7046
13776TIP3    H262744   1.084   1.045  14.384 -0.3342 -0.3340 -0.6061
13777TIP3   OH262745   4.937   5.361   0.226  0.0378  0.4272  0.4188
13777TIP3    H162746   4.956   5.454   0.214  0.9972  0.3664  1.4521
13777TIP3    H262747   4.903   5.355   0.315 -0.5345 -0.1473  0.1705
13778TIP3   OH262748   3.182   1.160  16.700 -0.0145 -0.6356 -0.1059
13778TIP3    H162749   3.248   1.108  16.748  1.3022  0.9101 -0.1901
13778TIP3    H262750   3.119   1.185  16.767  1.0092  0.2476  0.5493
13779TIP3   OH262751   3.914   5.089   3.694 -0.2105  0.1887 -0.5369
13779TIP3    H162752   3.910   4.999   3.661 -1.3100  0.7713 -2.0927
13779TIP3    H262753   3.985   5.089   3.757  2.1352 -0.9724 -3.0844
13780TIP3   OH262754   4.000   6.743  16.134  0.0862  0.1200  0.1946
13780TIP3    H162755   3.987   6.826  16.180  0.4374  0.4331 -0.2716
13780TIP3    H262756   3.919   6.695  16.148 -0.5366  0.9786 -0.4296
13781TIP3   OH262757   0.231   6.485   2.685  0.2209  0.3940  0.6359
13781TIP3    H162758   0.197   6.552   2.744  0.9455  1.4663 -0.1493
13781TIP3    H262759   0.271   6.420   2.743 -0.1392  0.8229  1.3790
13782TIP3   OH262760   4.028   1.422   2.088 -0.4540 -0.1623 -0.5201
13782TIP3    H162761   4.033   1.390   2.178  0.2795  0.1338 -0.4542
13782TIP3    H262762   3.953   1.376   2.051  0.0713 -1.3300 -0.1724
13783TIP3   OH262763   6.072   1.794   4.143 -0.0791  0.1095  0.3797
13783TIP3    H162764   6.086   1.781   4.237  0.2016 -1.0165  0.1877
13783TIP3    H262765   6.144   1.851   4.116  0.7808 -0.8690  0.5484
13784TIP3   OH262766   0.409   0.210  11.459  0.5162  0.0535  0.3415
13784TIP3    H162767   0.368   0.296  11.457  0.7485  0.1604 -1.4005
13784TIP3    H262768   0.498   0.225  11.428  0.2522 -0.9372 -0.9722
13785TIP3   OH262769   1.039   0.253  16.673  0.0015  0.0816 -0.4312
13785TIP3    H162770   1.098   0.231  16.601  0.0634  1.9147 -0.9713
13785TIP3    H262771   1.073   0.204  16.748  1.7391  0.4994 -0.9221
13786TIP3   OH262772   2.134   0.843   0.775  0.1032 -0.4420  1.1473
13786TIP3    H162773   2.143   0.755   0.810 -0.4864 -0.8619  0.2684
13786TIP3    H262774   2.075   0.833   0.700 -2.2983  1.1322  2.7546
13787TIP3   OH262775   4.321   3.211  13.177  0.2433  0.0393 -0.0208
13787TIP3    H162776   4.253   3.210  13.110  0.5719 -0.1382 -0.3490
13787TIP3    H262777   4.279   3.175  13.255 -0.3764  0.9919  0.0982
13788TIP3   OH262778   3.618   5.105  14.520 -0.3704 -0.0049  0.2243
13788TIP3    H162779   3.592   5.166  14.589 -0.0819 -0.3097  0.6031
13788TIP3    H262780   3.535   5.074  14.483 -0.5594 -1.1745  1.6126
13789TIP3   OH262781   5.711   3.972  12.720 -0.6252 -0.2826 -0.1863
13789TIP3    H162782   5.656   3.894  12.730  0.4241 -1.0657 -0.3048
13789TIP3    H262783   5.652   4.041  12.692 -1.8136 -0.7017  1.2249
13790TIP3   OH262784   2.870   1.200   5.610  0.4611  0.3449  0.8505
13790TIP3    H162785   2.953   1.211   5.563 -0.2412  0.1776 -0.4572
13790TIP3    H262786   2.891   1.137   5.679  1.1103 -0.8027 -0.3453
13791TIP3   OH262787   2.505   2.886   3.535  0.0750 -0.0093  0.4297
13791TIP3    H162788   2.532   2.864   3.446 -0.6193 -1.3332  0.5283
13791TIP3    H262789   2.421   2.931   3.525  1.1432  2.0068  0.2765
13792TIP3   OH262790   0.489   5.229  14.748 -0.4383  0.2077 -0.3699
13792TIP3    H162791   0.432   5.161  14.784  0.5361  0.7588  2.3963
13792TIP3    H262792   0.430   5.299  14.722 -1.3417 -1.1056 -1.9192
13793TIP3   OH262793   1.773   3.105   1.165 -0.5280 -0.7430 -0.4095
13793TIP3    H162794   1.855   3.154   1.161 -1.1742  0.5537  1.7652
13793TIP3    H262795   1.799   3.016   1.189  0.0430  0.3448  3.2276
13794TIP3   OH262796   4.331   0.209   3.149 -0.0334  0.2667 -0.2235
13794TIP3    H162797   4.380   0.232   3.070  0.0787 -0.9698 -0.5272
13794TIP3    H262798   4.334   0.113   3.152  1.6312  0.3333  2.3410
13795TIP3   OH262799   3.164   2.750   0.615  0.1756 -0.2318 -0.3865
13795TIP3    H162800   3.198   2.744   0.705 -2.1950  0.4373  0.6198
13795TIP3    H262801   3.129   2.839   0.609 -0.0854 -0.4275 -1.8370
13796TIP3   OH262802   5.485   3.016   2.846  0.2037  0.1373 -0.3628
13796TIP3    H162803   5.533   2.934   2.837 -0.2046 -0.1077 -0.3545
13796TIP3    H262804   5.441   3.028   2.762  0.8646  0.7374 -0.6225
13797TIP3   OH262805   4.072   4.916   1.043  0.0242 -0.2973 -0.1064
13797TIP3    H162806   3.981   4.923   1.071 -0.7055  0.2347 -2.4800
13797TIP3    H262807   4.115   4.865   1.112 -1.8369  0.2618  1.5144
13798TIP3   OH262808   2.137   4.411   1.202  0.1692  0.0961  0.0366
13798TIP3    H162809   2.061   4.456   1.166  0.5566  0.1234 -0.7648
13798TIP3    H262810   2.207   4.476   1.199  0.2048  0.1113  0.8856
13799TIP3   OH262811   2.092   6.556   5.498  0.2524  0.5720  0.5329
13799TIP3    H162812   2.070   6.620   5.566  0.9443  0.9399  0.4164
13799TIP3    H262813   2.126   6.481   5.547  0.4611  0.7167  0.6108
13800TIP3   OH262814   3.592   2.338   0.299  0.0197 -0.0664  0.6389
13800TIP3    H162815   3.527   2.361   0.365 -0.2465  2.2967 -0.4014
13800TIP3    H262816   3.671   2.385   0.325  0.7482 -1.3627  0.8090
13801TIP3   OH262817   1.948   6.230   1.406 -0.1539  0.4263  1.0649
13801TIP3    H162818   2.035   6.236   1.444  0.3805  1.9401 -0.3510
13801TIP3    H262819   1.950   6.290   1.332 -1.7475 -1.1347 -0.2668
13802TIP3   OH262820   5.021   6.701   6.486  0.3585 -0.6589  0.1856
13802TIP3    H162821   5.019   6.650   6.405 -1.2997 -0.9103  0.3663
13802TIP3    H262822   5.108   6.742   6.487 -0.0623  0.3649 -2.3509
13803TIP3   OH262823   2.786   3.882  11.944  0.2533  0.6239  0.1966
13803TIP3    H162824   2.784   3.924  11.858  0.0592 -2.9368 -1.6554
13803TIP3    H262825   2.707   3.913  11.988  0.3364  2.4649 -0.8994
13804TIP3   OH262826   4.254   6.047   4.474 -0.0380 -0.1965  0.1233
13804TIP3    H162827   4.289   5.975   4.422  1.2504 -0.1943  0.9507
13804TIP3    H262828   4.218   6.108   4.410 -0.6065 -1.2855 -0.6158
13805TIP3   OH262829   3.540   0.392   4.555  0.0942 -0.3547 -0.1853
13805TIP3    H162830   3.588   0.469   4.524  0.5413 -0.3258  0.5765
13805TIP3    H262831   3.608   0.330   4.582 -0.2351 -1.3799 -1.6374
13806TIP3   OH262832   4.068   1.349   0.367 -0.6978  0.0468 -0.4432
13806TIP3    H162833   4.100   1.280   0.309 -1.5701  0.4075 -1.3621
13806TIP3    H262834   4.045   1.421   0.308 -0.0235  1.0396  0.4824
13807TIP3   OH262835   2.484   4.055  13.205  0.0953  0.3626  0.6783
13807TIP3    H162836   2.527   3.993  13.264 -0.0186 -0.5161 -0.1349
13807TIP3    H262837   2.555   4.098  13.158  0.3162  2.9534  3.2544
13808TIP3   OH262838   2.486   3.682  11.256  0.2951  0.1463 -0.2344
13808TIP3    H162839   2.448   3.707  11.172  0.1142  1.1757  0.1426
13808TIP3    H262840   2.455   3.749  11.317 -0.1936 -1.0193  0.8133
13809TIP3   OH262841   3.621   3.513   0.080  0.3210 -0.4504  0.1423
13809TIP3    H162842   3.571   3.507   0.161 -0.5858  0.7346 -0.3206
13809TIP3    H262843   3.591   3.439   0.028  0.6995 -1.0495  0.7689
13810TIP3   OH262844   0.568   2.193  13.782 -0.1145 -0.3465  0.4809
13810TIP3    H162845   0.654   2.200  13.823  0.7824 -1.8453 -1.1001
13810TIP3    H262846   0.557   2.100  13.763 -1.3501  0.0513 -0.8726
13811TIP3   OH262847   6.494   0.605   2.674  0.2406  0.3959  0.1526
13811TIP3    H162848   6.551   0.529   2.674 -1.2330 -0.7308 -0.4854
13811TIP3    H262849   6.483   0.627   2.582  0.5796  1.3490  0.3247
13812TIP3   OH262850   6.452   1.065  11.885 -0.3129  0.0188 -0.1315
13812TIP3    H162851   6.523   1.064  11.821  0.6218  0.6947  0.8940
13812TIP3    H262852   6.455   0.979  11.926 -0.7111 -0.3018 -0.7686
13813TIP3   OH262853   5.849   5.685  15.789  0.3156 -0.4204  0.5010
13813TIP3    H162854   5.924   5.640  15.827  1.4752  1.1577  0.1685
13813TIP3    H262855   5.773   5.641  15.826  1.3981 -0.3999  2.8903
13814TIP3   OH262856   4.958   0.897   5.300 -0.1184 -0.6176 -0.3329
13814TIP3    H162857   4.879   0.844   5.290 -0.2129 -0.4634 -0.3966
13814TIP3    H262858   5.013   0.873   5.225 -0.7492  0.4062 -1.1385
13815TIP3   OH262859   3.875   2.785  15.376  0.2012 -0.4400 -0.5342
13815TIP3    H162860   3.872   2.794  15.281  0.8183  2.3951 -0.3086
13815TIP3    H262861   3.851   2.871  15.409  1.3180 -1.0330  1.8928
13816TIP3   OH262862   3.406   4.415  14.014  0.0849 -0.2063 -0.2530
13816TIP3    H162863   3.480   4.354  14.014 -1.0185 -1.5849 -0.9864
13816TIP3    H262864   3.361   4.398  14.097  0.2652  0.2125 -0.0713
13817TIP3   OH262865   3.255   2.166  13.483  0.0957 -0.4288  0.1181
13817TIP3    H162866   3.339   2.163  13.529 -0.8004  1.5414  1.9654
13817TIP3    H262867   3.190   2.153  13.552 -1.2610  2.2483 -0.5728
13818TIP3   OH262868   3.365   2.675  15.768 -0.1502  0.2110  0.1095
13818TIP3    H162869   3.392   2.629  15.847  1.3377 -0.9181 -1.0194
13818TIP3    H262870   3.336   2.761  15.798 -0.8690 -0.6804  2.0115
13819TIP3   OH262871   6.460   2.401  13.078  0.0964 -0.4904 -0.1993
13819TIP3    H162872   6.549   2.437  13.072 -0.1540  0.4754  1.4818
13819TIP3    H262873   6.409   2.453  13.017 -0.2069  1.9504  2.0261
13820TIP3   OH262874   4.657   5.983  12.592 -0.1086  0.3419 -0.1290
13820TIP3    H162875   4.629   5.895  12.567  0.3660 -0.0501  0.6772
13820TIP3    H262876   4.742   5.994  12.549  0.7460 -0.3629  1.3474
13821TIP3   OH262877   4.386   5.436   1.503  0.2098 -0.5925 -0.2718
13821TIP3    H162878   4.387   5.412   1.410  0.1365 -1.2784 -0.0971
13821TIP3    H262879   4.359   5.357   1.548  0.5817 -0.3614  0.3676
13822TIP3   OH262880   3.437   5.375  14.802  0.4806 -0.3794 -0.3598
13822TIP3    H162881   3.456   5.453  14.749 -1.7717 -0.3000 -1.1313
13822TIP3    H262882   3.451   5.403  14.892  1.7412  0.2943 -0.7652
13823TIP3   OH262883   1.976   5.093  16.298 -0.2009  0.1817 -0.0755
13823TIP3    H162884   2.071   5.083  16.298 -0.2703 -0.6880 -0.9378
13823TIP3    H262885   1.950   5.079  16.389  0.6133  1.8370  0.4374
13824TIP3   OH262886   4.116   5.272   5.412  0.5928 -0.2526  0.1412
13824TIP3    H162887   4.047   5.307   5.468  0.6712  1.4860 -0.8042
13824TIP3    H262888   4.168   5.216   5.470 -0.6211 -0.2506  1.2595
13825TIP3   OH262889   3.783   2.518   4.568 -0.0679  0.2366  0.3649
13825TIP3    H162890   3.738   2.482   4.644 -0.9010  1.9714  0.7177
13825TIP3    H262891   3.730   2.490   4.493 -1.0909  1.2799  0.6884
13826TIP3   OH262892   1.091   3.503  12.521  0.0363 -0.3563  0.1709
13826TIP3    H162893   1.159   3.534  12.461  0.2466 -0.0187  0.5867
13826TIP3    H262894   1.060   3.582  12.565 -0.5464 -0.5214  0.0719
13827TIP3   OH262895   1.390   5.916   0.164  0.3293  0.0007 -0.5206
13827TIP3    H162896   1.404   5.833   0.209 -1.1111 -1.0391 -1.9621
13827TIP3    H262897   1.446   5.912   0.087  2.3105  1.5170  0.7955
13828TIP3   OH262898   4.987   3.127  15.082  0.1457 -0.1789  0.6091
13828TIP3    H162899   4.981   3.181  15.160 -0.7832 -0.2469  0.5951
13828TIP3    H262900   4.900   3.088  15.073  0.6123 -1.1640  0.2525
13829TIP3   OH262901   3.406   5.186  15.471 -0.1401 -0.1967 -0.2422
13829TIP3    H162902   3.450   5.238  15.404 -0.0121 -1.7734 -1.4121
13829TIP3    H262903   3.421   5.235  15.553  0.8712  1.0398 -1.1438
13830TIP3   OH262904   0.022   2.874   3.043 -0.5413  0.4426 -0.1437
13830TIP3    H162905   0.108   2.883   3.084 -0.5777  1.1824 -0.2215
13830TIP3    H262906   0.041   2.855   2.951 -0.4532  0.7479 -0.1916
13831TIP3   OH262907   0.635   2.636   4.683 -0.5863  0.2385  0.0761
13831TIP3    H162908   0.611   2.631   4.591  0.8972 -1.0677 -0.2572
13831TIP3    H262909   0.564   2.686   4.724 -1.0780  1.1148 -1.8138
13832TIP3   OH262910   0.230   3.478  14.515 -0.7602  0.1261  0.2867
13832TIP3    H162911   0.169   3.482  14.589 -1.1266 -0.8495  0.0528
13832TIP3    H262912   0.211   3.393  14.474  2.1802 -1.1322  1.4146
13833TIP3   OH262913   0.992   0.544   5.067 -0.3204 -0.1558 -0.2871
13833TIP3    H162914   0.938   0.512   4.995  2.5661 -1.1598 -2.1061
13833TIP3    H262915   0.998   0.638   5.054  0.6202 -0.3999 -1.7102
13834TIP3   OH262916   0.508   6.289  16.861  0.3578  0.0427  0.0256
13834TIP3    H162917   0.502   6.201  16.898 -0.1123 -0.6841 -1.7318
13834TIP3    H262918   0.591   6.290  16.814 -0.8354 -0.3453 -2.1379
13835TIP3   OH262919   1.685   0.046   1.677 -0.1789  0.4067 -0.4111
13835TIP3    H162920   1.701  -0.023   1.742  0.7385  0.0067 -1.0469
13835TIP3    H262921   1.769   0.057   1.633 -0.6645  1.0283 -1.1937
13836TIP3   OH262922   4.859   3.186   1.317 -0.2181  0.1059  0.1035
13836TIP3    H162923   4.834   3.274   1.345 -1.3371  0.2125 -1.1751
13836TIP3    H262924   4.848   3.132   1.395 -3.1652  0.4286 -0.0354
13837TIP3   OH262925   6.632   6.462  14.493  0.1091 -0.1705  0.0714
13837TIP3    H162926   6.619   6.400  14.420 -1.1616  0.7471 -0.5130
13837TIP3    H262927   6.719   6.443  14.526 -1.0525 -3.7401  1.3020
13838TIP3   OH262928   4.386   2.132  13.022  0.6081  0.0723  0.5452
13838TIP3    H162929   4.397   2.201  13.087  0.3983  1.2985 -0.6898
13838TIP3    H262930   4.312   2.080  13.054  1.6139 -0.3923  2.1585
13839TIP3   OH262931   1.836   1.701  15.496  0.5651 -0.0299 -0.2004
13839TIP3    H162932   1.758   1.647  15.492  1.3776 -1.5192  2.6080
13839TIP3    H262933   1.906   1.645  15.463  1.0736  0.0071  0.8075
13840TIP3   OH262934   4.824   3.857  16.638 -0.0558 -0.2457 -0.3384
13840TIP3    H162935   4.814   3.776  16.688  1.8032 -0.6223 -0.5239
13840TIP3    H262936   4.881   3.912  16.692 -1.0015  0.8101 -0.3855
13841TIP3   OH262937   4.947   5.630   0.189  0.4536 -0.1708  0.2854
13841TIP3    H162938   4.993   5.709   0.159  1.3157 -1.3555 -1.5820
13841TIP3    H262939   4.885   5.611   0.118 -1.0523 -0.1402  1.5622
13842TIP3   OH262940   1.388   2.464  16.545  0.4935  0.0700  0.0091
13842TIP3    H162941   1.313   2.488  16.599  2.7904  2.1517  2.3654
13842TIP3    H262942   1.386   2.368  16.544 -0.7742  0.0337  2.0720
13843TIP3   OH262943   3.371   4.107  11.772 -0.5720  0.1106  1.0662
13843TIP3    H162944   3.416   4.184  11.806 -1.7426  1.6063 -0.6326
13843TIP3    H262945   3.345   4.058  11.849 -1.1788  2.2273  2.2636
13844TIP3   OH262946   1.352   1.837   2.442  0.8259 -0.3052 -0.2534
13844TIP3    H162947   1.271   1.789   2.454 -0.5651  1.9715 -0.1349
13844TIP3    H262948   1.418   1.785   2.488 -0.7637 -1.6306  0.5732
13845TIP3   OH262949   0.710   1.156  12.439  0.0497 -0.3058 -0.2214
13845TIP3    H162950   0.737   1.136  12.349 -1.0596 -1.4220 -0.3175
13845TIP3    H262951   0.656   1.234  12.431  1.0134  0.3602 -0.3561
13846TIP3   OH262952   2.607   0.462  11.959  0.1003  0.2052 -0.5554
13846TIP3    H162953   2.652   0.504  12.033 -0.0353  1.2761 -1.0722
13846TIP3    H262954   2.674   0.457  11.890  0.1868 -0.6665 -0.4070
13847TIP3   OH262955   0.519   1.764  12.093  0.0885 -0.0642  0.5140
13847TIP3    H162956   0.518   1.853  12.129 -0.1087 -0.3325  1.1657
13847TIP3    H262957   0.612   1.739  12.095  0.2398  0.3873 -0.3273
13848TIP3   OH262958   0.491   5.559  14.515 -0.3005  0.3657 -0.7523
13848TIP3    H162959   0.439   5.638  14.527 -0.0107  0.4591 -0.0644
13848TIP3    H262960   0.436   5.502  14.462 -1.0170  0.5484 -0.2195
13849TIP3   OH262961   4.488   2.613   3.650  0.0174 -0.0681  0.5334
13849TIP3    H162962   4.554   2.552   3.617  1.5441  3.4785 -3.4395
13849TIP3    H262963   4.405   2.581   3.614  0.5730 -0.7287 -0.1805
13850TIP3   OH262964   3.240   4.664  14.210 -0.3407  0.0419 -0.5992
13850TIP3    H162965   3.150   4.631  14.209 -0.2121 -0.4107  0.9749
13850TIP3    H262966   3.294   4.585  14.205 -0.0326  0.3220 -1.6898
13851TIP3   OH262967   3.554   6.470  13.993 -0.0119 -0.7774 -0.1255
13851TIP3    H162968   3.515   6.556  14.009 -0.5245 -0.9678 -0.3426
13851TIP3    H262969   3.479   6.412  13.980  0.3314 -1.2896  0.1950
13852TIP3   OH262970   4.378   3.023  11.397  0.1376 -0.5424  0.1940
13852TIP3    H162971   4.464   3.009  11.436  1.3248  0.4743 -1.9649
13852TIP3    H262972   4.367   2.950  11.335 -0.5066 -0.5970  0.3624
13853TIP3   OH262973   0.456   2.386  17.179  0.5254 -0.4562  0.2453
13853TIP3    H162974   0.487   2.408  17.091 -1.4443 -0.9111 -0.5901
13853TIP3    H262975   0.498   2.451  17.235  0.2302  1.1522 -1.3108
13854TIP3   OH262976   4.968   2.661  11.339  0.2801 -0.6382  0.4932
13854TIP3    H162977   4.905   2.730  11.358  1.0038 -0.1839  1.3111
13854TIP3    H262978   5.016   2.692  11.262  0.0581 -0.6062  0.3675
13855TIP3   OH262979   0.103   5.002   5.960 -0.1625  0.0122 -0.2094
13855TIP3    H162980   0.164   4.933   5.935 -0.2230 -0.3028  0.4934
13855TIP3    H262981   0.157   5.081   5.966 -0.0415 -0.0298 -0.7371
13856TIP3   OH262982   1.226   3.755   2.172 -0.5901 -0.3136 -0.2745
13856TIP3    H162983   1.177   3.813   2.230 -0.5052 -0.0637 -0.4498
13856TIP3    H262984   1.318   3.770   2.194 -0.5957 -0.7766  0.0489
13857TIP3   OH262985   2.899   6.318  15.004  0.5222  0.4369  0.4132
13857TIP3    H162986   2.853   6.317  15.088  0.1110 -0.9458  0.1943
13857TIP3    H262987   2.948   6.236  15.003 -0.4760 -0.1698 -1.2258
13858TIP3   OH262988   0.511   1.395  10.623 -0.1935 -0.6718  0.3473
13858TIP3    H162989   0.435   1.406  10.565 -0.9052 -1.9108  0.9971
13858TIP3    H262990   0.581   1.366  10.566 -0.6400 -0.9815 -0.0531
13859TIP3   OH262991   6.468   5.292  12.503  0.3066 -0.2240  0.2096
13859TIP3    H162992   6.505   5.208  12.529  0.4417  0.1862  1.3544
13859TIP3    H262993   6.430   5.327  12.583 -0.3784  0.4879 -0.4201
13860TIP3   OH262994   0.889   6.455   5.153 -0.1529 -0.0843  0.1943
13860TIP3    H162995   0.866   6.457   5.246 -0.8552  0.0764  0.0216
13860TIP3    H262996   0.840   6.528   5.115  0.5481  0.1735 -0.2071
13861TIP3   OH262997   3.530   5.860  10.802 -0.1151  0.7065  0.2098
13861TIP3    H162998   3.474   5.937  10.811  1.5187  1.9247  0.2961
13861TIP3    H262999   3.613   5.885  10.843  0.7434 -0.7756 -0.5411
13862TIP3   OH263000   2.857   2.052   1.286  0.2334  0.4268 -0.6678
13862TIP3    H163001   2.888   1.961   1.282 -0.1888  0.2661 -0.4107
13862TIP3    H263002   2.771   2.049   1.244  0.4038  0.7920 -1.0425
13863TIP3   OH263003   6.555   4.427  17.142  0.1105 -0.3633  0.2213
13863TIP3    H163004   6.525   4.514  17.168  0.5006 -0.5788  1.4344
13863TIP3    H263005   6.584   4.438  17.052  1.5575  1.1028  0.8451
13864TIP3   OH263006   4.113   4.455   5.560 -0.2313  0.2468  0.1792
13864TIP3    H163007   4.199   4.485   5.532 -1.0805  0.6948 -2.1365
13864TIP3    H263008   4.130   4.379   5.615  1.6690  0.9642  0.6285
13865TIP3   OH263009   2.946   4.248  12.815 -0.3046 -0.3145  0.6576
13865TIP3    H163010   2.943   4.342  12.831  0.4873 -0.3640  1.1151
13865TIP3    H263011   2.863   4.228  12.770 -0.2777  0.6703  0.1618
13866TIP3   OH263012   1.418   4.215  13.260 -0.1943  0.0539  0.0585
13866TIP3    H163013   1.362   4.235  13.336 -0.0637  0.5595  0.0197
13866TIP3    H263014   1.416   4.295  13.208 -0.3036 -0.3062 -0.4856
13867TIP3   OH263015   6.107   1.043  15.284  0.0196  0.2066  0.6842
13867TIP3    H163016   6.034   1.088  15.327 -0.5125  1.0975 -1.1210
13867TIP3    H263017   6.173   1.112  15.271 -0.1229  0.1016 -0.5921
13868TIP3   OH263018   3.636   6.562  11.700  0.5124  0.5602 -0.0625
13868TIP3    H163019   3.725   6.590  11.722  0.9958 -1.0568  0.0402
13868TIP3    H263020   3.581   6.636  11.729  1.6868  1.0127  1.0854
13869TIP3   OH263021   4.878   0.205   1.878  0.0021 -0.0142  0.2523
13869TIP3    H163022   4.946   0.254   1.832 -0.7404  1.5944  0.8325
13869TIP3    H263023   4.925   0.158   1.947  0.5929  0.6366  0.2925
13870TIP3   OH263024   5.054   6.101   2.645  0.0178 -0.2170  0.1333
13870TIP3    H163025   5.056   6.028   2.707 -1.5168  0.5918  1.1739
13870TIP3    H263026   5.143   6.136   2.646  0.3993 -1.1892  0.7013
13871TIP3   OH263027   0.459   2.636   0.102 -0.2997  0.3544  0.3394
13871TIP3    H163028   0.439   2.654   0.194 -0.5146 -1.1653  0.6108
13871TIP3    H263029   0.374   2.644   0.057 -0.4747 -0.4175  0.5311
13872TIP3   OH263030   2.480   2.437  15.232 -0.2583  0.0423  0.3659
13872TIP3    H163031   2.407   2.498  15.242 -0.3092 -0.1083  0.9374
13872TIP3    H263032   2.543   2.464  15.299 -0.5754 -0.9531  1.0629
13873TIP3   OH263033   2.907   1.456  11.822  0.1000  0.0380 -0.2568
13873TIP3    H163034   2.943   1.544  11.807  3.5044 -1.2769 -0.4277
13873TIP3    H263035   2.976   1.411  11.872 -2.0759 -2.1945  0.8340
13874TIP3   OH263036   4.829   1.132  12.412  0.4722 -0.0488  0.0871
13874TIP3    H163037   4.910   1.159  12.455  0.2647  1.9505 -0.6905
13874TIP3    H263038   4.837   1.166  12.322 -2.5865  3.1519  0.9103
13875TIP3   OH263039   2.509   2.642  12.260 -0.2795  0.3870 -0.2886
13875TIP3    H163040   2.505   2.694  12.180  1.5109 -1.0476 -1.3448
13875TIP3    H263041   2.436   2.580  12.252 -0.3062  0.4653 -0.6669
13876TIP3   OH263042   4.614   4.089  16.926  0.3943 -0.0388  0.2257
13876TIP3    H163043   4.692   4.034  16.923  0.2359 -0.2014 -1.6437
13876TIP3    H263044   4.616   4.130  17.013  1.5033 -1.5426  0.9213
13877TIP3   OH263045   2.418   2.996   2.984  0.6795 -0.8759 -0.2533
13877TIP3    H163046   2.354   3.067   2.983  1.9546  0.2910 -0.6761
13877TIP3    H263047   2.365   2.917   2.975 -0.7790 -0.0072  0.3498
13878TIP3   OH263048   6.378   6.073  12.753  0.1131  0.5424  0.4892
13878TIP3    H163049   6.309   6.122  12.709 -0.1952  0.4062  0.8140
13878TIP3    H263050   6.331   6.015  12.814  0.4709 -0.1609  0.1001
13879TIP3   OH263051   5.223   3.762   1.264 -0.0599  0.8258 -0.1442
13879TIP3    H163052   5.278   3.766   1.342  1.9505 -0.6120 -1.4420
13879TIP3    H263053   5.284   3.771   1.191 -1.7342  0.7133 -1.5992
13880TIP3   OH263054   1.231   3.361   2.147 -0.4639  0.1397 -0.0093
13880TIP3    H163055   1.148   3.355   2.194 -0.1102 -0.4609  0.5464
13880TIP3    H263056   1.286   3.294   2.188 -0.0273 -0.1294 -1.0277
13881TIP3   OH263057   5.817   4.019   4.270  0.5121  0.1735 -0.4293
13881TIP3    H163058   5.910   4.042   4.280  0.4610  0.0775  0.2626
13881TIP3    H263059   5.788   4.070   4.194  1.3648 -0.4919 -1.2221
13882TIP3   OH263060   2.126   3.037   5.347 -0.0161  0.0715 -0.5281
13882TIP3    H163061   2.200   2.977   5.338  0.3448  0.4370 -0.0519
13882TIP3    H263062   2.135   3.072   5.436 -1.7322 -1.1575  0.1374
13883TIP3   OH263063   3.980   0.598   4.276 -0.4135  0.2048  0.3122
13883TIP3    H163064   3.907   0.638   4.228  0.8706  2.1234 -0.0959
13883TIP3    H263065   4.019   0.537   4.213 -1.4801 -0.6055  0.4354
13884TIP3   OH263066   0.008   1.919  15.897  0.1305  0.2367  0.1595
13884TIP3    H163067  -0.010   1.899  15.989 -0.2176 -0.3966 -0.0481
13884TIP3    H263068   0.031   2.012  15.897  0.7015  0.0994  0.9709
13885TIP3   OH263069   0.941   6.006  12.156  0.6110  0.1217  0.0110
13885TIP3    H163070   0.851   6.018  12.186 -1.0340 -3.3143 -3.2184
13885TIP3    H263071   0.984   5.958  12.227 -0.3836  0.6831  1.0213
13886TIP3   OH263072   4.675   5.796  11.966  0.4273 -0.4510  0.2034
13886TIP3    H163073   4.718   5.848  12.034  0.6532 -1.2785  0.7101
13886TIP3    H263074   4.736   5.724  11.949 -0.0614 -0.7779 -0.1808
13887TIP3   OH263075   3.515   2.511  14.524  0.5802  0.1814  0.1639
13887TIP3    H163076   3.545   2.421  14.538  1.1419  0.4896  0.9843
13887TIP3    H263077   3.563   2.563  14.590 -1.8451  0.6704  1.6111
13888TIP3   OH263078   6.715   1.872   2.912  0.4118  0.7058 -0.0127
13888TIP3    H163079   6.693   1.785   2.877 -0.4853  1.2236 -0.7552
13888TIP3    H263080   6.768   1.853   2.990 -0.4482 -0.5224  0.2954
13889TIP3   OH263081   1.190   1.119   0.023  0.2363 -0.3166  0.5087
13889TIP3    H163082   1.146   1.082   0.099 -0.7774 -0.3003 -0.0627
13889TIP3    H263083   1.157   1.209   0.018 -0.1351 -0.4906 -0.2776
13890TIP3   OH263084   6.582   1.361   4.551 -0.3938  0.2210 -0.4955
13890TIP3    H163085   6.541   1.284   4.588 -1.4880  0.7869 -0.5245
13890TIP3    H263086   6.529   1.434   4.583  2.1521  1.1961  1.7321
13891TIP3   OH263087   2.902   5.576  11.971  0.8406 -0.4970  0.0500
13891TIP3    H163088   2.897   5.602  12.063  1.6706 -1.0082  0.2397
13891TIP3    H263089   2.848   5.641  11.925  1.6945  0.7003  0.6968
13892TIP3   OH263090   6.118   1.449   2.287 -0.3213 -0.0304 -0.4364
13892TIP3    H163091   6.165   1.522   2.326 -0.3052 -0.8193  1.0601
13892TIP3    H263092   6.026   1.467   2.303 -0.2261 -1.3592  1.8504
13893TIP3   OH263093   4.591   2.834   6.817 -0.2883 -0.2922  0.1881
13893TIP3    H163094   4.663   2.878   6.863  0.8323  0.3643 -2.1219
13893TIP3    H263095   4.632   2.756   6.778 -0.7113  0.3308 -1.5273
13894TIP3   OH263096   0.805   3.205   0.610 -0.1098  0.2473 -0.6423
13894TIP3    H163097   0.843   3.118   0.620 -0.0866  0.2327 -0.8417
13894TIP3    H263098   0.755   3.200   0.528  0.9168  0.7878 -1.3157
13895TIP3   OH263099   3.927   3.639   3.561  0.3913  0.1971  0.4770
13895TIP3    H163100   3.889   3.727   3.564 -0.8154 -0.3295  1.0133
13895TIP3    H263101   3.983   3.641   3.483 -1.9052  0.5613 -1.2480
13896TIP3   OH263102   1.406   0.618  12.424  0.0451 -0.1731  0.4004
13896TIP3    H163103   1.450   0.540  12.391 -1.3711 -0.1895 -1.5036
13896TIP3    H263104   1.469   0.656  12.485  2.5003 -0.5128 -1.8133
13897TIP3   OH263105   1.049   5.009  16.004  0.2455 -0.0333 -0.0488
13897TIP3    H163106   1.103   4.933  15.980 -3.3066 -2.1528 -1.7435
13897TIP3    H263107   1.073   5.076  15.940  0.4065 -1.1668 -1.1966
13898TIP3   OH263108   6.181   4.449   4.417  0.5705 -0.0049 -0.1545
13898TIP3    H163109   6.218   4.378   4.365  1.1977  0.5905 -0.5271
13898TIP3    H263110   6.102   4.411   4.456  0.8919 -0.9012 -0.3561
13899TIP3   OH263111   4.118   4.806  16.403  0.0134 -0.1049  0.2176
13899TIP3    H163112   4.098   4.900  16.399 -0.1403 -0.2051 -1.4840
13899TIP3    H263113   4.121   4.787  16.497  0.3690  1.6664  0.5842
13900TIP3   OH263114   2.734   0.281  11.153  0.1225  0.4912  0.2433
13900TIP3    H163115   2.759   0.263  11.062 -1.3525  1.4737 -0.3894
13900TIP3    H263116   2.682   0.204  11.179 -0.9754  1.0039 -0.3735
13901TIP3   OH263117   6.144   2.709  13.391  0.4175 -0.2998 -0.3683
13901TIP3    H163118   6.107   2.661  13.466  0.8151 -0.1425 -0.0662
13901TIP3    H263119   6.209   2.650  13.355  0.1794 -0.4013 -0.6315
13902TIP3   OH263120   4.921   2.189   1.602  0.3319  0.1747 -0.0786
13902TIP3    H163121   5.001   2.222   1.643  2.0801  1.7474 -4.3640
13902TIP3    H263122   4.859   2.262   1.610  0.8398  0.6806 -0.6439
13903TIP3   OH263123   0.557   5.088   5.583 -0.4082  0.3556 -1.0658
13903TIP3    H163124   0.481   5.146   5.584 -0.5985  0.0997  0.4053
13903TIP3    H263125   0.594   5.095   5.671 -0.3990 -1.7002 -0.8847
13904TIP3   OH263126   3.020   2.637   3.370  1.2399 -0.0468 -0.1432
13904TIP3    H163127   3.012   2.596   3.456 -0.1477  2.4223  0.9461
13904TIP3    H263128   2.978   2.722   3.379 -2.3162 -1.1365 -4.2529
13905TIP3   OH263129   0.013   2.424   4.996 -0.0360 -0.5926  0.2803
13905TIP3    H163130   0.099   2.449   4.964  0.5191 -1.6374  0.9368
13905TIP3    H263131  -0.039   2.409   4.917  0.5496 -0.5362 -0.1143
13906TIP3   OH263132   5.078   5.653   5.890  0.0016  0.2235  0.1962
13906TIP3    H163133   5.147   5.718   5.875  0.9651 -0.8670 -0.1745
13906TIP3    H263134   5.079   5.641   5.985  1.2200 -0.7342  0.0787
13907TIP3   OH263135   5.503   4.054  10.629 -0.1369  0.1183 -0.0648
13907TIP3    H163136   5.556   4.002  10.568  2.3419 -0.1480  2.2217
13907TIP3    H263137   5.435   4.092  10.574  2.5251  0.6476 -3.2189
13908TIP3   OH263138   0.321   0.465  11.401  0.8565 -0.3757 -0.6500
13908TIP3    H163139   0.349   0.534  11.461 -1.3251 -1.0547  1.2043
13908TIP3    H263140   0.238   0.497  11.364 -1.7442 -3.1598  2.4647
13909TIP3   OH263141   6.197   5.975  13.138 -0.1725 -0.1128  0.4842
13909TIP3    H163142   6.237   5.892  13.162  0.4850  0.2789  0.7503
13909TIP3    H263143   6.200   5.975  13.042 -0.7238 -0.6573  0.4602
13910TIP3   OH263144   4.822   4.289  11.757  0.4954 -0.2652 -0.4134
13910TIP3    H163145   4.735   4.323  11.737 -0.3117 -1.8048  0.3480
13910TIP3    H263146   4.818   4.267  11.850  0.9546 -2.3993 -0.8786
13911TIP3   OH263147   4.348   1.054   1.042 -0.5395 -0.2000 -0.4402
13911TIP3    H163148   4.431   1.011   1.021  0.4501  0.3823  2.0939
13911TIP3    H263149   4.332   1.113   0.969  1.4486 -0.0806 -0.8064
13912TIP3   OH263150   2.833   4.385   1.427  0.2230  0.3473  0.2724
13912TIP3    H163151   2.926   4.393   1.407  0.0527  1.0300 -0.2801
13912TIP3    H263152   2.793   4.360   1.343 -0.1861  0.8409  0.3175
13913TIP3   OH263153   4.352   6.250  14.887 -0.4578 -0.1783 -0.0022
13913TIP3    H163154   4.383   6.160  14.894 -0.0818 -0.1303 -0.9605
13913TIP3    H263155   4.393   6.296  14.961 -0.3054 -0.6916  0.2338
13914TIP3   OH263156   5.031   6.668   5.151 -0.1836 -0.5395  0.6640
13914TIP3    H163157   5.082   6.650   5.230  0.8113  1.0156  0.3974
13914TIP3    H263158   5.094   6.663   5.079 -0.3021  1.6671  0.3590
13915TIP3   OH263159   4.798   1.612  13.157 -0.2977 -0.4837  0.3955
13915TIP3    H163160   4.716   1.641  13.198 -0.8851 -0.5264 -0.7363
13915TIP3    H263161   4.861   1.680  13.180 -1.0367  0.3554 -0.0280
13916TIP3   OH263162   5.397   3.615  14.450 -0.0151  0.7774 -0.3077
13916TIP3    H163163   5.470   3.675  14.468 -1.1112  1.7471  1.0682
13916TIP3    H263164   5.325   3.673  14.422 -1.0364  0.1097  0.8575
13917TIP3   OH263165   4.791   5.246   2.119 -0.1484 -0.3580 -0.0972
13917TIP3    H163166   4.716   5.302   2.100  0.8623 -0.0680 -3.4457
13917TIP3    H263167   4.821   5.274   2.206 -2.2551  1.3322  0.0993
13918TIP3   OH263168   3.979   5.659  14.348 -0.0583 -0.0189  0.5113
13918TIP3    H163169   3.975   5.571  14.311 -1.4409  0.2208  0.0590
13918TIP3    H263170   3.954   5.716  14.276 -0.9463  0.5961  1.2860
13919TIP3   OH263171   5.055   1.560  12.405 -0.0116 -0.2521 -0.5332
13919TIP3    H163172   5.115   1.531  12.474  2.0974 -0.0448 -2.2175
13919TIP3    H263173   5.096   1.530  12.324 -2.1890 -0.0455 -1.7462
13920TIP3   OH263174   3.007   2.911  16.699 -0.1204 -0.2219 -0.4383
13920TIP3    H163175   2.924   2.953  16.678 -0.5664  0.5686  2.7461
13920TIP3    H263176   2.991   2.817  16.686 -0.4432  0.1513 -3.1395
13921TIP3   OH263177   1.490   1.117   3.675  0.3937  0.5792  0.1667
13921TIP3    H163178   1.489   1.204   3.636 -1.2536  0.3773 -0.2730
13921TIP3    H263179   1.418   1.071   3.633  0.0499 -0.3831  1.7732
13922TIP3   OH263180   0.505   4.517   5.131  0.2151  0.0225  0.0333
13922TIP3    H163181   0.576   4.527   5.067 -1.3347  0.1183 -1.7143
13922TIP3    H263182   0.509   4.598   5.182 -0.0960  1.0982 -1.5851
13923TIP3   OH263183   1.347   0.495  15.289  0.2737  0.1645 -0.0481
13923TIP3    H163184   1.408   0.538  15.349  1.6285 -0.2990 -1.0644
13923TIP3    H263185   1.262   0.532  15.311  0.9319  0.9246  1.3116
13924TIP3   OH263186   2.167   0.577   1.513 -0.7752 -0.1282 -0.1739
13924TIP3    H163187   2.224   0.630   1.457  0.3276 -2.8351 -1.6821
13924TIP3    H263188   2.224   0.549   1.585 -0.1041 -2.9535 -1.7580
13925TIP3   OH263189   2.563   2.855   4.722  0.4985  0.1959  0.6559
13925TIP3    H163190   2.555   2.865   4.816  0.2410 -2.8178  1.0125
13925TIP3    H263191   2.494   2.792   4.698 -0.7634  2.4306 -1.8491
13926TIP3   OH263192   0.377   2.813   0.842 -0.1149  0.1755  0.8717
13926TIP3    H163193   0.470   2.822   0.865 -0.2321 -1.0848  1.8926
13926TIP3    H263194   0.350   2.901   0.818  1.5438  0.4278 -0.2129
13927TIP3   OH263195   3.067   1.812   5.818 -0.6729  0.5575  0.2019
13927TIP3    H163196   3.021   1.729   5.826  0.5091 -0.0633  0.7246
13927TIP3    H263197   3.002   1.879   5.839 -2.0328 -0.1356 -1.6588
13928TIP3   OH263198   2.395   2.908  11.660 -0.3836  0.1353 -0.5054
13928TIP3    H163199   2.465   2.962  11.695 -0.5530 -0.6488  1.1119
13928TIP3    H263200   2.323   2.969  11.643 -0.5168  0.4544  1.1338
13929TIP3   OH263201   4.873   2.294   6.826  0.0249  0.1725 -0.4330
13929TIP3    H163202   4.852   2.385   6.848 -0.1438  0.4910 -1.8453
13929TIP3    H263203   4.796   2.263   6.777  0.7445 -0.2244 -1.3248
13930TIP3   OH263204   5.633   2.962   2.110 -0.2218 -0.5604  0.1231
13930TIP3    H163205   5.596   2.988   2.025 -0.0954 -2.2780 -0.4752
13930TIP3    H263206   5.578   2.889   2.138  0.9036 -1.2210  0.6252
13931TIP3   OH263207   6.749   1.444  11.429 -0.1802 -0.0858  0.0649
13931TIP3    H163208   6.661   1.438  11.465 -0.4565  1.7092 -0.2624
13931TIP3    H263209   6.741   1.415  11.339 -0.4521  0.1010  0.0281
13932TIP3   OH263210   3.082   2.173  12.396 -0.0351 -0.3707  0.1629
13932TIP3    H163211   2.990   2.176  12.369 -0.3628  1.0474  1.3942
13932TIP3    H263212   3.078   2.168  12.491  1.1968  2.5920  0.3830
13933TIP3   OH263213   2.676   6.167  12.090  0.0698 -0.2039 -0.0879
13933TIP3    H163214   2.649   6.084  12.128 -0.2668 -0.6235 -1.2197
13933TIP3    H263215   2.717   6.143  12.007  2.1691  0.5799  0.6944
13934TIP3   OH263216   4.834   4.302  13.047 -0.2924 -0.8580  0.2020
13934TIP3    H163217   4.867   4.238  12.984  0.5319 -1.0027  0.7712
13934TIP3    H263218   4.871   4.274  13.130  1.5133  1.3392  0.1767
13935TIP3   OH263219   4.240   1.709  14.960 -0.0235  0.2618 -0.2782
13935TIP3    H163220   4.321   1.685  15.006  0.1822 -0.3515 -0.9431
13935TIP3    H263221   4.181   1.636  14.977 -1.1298  1.5847  1.8167
13936TIP3   OH263222   0.818   2.284   4.453 -0.4286  0.3853  0.4958
13936TIP3    H163223   0.882   2.245   4.394 -1.0953 -1.7972  1.1220
13936TIP3    H263224   0.781   2.209   4.500 -0.6217  1.9711  2.9697
13937TIP3   OH263225   1.960   5.039   0.850 -0.1361 -0.2422  0.1157
13937TIP3    H163226   2.044   5.021   0.892 -0.1668 -0.2149  0.1894
13937TIP3    H263227   1.971   5.011   0.760  0.5883  1.5442 -0.3772
13938TIP3   OH263228   4.186   3.091  12.975 -0.5037  0.3330 -0.2067
13938TIP3    H163229   4.245   3.016  12.977  0.0030  0.7473  1.4060
13938TIP3    H263230   4.211   3.141  12.898 -3.7038 -3.3971 -3.9083
13939TIP3   OH263231   2.951   2.129  14.009 -0.4185 -0.6282 -0.6980
13939TIP3    H163232   2.982   2.211  14.046 -0.1798 -1.2213  0.4417
13939TIP3    H263233   2.862   2.147  13.979 -0.8951 -0.3449  0.8791
13940TIP3   OH263234   4.162   4.012  16.662  0.2338  0.4799 -0.4891
13940TIP3    H163235   4.219   4.069  16.714  0.2089 -0.4382  0.5684
13940TIP3    H263236   4.223   3.958  16.611  0.3023  0.0843  0.0065
13941TIP3   OH263237   1.683   3.678  11.777  0.1662  0.0291  0.3031
13941TIP3    H163238   1.675   3.745  11.844  0.0394 -0.4225  0.7468
13941TIP3    H263239   1.772   3.645  11.786  0.1354 -0.0612  0.2820
13942TIP3   OH263240   1.640   3.663  13.447 -0.1386 -0.1690 -0.1986
13942TIP3    H163241   1.665   3.747  13.408 -0.1080 -0.3069 -0.4818
13942TIP3    H263242   1.630   3.604  13.372 -0.0190 -0.4554  0.0106
13943TIP3   OH263243   0.876   5.227  14.416 -0.7347 -0.9860 -0.2692
13943TIP3    H163244   0.798   5.185  14.378 -2.2807  0.1920  1.5042
13943TIP3    H263245   0.840   5.292  14.477  1.6360  1.3198 -1.2765
13944TIP3   OH263246   2.371   4.868  13.595 -1.3620 -0.1295  0.2591
13944TIP3    H163247   2.426   4.840  13.668 -0.3930  0.5847 -0.1810
13944TIP3    H263248   2.366   4.791  13.538  1.6905  0.6673 -1.1876
13945TIP3   OH263249   4.798   0.602  14.151 -0.3053  0.3167  0.1768
13945TIP3    H163250   4.828   0.691  14.130 -0.5580  0.2109 -0.6747
13945TIP3    H263251   4.724   0.614  14.209 -1.9023  0.7703 -1.8795
13946TIP3   OH263252   6.540   4.822   3.523  0.3929 -0.2252 -0.0641
13946TIP3    H163253   6.444   4.827   3.524  0.3975 -0.2454  1.3096
13946TIP3    H263254   6.561   4.774   3.443 -0.7627 -0.5788 -0.1606
13947TIP3   OH263255   0.026   3.051  14.494 -0.5669  0.2986  0.6987
13947TIP3    H163256  -0.028   2.977  14.518  0.2483 -0.6238 -0.2532
13947TIP3    H263257   0.087   3.016  14.428  2.0134  0.9500  2.6264
13948TIP3   OH263258   6.493   3.441  10.405  0.4442  0.0350 -0.7992
13948TIP3    H163259   6.527   3.486  10.328  0.9387  0.3585 -0.4018
13948TIP3    H263260   6.500   3.506  10.475  2.2594 -1.0230  0.0398
13949TIP3   OH263261   5.785   1.085   4.202 -0.0923 -0.2913  0.6647
13949TIP3    H163262   5.769   1.057   4.112 -2.1620 -2.4569  1.6627
13949TIP3    H263263   5.862   1.034   4.230  0.8771  0.7762 -0.0323
13950TIP3   OH263264   6.573   3.998  16.863 -0.1757 -0.4999 -0.6675
13950TIP3    H163265   6.635   3.989  16.791 -0.5433  0.4575 -1.1085
13950TIP3    H263266   6.550   4.091  16.864  0.9105 -0.1999  1.5913
13951TIP3   OH263267   2.165   1.980   5.308  0.3241 -0.0649  0.2643
13951TIP3    H163268   2.149   2.021   5.393  1.4973  0.1503  0.3945
13951TIP3    H263269   2.247   2.020   5.278  1.1179 -1.8096  0.0761
13952TIP3   OH263270   6.348   0.751   2.866 -0.0894 -0.6615  0.3910
13952TIP3    H163271   6.403   0.699   2.807 -1.1037  1.1163 -2.1927
13952TIP3    H263272   6.274   0.694   2.885  0.0298 -1.0935 -0.4150
13953TIP3   OH263273   0.468   6.651   2.691  0.4328 -0.6756 -0.1187
13953TIP3    H163274   0.374   6.634   2.700  0.5847 -2.1695 -1.3194
13953TIP3    H263275   0.476   6.697   2.607  0.7428 -0.1399  0.1975
13954TIP3   OH263276   4.495   4.677  12.782 -0.0163 -0.6064  0.5006
13954TIP3    H163277   4.574   4.651  12.735 -0.5057  0.5319 -1.0000
13954TIP3    H263278   4.482   4.609  12.848  0.9992 -1.9441 -0.6562
13955TIP3   OH263279   5.707   5.510   0.740 -0.1271  0.1813 -1.1969
13955TIP3    H163280   5.698   5.451   0.815 -0.7411  0.8177 -0.7742
13955TIP3    H263281   5.731   5.452   0.667  1.0370 -0.3699 -0.3963
13956TIP3   OH263282   3.232   3.999  16.077  0.3295  0.6267 -0.0177
13956TIP3    H163283   3.249   4.083  16.035 -0.9615  0.0846 -1.6677
13956TIP3    H263284   3.318   3.958  16.084  0.6542  1.0341 -1.4761
13957TIP3   OH263285   1.853   1.762  13.217 -0.2341  0.0943 -0.0204
13957TIP3    H163286   1.842   1.668  13.199  1.3115 -0.4227  1.5473
13957TIP3    H263287   1.875   1.800  13.132  0.7466 -1.2464 -0.4001
13958TIP3   OH263288   4.813   1.470   5.769  0.1247 -0.1568 -0.0453
13958TIP3    H163289   4.728   1.509   5.752  1.2133  1.5270 -1.8081
13958TIP3    H263290   4.846   1.517   5.846 -0.6006 -0.9893  0.8013
13959TIP3   OH263291   4.305   3.618  14.126 -0.4059 -0.5657  0.3357
13959TIP3    H163292   4.285   3.705  14.091 -0.7964 -0.2627  1.3037
13959TIP3    H263293   4.356   3.576  14.057  1.4673  1.1201  0.6522
13960TIP3   OH263294   1.152   0.831  16.005  0.4974  0.0111 -0.5199
13960TIP3    H163295   1.174   0.917  16.041 -2.1179  0.5783 -0.1729
13960TIP3    H263296   1.152   0.843  15.910  0.1243  0.4129 -0.4711
13961TIP3   OH263297   3.406   6.697   1.753  0.2620  0.0206 -0.5162
13961TIP3    H163298   3.333   6.635   1.749  0.9651 -0.8014 -0.7021
13961TIP3    H263299   3.413   6.719   1.846  2.1430 -2.7707  0.0673
13962TIP3   OH263300   5.540   1.786  14.882  0.1397 -0.0667  0.3791
13962TIP3    H163301   5.534   1.700  14.840 -1.9923 -0.6668  1.8187
13962TIP3    H263302   5.624   1.784  14.928  1.4208 -0.2854 -1.8826
13963TIP3   OH263303   0.705   3.542  16.603  0.1876  0.4262  0.5053
13963TIP3    H163304   0.743   3.627  16.582  0.0800  0.8139  1.7884
13963TIP3    H263305   0.621   3.540  16.556  0.8930  0.3716 -0.7665
13964TIP3   OH263306   1.115   6.519  12.254 -0.2949 -0.6509  0.1321
13964TIP3    H163307   1.042   6.560  12.302 -1.0912 -0.0947 -1.5227
13964TIP3    H263308   1.074   6.473  12.181  0.8512 -2.0931  0.3762
13965TIP3   OH263309   3.380   5.407   2.095 -0.2035 -0.3783 -0.7044
13965TIP3    H163310   3.397   5.477   2.157 -0.6353  0.5098 -1.5691
13965TIP3    H263311   3.317   5.350   2.138  1.9470 -1.5776  0.9778
13966TIP3   OH263312   0.481   1.683   6.593  0.2538  0.0453 -0.4625
13966TIP3    H163313   0.485   1.607   6.534  0.4853 -0.3619  0.0740
13966TIP3    H263314   0.457   1.646   6.678  1.4481  0.4387  0.0519
13967TIP3   OH263315   1.890   6.439   2.922 -0.1561 -0.6052 -0.1763
13967TIP3    H163316   1.827   6.370   2.940  0.6271 -0.9602  1.3191
13967TIP3    H263317   1.855   6.516   2.967  0.8739 -1.0170  1.3665
13968TIP3   OH263318   3.505   2.307  15.842 -0.2275 -0.0901 -0.1990
13968TIP3    H163319   3.600   2.313  15.851 -0.1845  0.7174 -1.1462
13968TIP3    H263320   3.474   2.285  15.930  0.8586 -0.6918  0.0390
13969TIP3   OH263321   6.442   2.812   3.353  0.6431  0.2951 -0.3132
13969TIP3    H163322   6.537   2.804   3.360  0.8178  2.0653 -0.4230
13969TIP3    H263323   6.426   2.826   3.260  0.0954 -1.8960 -0.5794
13970TIP3   OH263324   4.864   1.920  16.098  0.4583  0.3103  0.1356
13970TIP3    H163325   4.778   1.898  16.062  0.6713  0.3458 -0.4038
13970TIP3    H263326   4.848   1.938  16.191  0.2871 -2.2522  0.6391
13971TIP3   OH263327   2.274   6.145  12.533 -0.4138 -0.0676 -0.2327
13971TIP3    H163328   2.306   6.078  12.593  4.3921  0.1395 -2.3595
13971TIP3    H263329   2.260   6.098  12.450  1.2102  1.1456 -1.2229
13972TIP3   OH263330   4.420   1.925   3.019 -0.2938 -0.2822 -0.2284
13972TIP3    H163331   4.464   1.845   2.988 -1.5416 -0.3871 -1.8052
13972TIP3    H263332   4.487   1.972   3.067  1.0243 -1.3375 -0.9929
13973TIP3   OH263333   5.760   6.109  14.393  0.1327  0.0616  0.2323
13973TIP3    H163334   5.820   6.070  14.329 -1.4170 -1.7354 -0.1393
13973TIP3    H263335   5.685   6.050  14.396 -1.2990  1.8716  1.2773
13974TIP3   OH263336   3.965   1.973   3.387 -0.2943  0.6209 -0.2425
13974TIP3    H163337   3.915   2.009   3.313 -0.9545  0.0640 -0.0712
13974TIP3    H263338   4.053   1.958   3.351  0.4810  3.9062  0.1154
13975TIP3   OH263339   5.035   4.450  13.495  0.8926 -0.1373  0.5636
13975TIP3    H163340   5.098   4.519  13.475  0.5784 -0.0014  0.0310
13975TIP3    H263341   4.970   4.493  13.551  0.4045  0.1428 -0.2112
13976TIP3   OH263342   1.125   5.065   5.218 -0.2802  0.0148 -0.6150
13976TIP3    H163343   1.181   5.133   5.180 -1.4286  0.6278 -1.2443
13976TIP3    H263344   1.038   5.106   5.223 -0.7513 -1.0463 -0.0057
13977TIP3   OH263345   6.213   5.962  14.001  0.1264 -0.0501  0.1692
13977TIP3    H163346   6.130   5.969  13.953 -0.5517 -0.2769  1.2940
13977TIP3    H263347   6.216   6.040  14.056 -0.4366 -1.1316  1.7977
13978TIP3   OH263348   1.624   5.304  11.280  0.0048  0.3985  0.2655
13978TIP3    H163349   1.559   5.333  11.216 -0.7906 -0.9975  0.4291
13978TIP3    H263350   1.600   5.348  11.361 -0.4004  0.3175  0.1887
13979TIP3   OH263351   1.430   1.687   1.155  0.1116 -0.0559  0.3260
13979TIP3    H163352   1.421   1.746   1.080 -0.6154  0.6269  0.9377
13979TIP3    H263353   1.407   1.601   1.121  1.4638 -0.0542 -0.6474
13980TIP3   OH263354   5.291   2.926  13.084 -0.0101 -0.3230  0.6780
13980TIP3    H163355   5.292   3.007  13.032  2.3371 -2.0770 -2.2324
13980TIP3    H263356   5.202   2.919  13.116 -0.7353  2.4831 -0.5340
13981TIP3   OH263357   6.354   2.945  16.942 -0.3742 -0.1526  0.1125
13981TIP3    H163358   6.426   3.008  16.939  0.3429 -0.9684  0.0261
13981TIP3    H263359   6.367   2.899  17.026  0.9895 -2.3640 -1.2610
13982TIP3   OH263360   0.423   6.157  12.117 -0.1387 -0.5232 -0.3824
13982TIP3    H163361   0.385   6.239  12.148  0.9384  0.0390 -0.4975
13982TIP3    H263362   0.354   6.115  12.067 -0.6031  0.4633 -0.5717
13983TIP3   OH263363   6.617   5.798   0.961 -0.3934 -0.2621 -0.4229
13983TIP3    H163364   6.695   5.807   0.907 -0.8805  1.3372 -0.9017
13983TIP3    H263365   6.624   5.870   1.024 -0.1230 -1.7501  1.2957
13984TIP3   OH263366   1.186   3.082  14.990  0.2309  0.6863 -0.2069
13984TIP3    H163367   1.222   3.163  15.027  1.0198 -0.5761  1.9045
13984TIP3    H263368   1.262   3.026  14.978 -0.4608 -0.2234 -0.3666
13985TIP3   OH263369   6.692   3.132  13.065 -0.5245  0.0809 -0.8125
13985TIP3    H163370   6.626   3.086  13.015 -2.3496  2.6885 -0.9151
13985TIP3    H263371   6.718   3.205  13.009  0.1876  0.8337  0.4710
13986TIP3   OH263372   1.022   5.394   3.484  0.0194 -0.1473 -0.2719
13986TIP3    H163373   1.048   5.386   3.576 -1.4065 -0.7602  0.1032
13986TIP3    H263374   1.035   5.307   3.448  1.7013  0.3792 -0.9811
13987TIP3   OH263375   1.832   2.931  14.350  0.0978 -0.1348  0.4007
13987TIP3    H163376   1.919   2.892  14.348 -0.3712 -1.1399 -0.8585
13987TIP3    H263377   1.830   2.981  14.432  1.3750 -1.2125  1.1094
13988TIP3   OH263378   1.902   1.724   5.750  0.2130  0.5343  0.2255
13988TIP3    H163379   1.870   1.682   5.671  1.2912  3.1958 -1.6924
13988TIP3    H263380   1.857   1.808   5.752  1.0540  0.9643  1.8281
13989TIP3   OH263381   1.115   5.528  14.317  0.4146  0.0309  0.1307
13989TIP3    H163382   1.144   5.614  14.285 -0.6330  0.2943 -0.1460
13989TIP3    H263383   1.098   5.542  14.410  2.0750 -0.3680  0.5057
13990TIP3   OH263384   2.063   6.466   3.676  0.2639 -0.0594 -0.5747
13990TIP3    H163385   2.065   6.424   3.590 -1.9130 -0.0637 -0.6562
13990TIP3    H263386   1.979   6.440   3.713  0.5919  1.0567  0.9974
13991TIP3   OH263387   4.575   1.717  12.771  0.2059 -0.0980 -0.6660
13991TIP3    H163388   4.661   1.703  12.810 -0.0266  0.6830  0.1476
13991TIP3    H263389   4.560   1.638  12.718  1.3253 -0.3268 -0.6625
13992TIP3   OH263390   2.579   0.242  13.254  0.0753 -0.1617 -0.0490
13992TIP3    H163391   2.501   0.226  13.306  0.3271 -2.7530 -0.4184
13992TIP3    H263392   2.598   0.335  13.267 -1.5378 -0.1065  2.1316
13993TIP3   OH263393   5.982   2.213   3.553  0.1726  0.0513  0.4498
13993TIP3    H163394   6.045   2.153   3.513  0.4355 -0.3019  1.3616
13993TIP3    H263395   5.928   2.157   3.609 -2.4918 -0.0353 -2.0692
13994TIP3   OH263396   6.530   2.817   2.831  0.6102 -0.2781 -0.3762
13994TIP3    H163397   6.602   2.867   2.793  0.4094  0.8299  0.6645
13994TIP3    H263398   6.473   2.795   2.757  0.1222  2.0041 -0.7218
13995TIP3   OH263399   2.493   3.816  13.346  0.3669  0.6925  0.6996
13995TIP3    H163400   2.505   3.762  13.268  0.1073  0.0170  1.1225
13995TIP3    H263401   2.398   3.827  13.353  0.5212  3.8691 -1.1711
13996TIP3   OH263402   3.417   0.593   3.304 -0.9422 -0.5001  0.1726
13996TIP3    H163403   3.456   0.664   3.354 -1.7535 -0.2030  0.3972
13996TIP3    H263404   3.407   0.628   3.215 -1.6507 -0.2183  0.3645
13997TIP3   OH263405   4.737   3.331  12.947  0.0383 -0.3655 -0.0247
13997TIP3    H163406   4.680   3.313  13.022  0.4765  2.2880  0.9975
13997TIP3    H263407   4.816   3.369  12.985  0.5107  0.4888 -1.7922
13998TIP3   OH263408   4.355   2.392   1.978  0.5457 -0.1817  0.3194
13998TIP3    H163409   4.304   2.450   2.036  1.4820 -0.3243  1.3055
13998TIP3    H263410   4.313   2.306   1.988  1.6384 -0.5507  2.0098
13999TIP3   OH263411   1.215   1.923   3.332 -0.1230  0.4677  0.0455
13999TIP3    H163412   1.143   1.985   3.335 -0.1926  0.3812  0.2213
13999TIP3    H263413   1.294   1.977   3.341 -0.1838  0.5300  0.2143
14000TIP3   OH263414   1.018   6.444   4.904  0.3479  0.2665 -0.2718
14000TIP3    H163415   0.974   6.432   4.988 -0.4650 -1.2048 -0.8969
14000TIP3    H263416   1.111   6.428   4.922 -0.1129 -2.3274 -0.1147
14001TIP3   OH263417   0.185   3.882   1.372  0.7523 -0.6391  0.6818
14001TIP3    H163418   0.137   3.834   1.305  0.9080  1.1109 -0.6930
14001TIP3    H263419   0.271   3.840   1.374  0.9788 -0.2374 -0.6930
14002TIP3   OH263420   1.702   0.303   2.275  0.3233 -0.2469  0.0448
14002TIP3    H163421   1.664   0.384   2.242  0.4835 -0.1973 -0.0228
14002TIP3    H263422   1.748   0.329   2.355 -0.3453 -0.4284  0.4902
14003TIP3   OH263423   4.406   5.209  16.536  0.4315 -0.1096  0.5395
14003TIP3    H163424   4.353   5.286  16.558 -1.1519 -0.5634 -1.5372
14003TIP3    H263425   4.465   5.199  16.611  0.7440  3.1761  0.8020
14004TIP3   OH263426   5.702   3.995   6.204 -0.1611  0.6270  0.2106
14004TIP3    H163427   5.719   4.023   6.294  0.8092 -2.0487  0.9142
14004TIP3    H263428   5.789   3.990   6.164 -0.4742  0.4818 -0.4563
14005TIP3   OH263429   6.006   4.545   2.069 -0.3245  0.3415 -0.5340
14005TIP3    H163430   5.962   4.617   2.114 -0.2206  0.8490 -1.2380
14005TIP3    H263431   6.073   4.588   2.015  0.4454 -0.3597 -0.1486
14006TIP3   OH263432   2.138   6.611   1.156 -0.0560 -0.3151  0.4088
14006TIP3    H163433   2.233   6.621   1.161 -0.1428  0.5971  0.2911
14006TIP3    H263434   2.104   6.670   1.224 -0.5061 -1.3719  1.1198
14007TIP3   OH263435   4.032   6.062  13.022  0.7160 -0.5129  0.0614
14007TIP3    H163436   3.946   6.069  12.980  0.5803 -1.9237  0.0933
14007TIP3    H263437   4.094   6.075  12.951  0.4841 -1.5197 -0.3270
14008TIP3   OH263438   2.539   5.005  17.062  0.2863 -0.5594 -0.6764
14008TIP3    H163439   2.605   4.954  17.014  0.6025 -0.7384 -0.0433
14008TIP3    H263440   2.472   4.941  17.085  0.0139 -0.4269 -1.0772
14009TIP3   OH263441   4.069   3.159   4.219  0.3311  0.1711 -0.3828
14009TIP3    H163442   4.087   3.241   4.264 -2.2158  0.0416  0.9080
14009TIP3    H263443   4.100   3.174   4.130  2.3329  1.5860  0.4992
14010TIP3   OH263444   6.674   0.722  12.745  0.0835 -0.2416 -0.0126
14010TIP3    H163445   6.678   0.696  12.837  0.0701  1.0653  0.3676
14010TIP3    H263446   6.739   0.792  12.737 -0.9135  0.6190 -0.6684
14011TIP3   OH263447   3.631   3.178  16.903 -0.4242  0.0201 -0.1716
14011TIP3    H163448   3.705   3.152  16.958  1.4311 -0.2549 -2.6696
14011TIP3    H263449   3.670   3.194  16.817 -3.6077 -2.3902 -2.1783
14012TIP3   OH263450   0.085   2.606   3.258  0.6075  0.3743  0.2017
14012TIP3    H163451   0.077   2.588   3.164  1.7329  0.0872  0.1528
14012TIP3    H263452   0.179   2.608   3.274  0.4277  1.0403  1.2150
14013TIP3   OH263453   1.205   3.241   6.458 -1.2594  0.7471 -0.0561
14013TIP3    H163454   1.248   3.216   6.377 -1.6379  3.6966 -1.2338
14013TIP3    H263455   1.275   3.239   6.524 -0.6183 -0.1336 -0.7533
14014TIP3   OH263456   1.864   1.939   3.548 -0.2674  0.5743  0.3269
14014TIP3    H163457   1.951   1.909   3.573 -0.3663 -1.3869 -1.4742
14014TIP3    H263458   1.879   2.017   3.495  0.4556 -0.0530 -0.4103
14015TIP3   OH263459   4.680   1.675   3.637 -0.2075  0.6611 -0.3799
14015TIP3    H163460   4.725   1.715   3.562  0.3105 -1.1685 -1.0631
14015TIP3    H263461   4.751   1.642   3.692 -0.5981  1.8624  0.8548
14016TIP3   OH263462   3.758   4.509  13.856  0.1585  0.0125 -0.1928
14016TIP3    H163463   3.736   4.532  13.946  0.4566 -0.1609 -0.0724
14016TIP3    H263464   3.747   4.591  13.807  1.6061  0.5307  0.3069
14017TIP3   OH263465   1.916   5.172  11.345  0.3951  0.5122 -0.0967
14017TIP3    H163466   1.976   5.204  11.278  0.3603 -0.7003 -0.7442
14017TIP3    H263467   1.972   5.143  11.417  0.4824  1.0633  0.0564
14018TIP3   OH263468   1.435   6.360   2.479 -0.1113 -0.6739 -0.7066
14018TIP3    H163469   1.515   6.411   2.492 -1.2108  1.1456 -0.8504
14018TIP3    H263470   1.387   6.367   2.562 -1.0501 -0.0402 -1.2849
14019TIP3   OH263471   2.159   0.008  15.637  0.7467 -0.3337  0.5664
14019TIP3    H163472   2.179   0.001  15.544  0.4359  0.1333  0.4624
14019TIP3    H263473   2.202  -0.068  15.677  0.9253 -0.5040  0.0529
14020TIP3   OH263474   2.566   1.659  15.783  0.2570  0.1288 -0.1314
14020TIP3    H163475   2.496   1.675  15.718 -0.6624 -2.2080  0.2306
14020TIP3    H263476   2.566   1.737  15.837 -2.0956  0.1930 -0.1626
14021TIP3   OH263477   5.126   3.251   1.401  0.2979 -0.3404  0.3337
14021TIP3    H163478   5.148   3.247   1.307 -0.4787 -2.9085  0.2166
14021TIP3    H263479   5.031   3.257   1.403  0.2344 -1.4405  0.9590
14022TIP3   OH263480   1.446   4.422  13.057 -0.0530 -0.4200 -0.3250
14022TIP3    H163481   1.389   4.492  13.027 -2.1881 -2.5827 -1.5194
14022TIP3    H263482   1.523   4.467  13.093 -1.3113  2.4827 -1.1173
14023TIP3   OH263483   4.306   0.380  10.479 -0.3257 -0.4987 -0.4251
14023TIP3    H163484   4.362   0.319  10.526 -0.3134 -0.6083 -0.5849
14023TIP3    H263485   4.217   0.348  10.495 -0.4644  0.6880  1.3101
14024TIP3   OH263486   0.236   3.912  15.593 -0.3806  0.5157  0.8215
14024TIP3    H163487   0.185   3.834  15.613 -1.1368  0.8856  0.3422
14024TIP3    H263488   0.291   3.925  15.671  0.4916 -1.0597  0.4915
14025TIP3   OH263489   2.838   1.940   5.868  0.4583  0.3528 -0.5863
14025TIP3    H163490   2.793   1.894   5.797 -0.1966  2.7875 -1.8164
14025TIP3    H263491   2.820   1.887   5.946 -0.8266 -1.0940 -1.8347
14026TIP3   OH263492   6.637   4.177   3.634  0.0978  0.7938  0.4754
14026TIP3    H163493   6.686   4.220   3.704 -0.5648 -0.3357  1.6597
14026TIP3    H263494   6.617   4.247   3.572  1.1593  1.7072  1.1511
14027TIP3   OH263495   2.472   2.977   0.288  0.5516  0.2113 -0.1940
14027TIP3    H163496   2.494   2.923   0.212 -0.4475 -0.2159 -0.1888
14027TIP3    H263497   2.430   2.915   0.349 -0.2980  0.9264 -0.0481
14028TIP3   OH263498   4.921   1.335  12.595 -0.1859  0.2198  0.1121
14028TIP3    H163499   4.878   1.415  12.564  2.0767  1.0475 -0.9571
14028TIP3    H263500   5.012   1.360  12.608  0.4490 -2.0796  0.2389
14029TIP3   OH263501   4.416   0.764  15.836 -0.0695  0.1586 -0.2416
14029TIP3    H163502   4.361   0.791  15.763 -0.0374 -0.5040 -0.5100
14029TIP3    H263503   4.356   0.720  15.896  0.6278 -3.0818 -1.8253
14030TIP3   OH263504   0.019   1.878   0.701  0.0835  0.8375  0.5713
14030TIP3    H163505   0.050   1.955   0.655  2.4881  0.3183  1.2519
14030TIP3    H263506   0.071   1.805   0.666 -1.1907 -0.2665  0.8988
14031TIP3   OH263507   1.163   3.507   2.865 -0.3075 -0.0433  0.3852
14031TIP3    H163508   1.201   3.515   2.952 -0.1341  1.8612  0.1583
14031TIP3    H263509   1.069   3.521   2.879 -0.2789  0.2682  0.2817
14032TIP3   OH263510   2.700   2.764  13.571  0.5259 -0.2645 -0.6356
14032TIP3    H163511   2.696   2.844  13.623  1.0233 -0.1545 -0.7662
14032TIP3    H263512   2.765   2.782  13.503  0.2555 -0.5914 -0.9839
14033TIP3   OH263513   5.669   1.518  10.706 -0.4469  0.4932 -0.8456
14033TIP3    H163514   5.691   1.523  10.613  1.6662 -0.6171 -0.4437
14033TIP3    H263515   5.698   1.430  10.733 -2.0161  0.3871  0.6301
14034TIP3   OH263516   0.622   0.658  16.716  0.3330  0.1983 -0.3877
14034TIP3    H163517   0.609   0.750  16.696  2.1310  0.6675  0.5222
14034TIP3    H263518   0.677   0.625  16.645  1.3106  0.3036  0.3118
14035TIP3   OH263519   0.091   6.401  14.266 -0.2512 -0.4244  0.3171
14035TIP3    H163520   0.088   6.330  14.331 -3.7220 -0.2579  0.4655
14035TIP3    H263521   0.102   6.481  14.318 -1.6374 -0.4171  0.6197
14036TIP3   OH263522   4.327   4.688   4.730  0.2800  0.0024  0.0350
14036TIP3    H163523   4.306   4.781   4.745  2.1792  0.3830  0.4979
14036TIP3    H263524   4.305   4.673   4.638  0.9998  1.2179 -0.3538
14037TIP3   OH263525   5.981   6.758  11.427 -0.1912 -0.4738  0.7391
14037TIP3    H163526   6.008   6.726  11.341 -1.4721 -0.4455  0.3151
14037TIP3    H263527   5.956   6.849  11.413 -0.0288 -0.3545  1.2128
14038TIP3   OH263528   4.764   1.869   3.458 -0.2292 -0.4427 -0.2173
14038TIP3    H163529   4.691   1.828   3.413 -0.5688  0.7870 -0.8061
14038TIP3    H263530   4.798   1.934   3.396 -1.3353  1.9870  1.6249
14039TIP3   OH263531   3.536   0.660   5.429  0.0347  0.3302  0.1613
14039TIP3    H163532   3.447   0.645   5.461 -0.8562  3.4455 -0.6382
14039TIP3    H263533   3.528   0.658   5.334  1.1664 -1.0266  0.0770
14040TIP3   OH263534   1.041   2.175  16.183  0.1022 -0.3429  0.7904
14040TIP3    H163535   1.049   2.238  16.111 -0.3595 -0.1679  0.8920
14040TIP3    H263536   1.102   2.106  16.160 -2.8183 -2.2063 -1.7793
14041TIP3   OH263537   5.917   3.193  12.635 -0.8188 -0.4093  0.4062
14041TIP3    H163538   5.827   3.219  12.652 -0.9114 -1.0524  0.8989
14041TIP3    H263539   5.909   3.111  12.586 -0.5354  0.6162 -1.4317
14042TIP3   OH263540   5.339   3.797  12.265  0.4036  0.1868  0.1603
14042TIP3    H163541   5.394   3.871  12.292  0.4880  0.5433 -0.9886
14042TIP3    H263542   5.283   3.833  12.196 -2.1384  0.1638  2.1125
14043TIP3   OH263543   5.198   1.110   5.735 -0.1591  0.7318  0.1365
14043TIP3    H163544   5.215   1.185   5.792  0.5963  1.2292 -0.7487
14043TIP3    H263545   5.119   1.133   5.687  0.4468  1.2396 -0.6168
14044TIP3   OH263546   6.627   0.930  11.698 -0.1107 -0.1303  0.5210
14044TIP3    H163547   6.635   0.840  11.667 -0.4124 -0.4667  1.4151
14044TIP3    H263548   6.580   0.976  11.628 -0.1706 -0.7221  0.1745
14045TIP3   OH263549   5.299   2.449  14.590 -0.0223 -0.0368  0.5704
14045TIP3    H163550   5.263   2.452  14.678  0.4572 -1.3645  0.8262
14045TIP3    H263551   5.243   2.509  14.539  0.3420  1.5125  1.9770
14046TIP3   OH263552   4.668   6.666   0.747  0.2413  0.3905  0.6495
14046TIP3    H163553   4.699   6.710   0.667  1.0730 -1.5566 -0.1421
14046TIP3    H263554   4.631   6.584   0.715  1.7004 -0.9672  2.3811
14047TIP3   OH263555   4.981   5.785   3.786  0.1627  0.3570  0.2046
14047TIP3    H163556   5.011   5.746   3.868 -0.1320 -0.8743 -0.2636
14047TIP3    H263557   4.888   5.760   3.780  0.2535  0.1845 -0.6395
14048TIP3   OH263558   0.035   6.276  11.240  0.0902  0.0628  0.1874
14048TIP3    H163559  -0.039   6.309  11.190  0.6152 -0.4598 -0.9466
14048TIP3    H263560   0.025   6.181  11.240 -0.6005  0.1182  2.1730
14049TIP3   OH263561   4.438   4.409   3.465 -0.4148  0.4421  0.2066
14049TIP3    H163562   4.431   4.504   3.465 -2.6851  0.2909 -0.5986
14049TIP3    H263563   4.406   4.383   3.551 -0.7817  0.3316  0.0351
14050TIP3   OH263564   1.296   1.991  12.766 -0.7230 -0.9470 -0.1658
14050TIP3    H163565   1.369   1.993  12.829 -0.6425  0.2681 -0.2788
14050TIP3    H263566   1.337   1.962  12.685  0.1185  1.7173 -0.7715
14051TIP3   OH263567   2.835   4.141  16.118  0.2710  0.2801  0.1863
14051TIP3    H163568   2.879   4.061  16.088 -0.5768 -0.1926  0.1937
14051TIP3    H263569   2.743   4.117  16.122  0.1158  1.0178  1.0075
14052TIP3   OH263570   2.172   6.330  12.712  0.4302  0.1067  0.2553
14052TIP3    H163571   2.216   6.305  12.631  0.9053  0.6897  0.3290
14052TIP3    H263572   2.232   6.304  12.781  1.1368  1.8107  0.3196
14053TIP3   OH263573   4.325   5.196  13.840  0.2362  0.3390  0.3926
14053TIP3    H163574   4.362   5.144  13.911  0.7920  1.0805  0.6626
14053TIP3    H263575   4.396   5.202  13.775  0.7830  2.1475  1.1134
14054TIP3   OH263576   5.799   2.922   2.628  0.2203  0.1286 -0.1871
14054TIP3    H163577   5.786   2.884   2.715 -1.9334  1.4637  0.1136
14054TIP3    H263578   5.759   2.859   2.568  1.4328 -0.6424 -0.2088
14055TIP3   OH263579   4.523   0.548  12.826  0.2622 -0.2213 -0.0459
14055TIP3    H163580   4.548   0.639  12.846 -2.1798  0.4131  0.2964
14055TIP3    H263581   4.539   0.539  12.732 -0.6927  0.9973 -0.3421
14056TIP3   OH263582   3.126   2.649  13.310 -0.3057 -0.3164 -0.3615
14056TIP3    H163583   3.166   2.601  13.382  0.4968  1.7246  0.5921
14056TIP3    H263584   3.064   2.587  13.271  0.0227 -1.7937  1.4043
14057TIP3   OH263585   0.943   5.841  13.052 -0.2039  0.3045  0.8370
14057TIP3    H163586   0.956   5.753  13.086 -1.1904 -0.4140 -0.5884
14057TIP3    H263587   1.032   5.873  13.033  0.0808 -0.9479  0.0125
14058TIP3   OH263588   6.495   3.245  13.779 -0.3062 -0.2154  0.4469
14058TIP3    H163589   6.491   3.329  13.735  1.5143  0.1402  0.9286
14058TIP3    H263590   6.586   3.216  13.768 -0.4854 -1.3166  1.7154
14059TIP3   OH263591   5.972   4.113   3.950 -0.2482  0.1484 -0.6146
14059TIP3    H163592   6.029   4.059   3.894  0.0123 -0.4816  0.2581
14059TIP3    H263593   6.009   4.104   4.038 -1.6206 -0.1489 -0.0653
14060TIP3   OH263594   0.529   5.829  17.181 -0.1092  0.4100  0.2535
14060TIP3    H163595   0.536   5.897  17.248  0.5872  0.3736  0.2206
14060TIP3    H263596   0.601   5.846  17.121 -0.0320 -0.2557  0.1500
14061TIP3   OH263597   4.186   5.778  16.508 -0.3348  0.7441 -0.0385
14061TIP3    H163598   4.281   5.779  16.503 -0.2527 -0.6323  0.9124
14061TIP3    H263599   4.165   5.809  16.596 -0.5794 -2.4292  1.1018
14062TIP3   OH263600   5.428   6.274  12.227  0.3310 -0.5537  0.5930
14062TIP3    H163601   5.499   6.258  12.291  1.7917 -1.7657 -1.2690
14062TIP3    H263602   5.408   6.187  12.192  0.7252  0.2982 -1.8066
14063TIP3   OH263603   6.413   4.746   1.314  0.6582 -0.2258  0.2664
14063TIP3    H163604   6.374   4.711   1.393  0.6071 -0.7948 -0.0092
14063TIP3    H263605   6.505   4.720   1.318  0.7141 -0.0344  0.2629
14064TIP3   OH263606   0.851   1.744   4.043 -0.0171 -0.2691  0.0649
14064TIP3    H163607   0.814   1.666   4.083  0.8663 -0.7499 -0.0453
14064TIP3    H263608   0.900   1.786   4.113  0.6172 -0.5265 -0.2242
14065TIP3   OH263609   6.614   4.360   2.838 -0.1218  0.7500 -0.0849
14065TIP3    H163610   6.623   4.267   2.860  0.8536  1.3223  2.1053
14065TIP3    H263611   6.703   4.394   2.841 -0.6286  2.0564  0.5959
14066TIP3   OH263612   4.671   2.837  14.248 -0.5641  0.6046 -0.4488
14066TIP3    H163613   4.633   2.920  14.276  2.6607  2.2359 -0.6542
14066TIP3    H263614   4.751   2.862  14.200  0.4015 -2.5886 -0.6340
14067TIP3   OH263615   5.262   4.824  13.880 -0.5738 -0.3187  0.2948
14067TIP3    H163616   5.197   4.763  13.845 -0.6023 -0.1065 -0.0222
14067TIP3    H263617   5.230   4.910  13.854 -0.0427 -0.2282 -0.0729
14068TIP3   OH263618   4.518   1.970   3.753 -0.4253 -0.5581 -0.2244
14068TIP3    H163619   4.432   1.988   3.716  1.0622  2.7722 -2.3375
14068TIP3    H263620   4.563   1.918   3.686 -0.3904 -1.3537  0.4047
14069TIP3   OH263621   0.734   5.879  14.568 -0.1122 -0.4266 -0.2308
14069TIP3    H163622   0.673   5.886  14.641  0.2987  2.0332 -0.0682
14069TIP3    H263623   0.819   5.867  14.608  0.1352  1.0835 -0.2751
14070TIP3   OH263624   5.439   3.905  12.588  0.0366 -0.2209  0.0493
14070TIP3    H163625   5.499   3.864  12.526 -0.8099  1.4253 -1.9012
14070TIP3    H263626   5.445   3.999  12.570 -1.4191  0.1585  1.3576
14071TIP3   OH263627   3.887   1.151  12.276  0.2354  0.7845 -0.3340
14071TIP3    H163628   3.816   1.129  12.215 -0.0822  2.3585 -0.5453
14071TIP3    H263629   3.951   1.197  12.221  0.3884  1.3629  0.3336
14072TIP3   OH263630   3.406   3.479   4.055 -0.2333  0.3396 -0.6241
14072TIP3    H163631   3.410   3.389   4.087  1.8845  0.6054 -0.0558
14072TIP3    H263632   3.354   3.474   3.975 -2.3377 -0.9693  0.7722
14073TIP3   OH263633   4.020   0.748   1.601  1.0030  0.5680 -0.7588
14073TIP3    H163634   4.006   0.764   1.508  0.5335 -3.3118 -1.4397
14073TIP3    H263635   3.936   0.769   1.641  0.5313  0.2124 -1.5424
14074TIP3   OH263636   2.271   2.475  13.896  0.5546 -0.3945 -0.5140
14074TIP3    H163637   2.340   2.415  13.867  0.2552 -1.0485  0.1360
14074TIP3    H263638   2.192   2.445  13.850  0.9887  1.2490 -2.4069
14075TIP3   OH263639   0.753   0.340  14.050  0.0939 -0.0867  0.0426
14075TIP3    H163640   0.697   0.266  14.029 -1.5241  0.9096  0.7537
14075TIP3    H263641   0.842   0.306  14.044 -0.6656 -2.3688  1.4700
14076TIP3   OH263642   0.874   5.517   5.722 -0.1080  0.1848 -0.2784
14076TIP3    H163643   0.940   5.492   5.658 -0.1111 -0.5152 -0.0064
14076TIP3    H263644   0.920   5.516   5.806 -0.2555  0.5156 -0.1928
14077TIP3   OH263645   0.379   1.538   1.098 -0.6505 -0.4358 -0.9605
14077TIP3    H163646   0.369   1.445   1.117 -0.5589 -0.4949 -1.2028
14077TIP3    H263647   0.293   1.576   1.117 -0.5274 -0.4787 -0.3269
14078TIP3   OH263648   1.040   0.360  14.046 -0.5197 -0.8623  0.2119
14078TIP3    H163649   1.111   0.359  14.110 -1.1991 -2.4579  0.9631
14078TIP3    H263650   1.041   0.449  14.010  2.4277 -1.1007 -0.4324
14079TIP3   OH263651   2.316   2.912  14.839 -0.3615  0.0430  0.0332
14079TIP3    H163652   2.328   2.961  14.757  1.0300  0.5808  0.5400
14079TIP3    H263653   2.333   2.977  14.908  1.7250 -1.1610  0.7173
14080TIP3   OH263654   4.711   6.110   3.996  0.3545 -0.4520  0.2930
14080TIP3    H163655   4.723   6.193   4.043 -0.1354  0.1612 -0.6501
14080TIP3    H263656   4.673   6.052   4.062  1.2368 -0.1143  1.1269
14081TIP3   OH263657   1.862   1.183   2.751 -0.3045 -0.0829 -0.4474
14081TIP3    H163658   1.769   1.189   2.728 -0.2751  2.5063 -0.0242
14081TIP3    H263659   1.904   1.147   2.673 -1.4059  0.5443 -1.3553
14082TIP3   OH263660   1.895   3.365   0.346 -0.0546 -0.2028 -0.0028
14082TIP3    H163661   1.831   3.408   0.403 -0.0844 -0.0053 -0.1825
14082TIP3    H263662   1.974   3.418   0.355 -0.1882  0.0766 -0.4725
14083TIP3   OH263663   5.908   0.716  15.321  0.1806  0.2008 -0.2785
14083TIP3    H163664   5.923   0.772  15.397 -1.3136 -0.7763  0.7688
14083TIP3    H263665   5.862   0.772  15.258 -1.1240  0.2329  0.6777
14084TIP3   OH263666   1.723   6.779   0.145  0.1004 -0.2646 -0.2021
14084TIP3    H163667   1.654   6.780   0.079  0.7907  0.1395 -0.9338
14084TIP3    H263668   1.780   6.706   0.118  0.3435 -0.1435 -0.0112
14085TIP3   OH263669   6.555   5.850   5.478  0.1393  0.0641  0.0084
14085TIP3    H163670   6.609   5.915   5.433  1.2628 -1.0300 -0.2561
14085TIP3    H263671   6.487   5.901   5.523 -0.1268  1.2763 -1.7273
14086TIP3   OH263672   1.696   3.279   0.139  0.3202  0.2080 -0.0106
14086TIP3    H163673   1.760   3.302   0.207  1.6033 -0.8761 -0.8413
14086TIP3    H263674   1.672   3.363   0.100  0.3621  0.7346  1.0706
14087TIP3   OH263675   1.843   4.619   3.250 -0.1564  0.0432 -0.3295
14087TIP3    H163676   1.832   4.708   3.284 -0.2315  0.4882 -1.4968
14087TIP3    H263677   1.929   4.592   3.281  0.3691  0.9758 -0.9685
14088TIP3   OH263678   2.610   3.632  16.401  0.2151 -0.4378 -0.0958
14088TIP3    H163679   2.701   3.647  16.424  0.2571 -1.9827  0.8174
14088TIP3    H263680   2.589   3.701  16.338  1.7082  0.5327  0.4533
14089TIP3   OH263681   6.660   0.274   6.068 -0.4817 -0.3089 -0.1966
14089TIP3    H163682   6.669   0.225   5.986 -0.6223 -0.8638  0.1193
14089TIP3    H263683   6.706   0.356   6.051 -2.2536  0.4448 -1.5350
14090TIP3   OH263684   6.165   3.746  13.466 -0.1296  0.4567 -0.1180
14090TIP3    H163685   6.236   3.774  13.523  0.4129 -1.2060  0.0509
14090TIP3    H263686   6.140   3.826  13.419  0.7798  1.4027  0.9536
14091TIP3   OH263687   6.661   2.779   4.916 -0.4874 -0.7194  0.3378
14091TIP3    H163688   6.684   2.871   4.930  0.1243 -0.8237  0.0228
14091TIP3    H263689   6.654   2.770   4.821 -1.7678 -0.7069  0.4238
14092TIP3   OH263690   3.987   2.537  15.390  0.4907 -0.2119  0.1421
14092TIP3    H163691   3.949   2.623  15.408  0.9289  0.5717 -2.4539
14092TIP3    H263692   3.925   2.494  15.331  0.6084 -1.3921  0.8666
14093TIP3   OH263693   4.163   3.914   2.904  0.3672  0.3509  0.0792
14093TIP3    H163694   4.181   3.953   2.819  1.2731  0.3070  0.2462
14093TIP3    H263695   4.171   3.819   2.889  1.9296  0.3940  0.5142
14094TIP3   OH263696   4.594   6.734   4.907  0.0414 -0.8365  0.2142
14094TIP3    H163697   4.555   6.699   4.826  0.7343  0.8267 -0.8689
14094TIP3    H263698   4.542   6.694   4.977 -1.6952 -0.9741 -1.1017
14095TIP3   OH263699   3.573   3.564   0.838  0.2702  0.3558  0.1721
14095TIP3    H163700   3.612   3.584   0.924 -1.5688 -1.0588  1.3735
14095TIP3    H263701   3.515   3.638   0.820 -0.1717  0.1392  0.6784
14096TIP3   OH263702   3.115   5.390  17.138 -0.1013  0.1444 -0.6927
14096TIP3    H163703   3.060   5.426  17.207 -0.0035  0.3354 -0.7133
14096TIP3    H263704   3.105   5.295  17.145 -0.3165  0.1739 -0.6042
14097TIP3   OH263705   1.097   1.515   2.788  0.4080 -0.0484  0.2227
14097TIP3    H163706   1.146   1.446   2.832  0.4994 -0.3472 -0.3415
14097TIP3    H263707   1.086   1.483   2.698 -0.3951  0.2269  0.2181
14098TIP3   OH263708   2.004   2.264   5.191  0.5065  0.0598  0.8060
14098TIP3    H163709   1.943   2.202   5.151  0.8462 -0.2114  0.7095
14098TIP3    H263710   2.088   2.245   5.150  0.5722  0.7212  0.6242
14099TIP3   OH263711   6.339   0.433   0.454 -0.0622  0.0026  0.3216
14099TIP3    H163712   6.382   0.512   0.486 -0.1575  0.4214 -0.5766
14099TIP3    H263713   6.246   0.451   0.463 -0.0828 -0.0274  0.1634
14100TIP3   OH263714   1.260   5.870   1.548  0.2913 -0.0441 -0.5091
14100TIP3    H163715   1.248   5.793   1.493 -0.9434  0.4932 -1.0200
14100TIP3    H263716   1.201   5.936   1.511 -0.1633  0.5046  1.1057
14101TIP3   OH263717   1.208   0.282  12.743 -0.4075 -0.2838 -0.4373
14101TIP3    H163718   1.279   0.346  12.742  0.2418 -1.0007 -1.0576
14101TIP3    H263719   1.239   0.211  12.686 -1.4073 -0.8307 -0.3113
14102TIP3   OH263720   5.332   5.020   5.088  0.3711  0.0451  0.1651
14102TIP3    H163721   5.382   4.940   5.073 -2.0269 -1.1276 -1.8713
14102TIP3    H263722   5.294   5.009   5.175  0.8858 -0.5442  0.3156
14103TIP3   OH263723   1.703   4.423   1.086 -0.8056 -0.1232  0.4038
14103TIP3    H163724   1.788   4.397   1.050 -0.4490 -0.2240  1.3069
14103TIP3    H263725   1.657   4.340   1.099 -1.1058 -0.0602 -0.2231
14104TIP3   OH263726   3.287   3.659   5.895  0.2827 -0.1864 -0.3553
14104TIP3    H163727   3.264   3.678   5.804  1.3888  2.3394 -0.1499
14104TIP3    H263728   3.261   3.738   5.943  2.3780 -0.3123  1.0422
14105TIP3   OH263729   2.558   3.566   5.587  0.1946  0.2104 -0.4171
14105TIP3    H163730   2.559   3.612   5.503  0.3852  0.2988 -0.3650
14105TIP3    H263731   2.541   3.634   5.651  0.7216  0.2496 -0.3151
14106TIP3   OH263732   0.866   5.877  15.248  0.0006  0.0694  0.2201
14106TIP3    H163733   0.861   5.958  15.299  2.1679 -0.8973  2.0868
14106TIP3    H263734   0.854   5.807  15.313 -1.5037 -1.1527 -1.3053
14107TIP3   OH263735   6.472   1.346  12.158 -0.2170  0.0242 -0.0013
14107TIP3    H163736   6.421   1.391  12.092  0.2752 -0.7365 -0.9111
14107TIP3    H263737   6.501   1.415  12.218 -1.5110  0.5758 -0.0049
14108TIP3   OH263738   3.715   4.818  12.377  0.3895 -0.5814  0.4339
14108TIP3    H163739   3.668   4.762  12.314  0.7774 -0.9503  0.4653
14108TIP3    H263740   3.681   4.906  12.361 -0.2985 -0.8440  0.4459
14109TIP3   OH263741   4.968   5.299  13.605  0.2281  0.1095 -0.1520
14109TIP3    H163742   5.038   5.271  13.664 -0.6672  1.1263  1.4417
14109TIP3    H263743   4.936   5.218  13.565  0.4234 -0.6904  1.2644
14110TIP3   OH263744   5.894   4.671   0.819  0.9230  0.1490  0.1292
14110TIP3    H163745   5.824   4.664   0.884 -0.6918  2.9400 -1.2149
14110TIP3    H263746   5.882   4.595   0.762  0.0081 -0.2771  0.8875
14111TIP3   OH263747   5.998   5.150  14.858  0.0669 -0.3458 -0.0579
14111TIP3    H163748   5.992   5.062  14.896 -1.0093 -0.1588  0.2069
14111TIP3    H263749   6.072   5.190  14.904 -0.0796 -0.7598  0.5464
14112TIP3   OH263750   2.198   5.279  14.909 -0.2293 -0.6642  0.0898
14112TIP3    H163751   2.282   5.315  14.937 -0.3227  0.0173 -0.5010
14112TIP3    H263752   2.201   5.283  14.814  0.1172 -3.0230 -0.0278
14113TIP3   OH263753   4.982   2.806   3.010 -0.5346  0.1502  0.7595
14113TIP3    H163754   4.963   2.893   3.047 -0.1217  0.5612  0.0266
14113TIP3    H263755   4.982   2.820   2.916  1.6221 -0.2093  0.6904
14114TIP3   OH263756   1.272   4.132  10.749  0.5170 -0.0269 -0.2597
14114TIP3    H163757   1.331   4.059  10.733 -0.1637 -0.7849  0.6175
14114TIP3    H263758   1.217   4.103  10.821 -0.0582  1.1834 -0.1944
14115TIP3   OH263759   6.068   5.079  12.825 -0.3656  0.1341  0.4002
14115TIP3    H163760   6.117   5.106  12.902 -1.0739  0.3167  0.7874
14115TIP3    H263761   6.105   5.130  12.753 -0.1476  0.4358  0.7302
14116TIP3   OH263762   4.573   0.693   3.081  0.1910  0.3122 -0.2549
14116TIP3    H163763   4.492   0.692   3.031  0.4844  1.4798 -0.7598
14116TIP3    H263764   4.626   0.763   3.042  1.4296 -0.4095  0.0857
14117TIP3   OH263765   6.527   2.751   4.294 -0.2290  0.3400  0.2737
14117TIP3    H163766   6.550   2.780   4.205  3.1778  0.0885  0.9927
14117TIP3    H263767   6.512   2.831   4.343 -0.8187  0.5342 -0.2315
14118TIP3   OH263768   1.763   0.496   0.527  0.4845 -0.0363 -0.0811
14118TIP3    H163769   1.697   0.501   0.596 -1.1892  1.8419 -1.7450
14118TIP3    H263770   1.817   0.421   0.551 -1.4624 -0.8332  2.0236
14119TIP3   OH263771   0.456   2.930   2.468 -0.3187  0.3128  0.7105
14119TIP3    H163772   0.547   2.905   2.450  0.0170  0.9634  1.4925
14119TIP3    H263773   0.404   2.872   2.413  0.5183 -1.0462  1.3274
14120TIP3   OH263774   3.313   4.784   4.036 -0.1995  0.2592 -0.6021
14120TIP3    H163775   3.300   4.709   4.094 -0.7877  1.4552  0.8322
14120TIP3    H263776   3.225   4.816   4.018  0.0352  0.4514 -1.4268
14121TIP3   OH263777   3.258   2.503  13.839  0.5647 -0.2685  0.2148
14121TIP3    H163778   3.213   2.502  13.923  0.8636 -0.4635  0.3736
14121TIP3    H263779   3.349   2.485  13.861  0.7389  0.2424 -0.0927
14122TIP3   OH263780   4.060   5.772  15.048 -0.0784 -0.5234 -0.2545
14122TIP3    H163781   4.080   5.680  15.068  0.5555 -0.4633 -0.6096
14122TIP3    H263782   4.093   5.785  14.960  1.7806  0.6479  0.5996
14123TIP3   OH263783   6.767   2.288  17.157  0.2466 -0.4953 -0.2447
14123TIP3    H163784   6.837   2.229  17.129  0.9478  0.0487  0.3502
14123TIP3    H263785   6.770   2.285  17.252  1.0985  1.4336 -0.1799
14124TIP3   OH263786   3.758   0.645   4.137 -0.1731  0.6292 -0.0961
14124TIP3    H163787   3.675   0.611   4.173  0.4030 -1.0704 -0.3259
14124TIP3    H263788   3.747   0.639   4.042 -0.2005  1.4106 -0.1382
14125TIP3   OH263789   6.076   6.425   0.182 -1.2092  0.5895 -0.3129
14125TIP3    H163790   6.056   6.481   0.257 -1.0234  0.1707  0.0487
14125TIP3    H263791   6.164   6.393   0.198 -1.6863 -0.5960 -0.0280
14126TIP3   OH263792   6.037   2.324  16.856  0.0748 -0.2007  0.5295
14126TIP3    H163793   6.057   2.240  16.896  0.5872  0.1907  1.1069
14126TIP3    H263794   6.072   2.389  16.918  0.6040  0.4131 -0.4094
14127TIP3   OH263795   1.123   3.683   2.617  0.4301  0.2027  0.0383
14127TIP3    H163796   1.194   3.643   2.567  0.6729  0.3241  0.2835
14127TIP3    H263797   1.089   3.613   2.672  0.5626  0.2244  0.1463
14128TIP3   OH263798   3.150   4.878   0.434 -0.4668  0.2825 -0.1395
14128TIP3    H163799   3.242   4.851   0.435 -0.2705  0.9221 -0.5790
14128TIP3    H263800   3.153   4.973   0.425 -1.1752  0.2747 -0.4789
14129TIP3   OH263801   2.245   5.553  15.450 -0.7866  0.0788 -0.2067
14129TIP3    H163802   2.214   5.499  15.522  1.2275 -1.8371 -0.7530
14129TIP3    H263803   2.220   5.506  15.371 -1.6388  1.4181 -0.7577
14130TIP3   OH263804   2.457   3.180  13.837  0.2727 -0.7626 -0.3233
14130TIP3    H163805   2.427   3.187  13.747 -1.1462  1.1119  0.2506
14130TIP3    H263806   2.391   3.125  13.880 -1.2738  1.5670  0.4295
14131TIP3   OH263807   2.258   3.643  13.035 -0.4256  0.4536 -0.4813
14131TIP3    H163808   2.221   3.651  13.122  0.3927  1.3229 -0.2045
14131TIP3    H263809   2.198   3.584  12.988 -1.0549  0.2691  0.5483
14132TIP3   OH263810   5.761   2.350  10.493 -0.1840 -0.5178 -0.2178
14132TIP3    H163811   5.813   2.275  10.523  0.5174  0.0879  0.1116
14132TIP3    H263812   5.708   2.374  10.568  1.4843  0.9232  0.5432
14133TIP3   OH263813   5.540   0.150  13.983 -0.4187  0.1466  0.2114
14133TIP3    H163814   5.632   0.134  14.002 -0.3331 -0.3217 -0.5631
14133TIP3    H263815   5.541   0.210  13.908 -0.7475  0.4283  0.4249
14134TIP3   OH263816   3.598   6.375   0.693 -0.0133  0.0785 -0.0572
14134TIP3    H163817   3.686   6.338   0.687  0.4253  0.8087  1.5857
14134TIP3    H263818   3.609   6.456   0.744 -1.9169 -0.7831  1.8061
14135TIP3   OH263819   0.173   5.361   4.310  0.3102  0.3044  0.3951
14135TIP3    H163820   0.111   5.399   4.247  0.9793  0.6423 -0.0744
14135TIP3    H263821   0.121   5.343   4.388 -0.5286 -0.0743 -0.2381
14136TIP3   OH263822   3.218   4.765  13.388  0.3810  0.0418  0.2848
14136TIP3    H163823   3.275   4.816  13.330 -1.0912 -0.3956 -1.5901
14136TIP3    H263824   3.164   4.713  13.329  0.1855 -1.8997  2.1115
14137TIP3   OH263825   3.600   0.858   3.079  0.0217  0.9942 -0.6470
14137TIP3    H163826   3.543   0.902   3.016  0.1645  2.3859  0.1745
14137TIP3    H263827   3.548   0.856   3.160 -0.5088 -1.5652 -1.0229
14138TIP3   OH263828   2.355   0.918   0.575 -0.0200 -0.5608 -0.5249
14138TIP3    H163829   2.440   0.888   0.609 -0.4585 -1.4393 -0.1919
14138TIP3    H263830   2.291   0.879   0.633 -0.6762 -0.1847 -0.9907
14139TIP3   OH263831   0.810   0.762   3.001 -0.0872  0.5983  0.3387
14139TIP3    H163832   0.786   0.697   2.935  0.9299 -3.1773  3.4942
14139TIP3    H263833   0.727   0.805   3.023 -0.8042  0.3311 -1.6928
14140TIP3   OH263834   6.306   3.129  14.978 -0.1666  0.2176  0.2656
14140TIP3    H163835   6.362   3.121  15.056  1.7894  0.6826 -1.0333
14140TIP3    H263836   6.270   3.041  14.965  2.1751 -0.7099 -0.2173
14141TIP3   OH263837   6.236   5.606  11.399 -0.8415  0.2968  0.2308
14141TIP3    H163838   6.147   5.628  11.370 -0.1675  0.6753 -1.5683
14141TIP3    H263839   6.286   5.687  11.387 -0.1875  0.0057  0.9815
14142TIP3   OH263840   2.185   5.981   3.006 -0.5567 -0.2132 -0.7355
14142TIP3    H163841   2.152   5.910   2.951 -1.6732 -0.3384  0.0780
14142TIP3    H263842   2.141   6.059   2.974  0.7245  0.1384 -1.6750
14143TIP3   OH263843   3.612   1.234  15.711 -0.1325 -0.7383  0.7864
14143TIP3    H163844   3.538   1.292  15.694  0.6009 -0.2057 -0.6632
14143TIP3    H263845   3.599   1.205  15.801 -1.9176 -0.3936  0.6609
14144TIP3   OH263846   0.012   2.425   2.225 -0.4174  0.4644 -0.0521
14144TIP3    H163847  -0.047   2.351   2.212 -0.8218  0.6407  0.7542
14144TIP3    H263848   0.021   2.433   2.320  0.4388  0.8100 -0.1556
14145TIP3   OH263849   6.137   1.096   2.514 -0.2025 -0.2331 -0.5195
14145TIP3    H163850   6.222   1.137   2.528  0.9450 -2.5931 -0.3269
14145TIP3    H263851   6.148   1.006   2.545 -3.0315 -0.3382  0.3130
14146TIP3   OH263852   6.459   6.075  16.951 -0.3569  0.3070 -0.1893
14146TIP3    H163853   6.374   6.115  16.936 -0.4445 -0.0769 -0.7140
14146TIP3    H263854   6.439   5.992  16.994 -0.2401  0.2439 -0.2586
14147TIP3   OH263855   2.342   4.614   4.981  0.7082 -0.5886 -0.0011
14147TIP3    H163856   2.386   4.698   4.973 -1.6743  0.6443 -0.5008
14147TIP3    H263857   2.413   4.549   4.975  2.3750  1.2923 -1.2750
14148TIP3   OH263858   5.604   0.450  15.480  0.3261  0.4756  0.3360
14148TIP3    H163859   5.670   0.436  15.412  0.7280 -1.4058  1.0960
14148TIP3    H263860   5.525   0.473  15.432  0.2728 -2.0565 -0.8686
14149TIP3   OH263861   1.309   4.379  11.312  0.6038  0.7041  0.2565
14149TIP3    H163862   1.275   4.293  11.285 -0.6727  1.5940 -1.0862
14149TIP3    H263863   1.262   4.399  11.393  1.3646 -0.1341  0.9094
14150TIP3   OH263864   2.597   3.371  16.749  0.1029 -0.1015 -0.0639
14150TIP3    H163865   2.510   3.387  16.788 -0.0961 -1.2074 -0.0532
14150TIP3    H263866   2.637   3.458  16.746 -2.5379  1.1143 -3.7347
14151TIP3   OH263867   5.964   4.163  13.593 -0.1706 -0.3712  0.2209
14151TIP3    H163868   6.006   4.172  13.678  1.8400  0.5975 -0.8515
14151TIP3    H263869   5.966   4.251  13.555  1.1752 -1.2395 -1.8196
14152TIP3   OH263870   0.893   2.987   1.064 -0.6335  0.2373 -0.2611
14152TIP3    H163871   0.984   2.999   1.037 -0.6454 -1.8926 -1.3344
14152TIP3    H263872   0.843   3.042   1.005 -0.0152  1.9921  0.8000
14153TIP3   OH263873   3.212   5.549  15.585 -0.8918 -0.0919  0.1379
14153TIP3    H163874   3.264   5.534  15.507 -1.2798  1.0196 -0.3344
14153TIP3    H263875   3.142   5.483  15.580  0.7267 -1.9103  1.0298
14154TIP3   OH263876   3.614   3.326   2.546  0.0144  0.3777  0.2326
14154TIP3    H163877   3.575   3.311   2.632  1.3235 -1.4455  0.5478
14154TIP3    H263878   3.628   3.238   2.511  1.4126  1.0566 -0.9539
14155TIP3   OH263879   4.753   2.627  16.817  0.5042 -0.3267  0.1547
14155TIP3    H163880   4.757   2.536  16.848  0.0761 -0.9886 -1.6561
14155TIP3    H263881   4.844   2.656  16.820  0.5585 -0.5779  1.3899
14156TIP3   OH263882   2.042   2.135   4.569  0.2521 -0.0779  0.0960
14156TIP3    H163883   1.951   2.109   4.562  0.5728 -0.8035 -1.4927
14156TIP3    H263884   2.092   2.058   4.540  1.4041 -0.0598  1.9345
14157TIP3   OH263885   1.963   0.132   0.986  0.1246 -0.4647 -1.0787
14157TIP3    H163886   1.944   0.146   1.079  1.8193  2.7518 -1.1440
14157TIP3    H263887   2.041   0.077   0.986  1.7423  1.7588 -0.4962
14158TIP3   OH263888   2.159   4.010  11.372  0.0123 -0.1342 -0.2209
14158TIP3    H163889   2.159   4.074  11.300  0.1434  0.5384  0.3776
14158TIP3    H263890   2.076   4.026  11.418  2.1636  2.9503  2.8723
14159TIP3   OH263891   2.482   4.218   4.789 -0.4977 -0.0558 -0.1353
14159TIP3    H163892   2.537   4.153   4.744  1.2074  1.6783 -0.6059
14159TIP3    H263893   2.424   4.252   4.721  0.1788  0.5528 -0.4151
14160TIP3   OH263894   3.994   6.439   0.867 -0.6138  0.2485  0.1111
14160TIP3    H163895   4.053   6.365   0.886  0.3848  1.1217  0.4554
14160TIP3    H263896   3.940   6.408   0.794 -0.2503 -0.8466  0.2893
14161TIP3   OH263897   4.567   5.629  16.997  0.3370  0.4272 -0.2687
14161TIP3    H163898   4.547   5.659  16.908 -2.2186  2.0294  0.7781
14161TIP3    H263899   4.539   5.538  16.998 -0.3763  0.6328 -0.9003
14162TIP3   OH263900   3.431   4.892  14.487  0.6530 -0.1761 -0.7637
14162TIP3    H163901   3.472   4.813  14.453  0.1142 -1.3730  1.3051
14162TIP3    H263902   3.396   4.866  14.572 -1.6222  1.6541 -1.1096
14163TIP3   OH263903   0.848   3.300   4.337 -0.4619 -0.6452 -0.3457
14163TIP3    H163904   0.890   3.299   4.252  0.6475 -1.3597  0.2043
14163TIP3    H263905   0.894   3.233   4.388 -3.1537 -2.4673 -0.1632
14164TIP3   OH263906   3.927   3.924   0.578  0.2654 -0.2762 -0.5886
14164TIP3    H163907   4.009   3.931   0.529  1.0435  1.0760  0.8755
14164TIP3    H263908   3.859   3.947   0.515  1.0558 -0.7997 -1.6496
14165TIP3   OH263909   4.304   1.073  12.947  0.3452 -0.7630  0.4622
14165TIP3    H163910   4.269   1.119  12.870  1.1932  0.5027  0.8235
14165TIP3    H263911   4.235   1.010  12.971  0.5172 -1.9342 -1.9703
14166TIP3   OH263912   3.879   4.245  16.460 -0.0138 -0.6336  0.1855
14166TIP3    H163913   3.963   4.199  16.457 -0.2289 -0.9984 -0.2194
14166TIP3    H263914   3.903   4.337  16.471  0.5244 -0.4485 -2.1520
14167TIP3   OH263915   2.626   5.713   5.266  0.1184  0.5603  0.0898
14167TIP3    H163916   2.586   5.800   5.261 -0.9678  0.0459 -0.2521
14167TIP3    H263917   2.571   5.658   5.211  0.8370 -0.3408  0.2579
14168TIP3   OH263918   0.056   4.119   4.784 -0.2634 -0.5899  0.0041
14168TIP3    H163919  -0.012   4.184   4.769  0.5363  0.2272 -0.1138
14168TIP3    H263920   0.136   4.170   4.797  0.4159 -1.5533 -0.3171
14169TIP3   OH263921   6.530   2.681   0.534  0.1733  0.8600  0.1856
14169TIP3    H163922   6.620   2.705   0.512  0.3783 -0.0650 -0.0011
14169TIP3    H263923   6.531   2.585   0.540 -0.4979  0.9175  1.4940
14170TIP3   OH263924   2.088   4.647   5.403  0.3518  0.0467 -0.1373
14170TIP3    H163925   2.048   4.565   5.429 -1.6039  1.3542  1.0641
14170TIP3    H263926   2.074   4.706   5.478 -1.0292  2.3996 -2.1817
14171TIP3   OH263927   4.025   1.046   4.402 -0.5309  0.0942  0.0308
14171TIP3    H163928   3.993   1.136   4.411 -1.3136 -0.2551  0.8821
14171TIP3    H263929   3.958   1.003   4.349  0.2786  0.2161 -1.1245
14172TIP3   OH263930   0.255   2.739   0.343  0.0074  0.3709  0.4308
14172TIP3    H163931   0.281   2.827   0.373  2.3783 -0.9696  2.4826
14172TIP3    H263932   0.188   2.712   0.406 -0.8340  0.7246 -0.2920
14173TIP3   OH263933   4.830   2.833  15.337 -0.4846 -0.8736  0.0113
14173TIP3    H163934   4.919   2.841  15.302 -0.7325 -1.6570 -0.7963
14173TIP3    H263935   4.838   2.864  15.427  0.5223 -0.5315 -0.1830
14174TIP3   OH263936   3.790   4.547   3.995 -0.3470  0.1747 -0.0067
14174TIP3    H163937   3.780   4.560   3.900 -0.1492 -0.5556 -0.1315
14174TIP3    H263938   3.704   4.514   4.023 -0.4355  0.4855  0.0836
14175TIP3   OH263939   5.433   3.275  12.443  0.1047 -0.2272 -0.6308
14175TIP3    H163940   5.382   3.355  12.426 -0.9518 -1.0715 -1.5230
14175TIP3    H263941   5.380   3.205  12.404  1.5808 -1.2170 -0.8727
14176TIP3   OH263942   3.683   2.603  11.662 -0.2184  0.0109  0.4793
14176TIP3    H163943   3.763   2.552  11.671 -1.0212 -1.2758  0.4487
14176TIP3    H263944   3.647   2.578  11.577 -0.0867  1.4132  0.0032
14177TIP3   OH263945   5.570   3.228   5.581 -0.1282  0.2358  0.1219
14177TIP3    H163946   5.559   3.270   5.666 -0.1815 -1.0704  0.7695
14177TIP3    H263947   5.648   3.173   5.592  1.0132  1.5162 -1.2638
14178TIP3   OH263948   4.920   3.955   2.170  0.1897  0.7479  0.1496
14178TIP3    H163949   4.932   3.867   2.133 -0.3622  0.6198  0.2648
14178TIP3    H263950   4.949   4.014   2.101  1.0763  0.4644  0.2718
14179TIP3   OH263951   5.106   2.430  16.840  0.0758 -0.4917  0.5368
14179TIP3    H163952   5.112   2.521  16.869 -0.8442  0.0507 -0.9411
14179TIP3    H263953   5.102   2.435  16.745 -0.3589 -2.0674  0.4590
14180TIP3   OH263954   0.062   1.729   5.645 -0.4690 -0.3902  0.2523
14180TIP3    H163955   0.135   1.745   5.706  1.0380 -1.4661 -1.2211
14180TIP3    H263956   0.018   1.652   5.681 -0.1641 -0.4426  0.5252
14181TIP3   OH263957   4.377   0.976   5.266  0.2760 -0.6955 -0.0509
14181TIP3    H163958   4.317   1.041   5.229  1.2555 -0.3729 -1.1027
14181TIP3    H263959   4.340   0.955   5.352 -1.0596 -0.1291 -0.4762
14182TIP3   OH263960   3.656   1.500  11.928 -0.2082  0.0863  0.2607
14182TIP3    H163961   3.657   1.405  11.938  0.7535 -0.0651 -1.2417
14182TIP3    H263962   3.740   1.529  11.962 -0.9032  0.5283  1.6778
14183TIP3   OH263963   1.717   2.510  10.506 -0.4048  0.1830  0.6391
14183TIP3    H163964   1.650   2.577  10.520 -0.2400  0.2933  0.8985
14183TIP3    H263965   1.798   2.559  10.496 -0.5401  0.1258 -0.9298
14184TIP3   OH263966   3.411   1.211  17.197 -0.7148 -0.5209 -0.0453
14184TIP3    H163967   3.424   1.117  17.183  0.2789 -0.3637 -0.2291
14184TIP3    H263968   3.368   1.242  17.118 -0.1711 -0.6527 -0.3980
14185TIP3   OH263969   6.672   6.724   0.752 -0.9216 -0.3997  0.5650
14185TIP3    H163970   6.679   6.636   0.791 -0.6267 -1.5472 -1.9953
14185TIP3    H263971   6.580   6.747   0.763 -1.0912 -1.1988  0.8568
14186TIP3   OH263972   3.158   4.034   1.656  0.1371  0.6175 -0.2088
14186TIP3    H163973   3.189   4.107   1.602 -0.1622  0.7404 -0.2182
14186TIP3    H263974   3.091   4.073   1.712 -1.8382 -0.1531 -1.9641
14187TIP3   OH263975   5.189   3.618  12.918  0.1657  0.1862  0.1399
14187TIP3    H163976   5.267   3.597  12.969  0.5707  1.7492  0.1905
14187TIP3    H263977   5.212   3.696  12.868 -0.9383 -0.0848 -0.8311
14188TIP3   OH263978   6.558   5.408   0.767 -0.4754  0.2572 -0.1393
14188TIP3    H163979   6.652   5.410   0.788 -0.8300 -1.9535  1.9942
14188TIP3    H263980   6.518   5.468   0.830 -0.9704 -2.5499  2.3763
14189TIP3   OH263981   1.855   0.667  12.908 -0.4008  0.0802  0.1470
14189TIP3    H163982   1.772   0.709  12.884 -0.9070 -0.7569  0.4393
14189TIP3    H263983   1.866   0.686  13.001  0.5119  1.5045 -0.2240
14190TIP3   OH263984   3.211   1.983   5.999  0.4084  0.3125  0.4748
14190TIP3    H163985   3.149   2.053   6.022  1.1401  1.0292  0.3169
14190TIP3    H263986   3.163   1.927   5.939  0.7141  2.2939 -1.6939
14191TIP3   OH263987   6.159   1.497  14.219  0.7202 -0.1726 -0.4344
14191TIP3    H163988   6.153   1.589  14.195 -0.1796 -0.0204  0.3768
14191TIP3    H263989   6.174   1.451  14.136  2.7490  0.8376 -0.6614
14192TIP3   OH263990   1.586   3.424   3.225 -0.0071 -0.4501 -0.4800
14192TIP3    H163991   1.681   3.411   3.231  0.1816  0.8899 -0.5185
14192TIP3    H263992   1.552   3.386   3.306  0.5030 -1.4479 -0.7260
14193TIP3   OH263993   5.690   1.826   2.780  0.4681 -0.1005  0.2064
14193TIP3    H163994   5.760   1.890   2.794  0.2103  0.3498 -0.5213
14193TIP3    H263995   5.611   1.879   2.768  0.5244 -0.4761 -2.0409
14194TIP3   OH263996   0.770   3.396  12.584 -0.0969 -0.0870  0.3035
14194TIP3    H163997   0.771   3.464  12.516 -1.3816  0.1767  0.5385
14194TIP3    H263998   0.820   3.434  12.656  0.1335  0.1695  0.0074
14195TIP3   OH263999   4.023   2.614  12.634  0.2679  0.2904 -0.2996
14195TIP3    H164000   3.983   2.627  12.548 -0.1306  0.1104 -0.1408
14195TIP3    H264001   4.100   2.672  12.634  0.6161 -0.1625 -1.0088
14196TIP3   OH264002   2.816   0.353  15.279 -0.2477  0.2056  0.1023
14196TIP3    H164003   2.743   0.415  15.288 -0.2241  0.0313  1.6525
14196TIP3    H264004   2.774   0.267  15.282  0.0409  0.0982  1.3239
14197TIP3   OH264005   5.783   3.947  17.041 -0.7467 -0.4333  0.1705
14197TIP3    H164006   5.862   3.930  17.093 -0.7925 -0.2599  0.2938
14197TIP3    H264007   5.812   4.006  16.971 -1.3282  1.7074  1.7133
14198TIP3   OH264008   6.552   0.000   2.504  0.2401  0.3261  0.2397
14198TIP3    H164009   6.477   0.022   2.560 -2.3079 -0.3829 -2.7510
14198TIP3    H264010   6.588   0.085   2.479 -0.1751  0.6971  0.8747
14199TIP3   OH264011   5.315   2.627   2.637 -0.5414  0.1816 -0.2656
14199TIP3    H164012   5.232   2.589   2.610 -0.6822  0.3938 -0.1272
14199TIP3    H264013   5.306   2.721   2.619 -0.1755  0.1463 -0.6555
14200TIP3   OH264014   4.856   1.309   3.243 -0.1137 -1.2430 -0.0582
14200TIP3    H164015   4.853   1.339   3.152 -1.7700 -0.5353  0.2056
14200TIP3    H264016   4.840   1.215   3.237  0.6939 -1.3558 -0.5589
14201TIP3   OH264017   0.289   3.366   3.492 -0.4952  0.5633  0.5662
14201TIP3    H164018   0.242   3.395   3.570 -0.7338 -1.5260  1.2043
14201TIP3    H264019   0.291   3.271   3.498  0.9082  0.4536 -1.1562
14202TIP3   OH264020   2.089   6.598   0.887 -0.4920 -0.3966  0.1373
14202TIP3    H164021   2.084   6.614   0.981 -1.1285 -0.1609  0.0633
14202TIP3    H264022   2.152   6.526   0.878 -0.4295 -0.4164  0.7387
14203TIP3   OH264023   5.995   6.725   4.309 -0.0916 -0.0739  0.1563
14203TIP3    H164024   5.900   6.714   4.305  0.0322 -3.0404  3.3533
14203TIP3    H264025   6.027   6.677   4.233 -1.0060 -1.5740  0.6994
14204TIP3   OH264026   1.794   3.425  16.165 -0.1468  0.0963  0.0131
14204TIP3    H164027   1.762   3.462  16.247  0.8882 -0.7734  0.8260
14204TIP3    H264028   1.741   3.346  16.152 -0.3805  0.2889 -0.2139
14205TIP3   OH264029   3.158   6.501   5.676  0.0942 -0.2273  0.0310
14205TIP3    H164030   3.207   6.513   5.757  2.6321  2.0031 -1.7462
14205TIP3    H264031   3.113   6.418   5.687  1.8117 -0.8297  2.9996
14206TIP3   OH264032   4.316   0.464  12.209 -0.0028  0.3537  0.3637
14206TIP3    H164033   4.348   0.538  12.261 -1.5960  1.1519  0.2490
14206TIP3    H264034   4.360   0.387  12.246 -0.0237  1.0888  1.9608
14207TIP3   OH264035   4.111   3.249   1.669 -0.4784 -0.4441  0.0254
14207TIP3    H164036   4.042   3.223   1.729 -0.0910  1.4912  1.3314
14207TIP3    H264037   4.192   3.220   1.712 -0.1995  0.9659  0.4548
14208TIP3   OH264038   6.264   2.641   4.603  0.3277 -0.0694 -0.0040
14208TIP3    H164039   6.317   2.720   4.587  0.0180  0.6007  2.0812
14208TIP3    H264040   6.238   2.648   4.694 -2.2984 -1.0493 -0.6261
14209TIP3   OH264041   6.383   0.020   1.902  0.3128 -0.0589 -0.5894
14209TIP3    H164042   6.321  -0.039   1.945 -0.7857  0.3927 -1.5309
14209TIP3    H264043   6.427   0.066   1.974 -2.0003  1.2111  0.0682
14210TIP3   OH264044   4.512   4.694  11.854 -0.4276  0.1119  0.1461
14210TIP3    H164045   4.446   4.627  11.836 -1.6021  1.4094 -0.4787
14210TIP3    H264046   4.595   4.651  11.834 -1.0047 -1.7156  1.4343
14211TIP3   OH264047   5.569   2.114   2.991  0.8408 -0.0101  0.1541
14211TIP3    H164048   5.503   2.119   2.923 -0.3550 -1.4176  1.1757
14211TIP3    H264049   5.643   2.069   2.950  0.2028 -0.6818 -0.2741
14212TIP3   OH264050   1.829   4.398  16.868  0.5112  0.4031 -0.1644
14212TIP3    H164051   1.873   4.313  16.877 -0.6406 -0.7210 -3.9933
14212TIP3    H264052   1.749   4.389  16.920  1.0550 -0.3783  0.5421
14213TIP3   OH264053   6.140   2.357  14.715  0.5469 -0.2616  0.6922
14213TIP3    H164054   6.099   2.273  14.734 -2.9957  0.8337 -1.6062
14213TIP3    H264055   6.189   2.378  14.794 -2.3834 -2.2320  3.1506
14214TIP3   OH264056   5.916   1.099   1.488  0.3421  0.4506 -0.0141
14214TIP3    H164057   5.917   1.195   1.490  0.3975  0.4366  0.9891
14214TIP3    H264058   5.839   1.077   1.436 -0.2938  1.0476  0.6489
14215TIP3   OH264059   1.720   2.784  11.290  0.0016 -0.1214  0.4198
14215TIP3    H164060   1.739   2.850  11.223  1.4842 -0.0764  0.8556
14215TIP3    H264061   1.798   2.728  11.290 -0.7556 -1.1987  0.8526
14216TIP3   OH264062   5.961   5.949  13.873  0.5117  0.0223  0.5004
14216TIP3    H164063   5.969   5.854  13.859 -2.3809 -0.4566  1.8316
14216TIP3    H264064   5.879   5.959  13.921  0.4859  3.2768 -0.1603
14217TIP3   OH264065   3.482   1.328  13.256 -0.0913 -0.5141 -0.1369
14217TIP3    H164066   3.466   1.255  13.317  0.9122  0.4498  1.3335
14217TIP3    H264067   3.406   1.385  13.267  0.0649 -0.3652  0.2172
14218TIP3   OH264068   1.960   6.769  14.832 -0.1529  0.1496 -0.4437
14218TIP3    H164069   2.029   6.804  14.775  1.8069 -0.6988  1.3514
14218TIP3    H264070   1.910   6.710  14.775  1.0802  0.1740 -1.5824
14219TIP3   OH264071   0.068   0.605   4.049 -0.0212 -0.1736 -0.3475
14219TIP3    H164072   0.159   0.631   4.037  0.2698 -0.1150  1.6873
14219TIP3    H264073   0.037   0.660   4.121 -2.3507  1.3637 -2.4453
14220TIP3   OH264074   3.786   0.886   1.977 -0.1148  0.0752 -0.0092
14220TIP3    H164075   3.739   0.803   1.987 -1.0915  0.5775 -0.3675
14220TIP3    H264076   3.758   0.919   1.892 -0.9132  1.5160  0.8019
14221TIP3   OH264077   3.651   0.620   4.469  0.5439  0.3229  0.3203
14221TIP3    H164078   3.638   0.712   4.492  1.4536  0.5429 -0.0189
14221TIP3    H264079   3.736   0.618   4.425  1.1021 -0.8681  1.4180
14222TIP3   OH264080   1.575   0.301   1.850  0.5275 -0.3121  0.4811
14222TIP3    H164081   1.482   0.300   1.829  0.5613 -0.5361  0.3503
14222TIP3    H264082   1.614   0.236   1.793  0.6213 -0.8951  1.1967
14223TIP3   OH264083   2.883   3.581  15.227 -0.1899 -0.3974  0.0002
14223TIP3    H164084   2.849   3.646  15.288  0.0691 -0.5378  0.2955
14223TIP3    H264085   2.954   3.538  15.275 -0.5624 -1.1106 -0.0806
14224TIP3   OH264086   3.930   6.150   4.051  0.1465 -0.8444 -0.1913
14224TIP3    H164087   3.855   6.182   4.001  1.8934  1.1740 -1.5950
14224TIP3    H264088   3.984   6.103   3.987  1.1024 -0.5060  0.3551
14225TIP3   OH264089   6.218   1.975   6.499  0.5189  0.0854  0.2967
14225TIP3    H164090   6.279   1.912   6.537  1.2495  2.2551  2.9947
14225TIP3    H264091   6.274   2.039   6.455  0.2275  1.8115  2.3460
14226TIP3   OH264092   2.903   3.291   1.253  0.6274  0.0234  0.3918
14226TIP3    H164093   2.971   3.235   1.215  0.6211 -0.0886  0.5458
14226TIP3    H264094   2.829   3.232   1.269  0.4807  0.1510  0.1923
14227TIP3   OH264095   0.289   2.925   1.866  0.2939 -0.0649 -0.2450
14227TIP3    H164096   0.300   2.979   1.945  0.6921  0.4233 -0.6360
14227TIP3    H264097   0.194   2.914   1.858  0.2132  0.5313 -0.1357
14228TIP3   OH264098   2.955   6.575  10.399  0.1273  0.3607  0.0341
14228TIP3    H164099   2.881   6.537  10.352 -0.1424  1.3754 -0.3623
14228TIP3    H264100   2.918   6.601  10.484  0.4222 -0.6802  0.4983
14229TIP3   OH264101   3.548   2.689  17.070 -0.3143 -0.0370 -0.0009
14229TIP3    H164102   3.498   2.769  17.090 -0.6003 -0.5890  1.5898
14229TIP3    H264103   3.601   2.674  17.148  0.3451 -0.9468 -0.6195
14230TIP3   OH264104   6.507   1.862   4.979  0.1548  0.4244  0.0442
14230TIP3    H164105   6.492   1.859   4.885 -0.6315  1.7431  0.1118
14230TIP3    H264106   6.572   1.931   4.991  0.5239  0.0160  0.4432
14231TIP3   OH264107   3.517   2.546  13.340  0.3547 -0.2243  0.0799
14231TIP3    H164108   3.537   2.500  13.259  1.1379 -1.2228  0.8341
14231TIP3    H264109   3.423   2.533  13.353  0.2143  0.0129 -0.7065
14232TIP3   OH264110   3.059   0.262   5.034 -0.2410 -0.0952  0.1419
14232TIP3    H164111   3.044   0.331   5.099 -1.2140 -0.7707  0.6436
14232TIP3    H264112   3.135   0.293   4.984 -1.0371  1.6163 -0.0328
14233TIP3   OH264113   3.501   0.130  14.807  0.7492  0.5386 -0.2468
14233TIP3    H164114   3.594   0.124  14.828  0.8310  0.1647 -0.6869
14233TIP3    H264115   3.497   0.187  14.730  0.9354 -1.8940 -2.1445
14234TIP3   OH264116   2.376   1.194   0.589  0.0937  0.1625  0.0108
14234TIP3    H164117   2.379   1.099   0.590 -0.0830  0.1598  1.5563
14234TIP3    H264118   2.335   1.216   0.505 -0.1707 -1.1293 -0.2060
14235TIP3   OH264119   1.025   2.930  13.700 -0.1171  0.4390  0.8403
14235TIP3    H164120   1.105   2.981  13.712 -0.0432  0.6007 -0.3004
14235TIP3    H264121   1.048   2.841  13.728  0.8105  0.2178 -0.6113
14236TIP3   OH264122   3.068   4.520  16.155  0.2847  0.1091 -0.2570
14236TIP3    H164123   3.070   4.459  16.229 -0.6347 -0.1996 -0.4865
14236TIP3    H264124   3.149   4.571  16.164  1.0373 -1.1154 -0.0458
14237TIP3   OH264125   6.327   3.575  14.326 -0.6858 -0.1703  0.1665
14237TIP3    H164126   6.249   3.604  14.278 -1.4191 -3.0981 -0.5068
14237TIP3    H264127   6.296   3.501  14.378  1.7143 -1.4974 -0.2722
14238TIP3   OH264128   4.955   3.737  12.768  0.0530 -0.4094 -1.0735
14238TIP3    H164129   5.031   3.713  12.820  0.9041  3.0523 -0.5814
14238TIP3    H264130   4.888   3.761  12.832  0.3014  1.5424 -1.5242
14239TIP3   OH264131   2.077   4.081   5.878 -0.5349 -0.3445  0.6326
14239TIP3    H164132   2.171   4.077   5.860 -0.8578 -1.3062 -0.9606
14239TIP3    H264133   2.070   4.130   5.960  1.1146  3.1538 -1.1916
14240TIP3   OH264134   6.363   6.184   0.517  0.3859 -0.1173  0.3671
14240TIP3    H164135   6.279   6.140   0.508  0.2418  0.1987  0.1542
14240TIP3    H264136   6.341   6.277   0.528  0.8099  0.6332 -4.1492
14241TIP3   OH264137   4.735   5.592   2.036 -0.5936  0.1801 -1.1767
14241TIP3    H164138   4.782   5.636   1.965  0.1068  0.3985 -0.5774
14241TIP3    H264139   4.796   5.593   2.110 -1.3926  0.1276 -0.5091
14242TIP3   OH264140   0.640   6.734   6.557 -0.0769  0.4295 -0.2241
14242TIP3    H164141   0.618   6.738   6.650  0.4316 -1.6227  0.0012
14242TIP3    H264142   0.573   6.788   6.515 -2.4738 -1.5027  0.9910
14243TIP3   OH264143   4.709   1.856  11.412  0.3753  0.1573 -0.2686
14243TIP3    H164144   4.668   1.942  11.408  0.7864  0.3365 -0.6476
14243TIP3    H264145   4.641   1.795  11.384 -0.1573  0.2761  0.7293
14244TIP3   OH264146   6.411   4.558  12.586  0.1741 -0.2735 -0.2672
14244TIP3    H164147   6.399   4.629  12.649  0.2042 -0.0831 -0.4735
14244TIP3    H264148   6.361   4.485  12.622 -0.6151  0.1357 -0.5141
14245TIP3   OH264149   2.607   5.635   0.901  0.4900 -0.0418  0.0851
14245TIP3    H164150   2.537   5.664   0.842  1.5971 -0.2462 -1.3504
14245TIP3    H264151   2.608   5.540   0.891 -0.7128 -0.2786  2.0377
14246TIP3   OH264152   1.167   4.566  14.247  0.0430 -0.3422 -0.3127
14246TIP3    H164153   1.144   4.477  14.272  0.2555 -0.2165  0.3534
14246TIP3    H264154   1.193   4.560  14.155 -0.9673 -0.7733 -0.5671
14247TIP3   OH264155   6.012   5.053   5.194  0.3974  0.1937  0.4165
14247TIP3    H164156   5.960   5.020   5.267 -0.0412 -0.5344 -0.2274
14247TIP3    H264157   5.958   5.123   5.156  0.7713  0.8028  0.9891
14248TIP3   OH264158   0.305   0.363  12.482 -0.3189  0.2983  0.2457
14248TIP3    H164159   0.216   0.331  12.497 -0.1565  0.0381  0.6668
14248TIP3    H264160   0.331   0.322  12.400 -0.6785  0.5673 -0.0007
14249TIP3   OH264161   0.956   0.354   0.211 -0.0689 -0.0611 -0.1115
14249TIP3    H164162   0.880   0.298   0.198 -0.9883  1.1721 -0.1475
14249TIP3    H264163   0.989   0.330   0.298 -0.9884 -0.0394  0.2477
14250TIP3   OH264164   4.454   6.402   5.263 -0.3947 -0.6183 -0.0795
14250TIP3    H164165   4.511   6.356   5.200  2.0553 -0.0432  1.6649
14250TIP3    H264166   4.487   6.377   5.349 -0.2074  2.8823  0.9531
14251TIP3   OH264167   1.985   4.137  12.030  0.0344 -0.0129 -0.0351
14251TIP3    H164168   1.898   4.177  12.021 -1.0719 -2.5388 -0.9518
14251TIP3    H264169   2.016   4.128  11.940  0.0530 -1.6168  0.1207
14252TIP3   OH264170   5.552   0.326  13.722  0.3619 -0.0812 -0.4924
14252TIP3    H164171   5.574   0.260  13.657  0.3935  0.0511 -0.6179
14252TIP3    H264172   5.477   0.373  13.684 -0.2010 -0.5985 -0.0232
14253TIP3   OH264173   4.788   5.465   0.970  0.8351 -0.3577 -0.3889
14253TIP3    H164174   4.777   5.459   0.875  0.7645  2.0168 -0.5552
14253TIP3    H264175   4.865   5.520   0.982 -0.1980  0.8449  0.9322
14254TIP3   OH264176   2.181   3.581   2.870 -0.2091  0.1943  0.0582
14254TIP3    H164177   2.135   3.624   2.798  1.0096  0.3583 -0.6460
14254TIP3    H264178   2.182   3.488   2.846  0.2493  0.2573 -0.1716
14255TIP3   OH264179   1.619   1.913  12.994 -0.6097  0.0843 -0.2920
14255TIP3    H164180   1.713   1.922  12.980 -0.5543  0.1758  0.1426
14255TIP3    H264181   1.610   1.889  13.086 -1.0325  0.4326 -0.2412
14256TIP3   OH264182   2.656   1.350  15.803  0.0376  0.3265  0.3430
14256TIP3    H164183   2.725   1.336  15.738 -0.4016  0.3695 -0.1397
14256TIP3    H264184   2.642   1.445  15.802 -0.4677  0.2544 -0.0281
14257TIP3   OH264185   0.253   0.068   1.957  0.0875  0.0150 -0.4325
14257TIP3    H164186   0.272   0.085   2.049 -2.7211  0.2140  0.1447
14257TIP3    H264187   0.231   0.154   1.921  1.0311 -0.0846 -1.2646
14258TIP3   OH264188   5.524   4.007  17.110  0.3660 -0.1374  0.0063
14258TIP3    H164189   5.615   4.003  17.080 -0.2424  1.4138 -2.0735
14258TIP3    H264190   5.527   3.970  17.199  3.3672  1.7566  0.7567
14259TIP3   OH264191   5.691   3.420   0.408 -0.3046  0.2561  0.4005
14259TIP3    H164192   5.639   3.415   0.328 -0.6914 -2.6476  0.7874
14259TIP3    H264193   5.773   3.376   0.386  0.5637  1.6072  0.8815
14260TIP3   OH264194   3.960   0.585   5.944  0.4837  0.4628 -0.3310
14260TIP3    H164195   3.960   0.516   5.878  0.0916 -0.4995  0.6466
14260TIP3    H264196   4.045   0.577   5.988  0.7056  1.0367 -0.6449
14261TIP3   OH264197   2.656   5.502  14.016  0.3810 -0.1990 -0.1467
14261TIP3    H164198   2.620   5.414  14.006  0.4940 -0.0394 -2.1665
14261TIP3    H264199   2.693   5.523  13.931  1.0147  1.5296  0.5191
14262TIP3   OH264200   6.320   0.902  17.231  0.0384  0.1633  0.3800
14262TIP3    H164201   6.278   0.853  17.303 -0.0724  0.9912  0.8874
14262TIP3    H264202   6.291   0.857  17.152 -1.3095  0.3414  0.7621
14263TIP3   OH264203   2.738   6.286   4.198 -0.5156 -0.1085  0.1725
14263TIP3    H164204   2.822   6.263   4.157  0.1305  1.5195  0.5668
14263TIP3    H264205   2.672   6.245   4.142  0.5027 -0.5145 -0.7382
14264TIP3   OH264206   6.719   2.014  14.708 -0.2614 -0.4616  0.4089
14264TIP3    H164207   6.765   1.966  14.639  0.0133  0.2940  0.0490
14264TIP3    H264208   6.652   2.064  14.661 -0.4903 -0.4371  0.7642
14265TIP3   OH264209   1.137   5.303   4.387  0.3378 -0.5721  0.1359
14265TIP3    H164210   1.106   5.375   4.442  0.6186 -0.6380  0.3856
14265TIP3    H264211   1.187   5.346   4.318 -0.5938 -0.4389 -0.4728
14266TIP3   OH264212   5.729   2.854  12.292 -0.3928 -0.0426 -0.5161
14266TIP3    H164213   5.648   2.902  12.303 -1.0433 -1.1382 -0.4544
14266TIP3    H264214   5.746   2.856  12.198  0.3429  1.5098 -0.3677
14267TIP3   OH264215   4.884   2.428   1.982 -0.3933  0.6369 -0.1416
14267TIP3    H164216   4.903   2.518   1.954  0.1549  0.8019  0.7301
14267TIP3    H264217   4.818   2.397   1.920 -1.6154  2.1232  0.3919
14268TIP3   OH264218   6.386   5.373  11.354 -0.2294 -0.1160 -0.6941
14268TIP3    H164219   6.458   5.424  11.390 -0.9905 -0.6111  1.6407
14268TIP3    H264220   6.310   5.398  11.406 -1.1557 -1.6703 -1.2425
14269TIP3   OH264221   1.086   4.335   1.000 -0.3284 -0.7336  0.3309
14269TIP3    H164222   1.053   4.253   1.036  0.9618 -0.4185  2.3088
14269TIP3    H264223   1.051   4.402   1.059 -0.5128  0.0621 -0.6638
14270TIP3   OH264224   3.601   6.497   2.914  0.1663 -0.1613  0.1900
14270TIP3    H164225   3.673   6.502   2.977 -0.2963  0.0703  0.6926
14270TIP3    H264226   3.582   6.404   2.906  0.2763 -0.1953  0.3267
14271TIP3   OH264227   3.715   2.830   1.494  0.3078  0.3223  0.4523
14271TIP3    H164228   3.774   2.762   1.460 -1.0019 -0.6856  0.1767
14271TIP3    H264229   3.749   2.911   1.455 -0.4092 -0.6460 -2.3706
14272TIP3   OH264230   1.068   5.405   0.188  0.2001  0.0218 -0.0693
14272TIP3    H164231   1.162   5.388   0.186  0.1942 -0.2447  1.5264
14272TIP3    H264232   1.058   5.481   0.245 -0.8204 -1.9347  2.4744
14273TIP3   OH264233   1.352   6.337  13.279 -0.2364  0.1143  0.2648
14273TIP3    H164234   1.394   6.419  13.251 -1.1337 -0.0973 -1.7896
14273TIP3    H264235   1.277   6.366  13.332 -0.9500  0.6653 -1.0237
14274TIP3   OH264236   2.444   6.265   1.343  0.0624 -0.3565  0.3463
14274TIP3    H164237   2.492   6.220   1.413 -0.4620  1.0338  1.6274
14274TIP3    H264238   2.484   6.351   1.339 -0.7640  0.0034 -0.2133
14275TIP3   OH264239   6.444   0.447  16.077 -0.0799  0.7629 -0.5272
14275TIP3    H164240   6.499   0.482  16.148 -1.8821  0.7689  0.8935
14275TIP3    H264241   6.377   0.514  16.064 -3.6671 -2.1119  2.3158
14276TIP3   OH264242   3.114   1.049  12.137 -0.2112 -0.5122  0.0478
14276TIP3    H164243   3.019   1.055  12.138 -0.0959  1.4398 -0.1777
14276TIP3    H264244   3.137   1.016  12.224 -0.9856  0.6416  0.6900
14277TIP3   OH264245   6.605   1.757  14.611  0.1768 -0.5611 -0.2485
14277TIP3    H164246   6.677   1.728  14.554 -0.3305 -1.0009 -0.6703
14277TIP3    H264247   6.644   1.764  14.698  1.3404  1.5336 -0.8915
14278TIP3   OH264248   0.368   4.321  12.186  0.3341 -0.1221 -0.0094
14278TIP3    H164249   0.303   4.276  12.132 -0.4865  1.1100 -0.0774
14278TIP3    H264250   0.339   4.308  12.276  0.0852  0.2787 -0.0305
14279TIP3   OH264251   1.790   3.087  11.562 -0.0703  0.3503 -0.0510
14279TIP3    H164252   1.845   3.117  11.489  0.6746  0.1207  0.4136
14279TIP3    H264253   1.700   3.102  11.531  0.2471  4.2700  0.6211
14280TIP3   OH264254   0.777   2.226   0.252  1.1073 -0.0374  0.3246
14280TIP3    H164255   0.772   2.230   0.157  1.3453  0.8689  0.3514
14280TIP3    H264256   0.859   2.178   0.270 -0.0322 -2.1657  0.0646
14281TIP3   OH264257   6.726   6.374  11.648  0.0607  0.3203  0.1100
14281TIP3    H164258   6.692   6.304  11.593  0.1114 -1.1921  1.9773
14281TIP3    H264259   6.817   6.383  11.621  0.2542 -0.8248  0.3588
14282TIP3   OH264260   0.582   0.519  11.280 -0.1230  0.1356 -0.7101
14282TIP3    H164261   0.517   0.491  11.215 -0.5799 -0.1056 -0.1433
14282TIP3    H264262   0.591   0.445  11.340  1.3216 -0.1740 -1.2807
14283TIP3   OH264263   2.752   4.143   3.562  0.3624 -0.2460 -0.1240
14283TIP3    H164264   2.686   4.192   3.513  0.5786 -0.7812 -0.9563
14283TIP3    H264265   2.809   4.210   3.600 -0.3568  0.1993  0.1693
14284TIP3   OH264266   4.247   5.129   5.626  0.0994  0.2022 -0.5109
14284TIP3    H164267   4.336   5.161   5.641  0.3012 -0.9154  0.8455
14284TIP3    H264268   4.193   5.177   5.689 -0.3223  1.1519 -1.5923
14285TIP3   OH264269   1.101   5.000  16.262 -0.0150 -0.2216  0.4121
14285TIP3    H164270   1.177   5.056  16.276  0.5411 -0.8586 -0.0838
14285TIP3    H264271   1.076   5.016  16.171 -0.6519  0.2069  0.6600
14286TIP3   OH264272   4.763   5.282  11.672 -0.2053 -0.4019 -0.2132
14286TIP3    H164273   4.828   5.287  11.602  0.9778 -0.5725  0.8576
14286TIP3    H264274   4.806   5.232  11.741 -1.5690 -0.7363  0.4166
14287TIP3   OH264275   1.418   0.823  12.900  0.1653 -0.1326  0.5307
14287TIP3    H164276   1.499   0.840  12.851  0.2284  0.1042  0.7164
14287TIP3    H264277   1.385   0.910  12.922 -0.6748 -0.2057 -0.4092
14288TIP3   OH264278   5.373   2.421   4.890  0.7361  0.2550 -0.1174
14288TIP3    H164279   5.430   2.349   4.864  0.6387  0.2759 -0.3889
14288TIP3    H264280   5.284   2.389   4.871  0.6301  0.0622  0.6765
14289TIP3   OH264281   5.519   2.512   4.101 -0.4410  0.1198 -0.0330
14289TIP3    H164282   5.451   2.569   4.066  1.1289  2.1034  0.0438
14289TIP3    H264283   5.533   2.447   4.032 -1.4934  0.4725 -0.5937
14290TIP3   OH264284   4.600   2.872  14.576  0.5808  0.5366 -0.0712
14290TIP3    H164285   4.603   2.777  14.573 -0.2638  0.4060  2.5148
14290TIP3    H264286   4.524   2.895  14.521 -0.7676 -0.4245  1.3721
14291TIP3   OH264287   6.133   2.537  17.033 -0.4921 -0.0667 -0.2747
14291TIP3    H164288   6.062   2.592  17.067  0.6280 -0.2267  2.4369
14291TIP3    H264289   6.213   2.580  17.063  0.6247  0.2703 -3.5449
14292TIP3   OH264290   2.621   2.860   0.087 -0.1789 -0.4131 -0.4014
14292TIP3    H164291   2.685   2.897   0.027  1.5668 -1.3294  0.8345
14292TIP3    H264292   2.659   2.776   0.115 -1.2487 -0.3265  1.4415
14293TIP3   OH264293   6.179   6.468  16.436  0.5088  0.0199 -0.1253
14293TIP3    H164294   6.269   6.454  16.405  1.1563  1.5784  0.9507
14293TIP3    H264295   6.166   6.563  16.429 -0.7243 -0.0873  0.5676
14294TIP3   OH264296   4.323   5.911  11.185  0.1840 -0.1486  0.2527
14294TIP3    H164297   4.248   5.948  11.231 -0.4194 -1.0315  0.0016
14294TIP3    H264298   4.400   5.950  11.227 -0.4210  1.0763  0.2396
14295TIP3   OH264299   5.971   4.450  14.439 -0.0026  0.3374  0.2891
14295TIP3    H164300   5.930   4.471  14.523 -0.6188  2.9844 -0.6176
14295TIP3    H264301   5.898   4.423  14.383  0.2353 -0.2108  0.2403
14296TIP3   OH264302   0.550   5.467   4.490 -0.4047 -0.4718 -0.1448
14296TIP3    H164303   0.583   5.379   4.475 -1.1744 -1.1639  2.0381
14296TIP3    H264304   0.476   5.456   4.549 -0.9407  1.5742 -0.3781
14297TIP3   OH264305   3.506   6.403  12.564  0.4658  0.1180  0.2114
14297TIP3    H164306   3.545   6.367  12.485  0.2682  0.7763 -0.1938
14297TIP3    H264307   3.488   6.495  12.542  0.7109  0.3887  1.1288
14298TIP3   OH264308   2.202   0.125  13.225 -0.0401 -0.6395 -0.6577
14298TIP3    H164309   2.185   0.213  13.190 -0.3856 -1.3067 -2.2264
14298TIP3    H264310   2.222   0.072  13.147  0.0144 -1.9774  0.2522
14299TIP3   OH264311   3.290   3.661  15.822 -0.4137 -0.4241 -0.2010
14299TIP3    H164312   3.281   3.751  15.790  1.6633  0.4639  1.5128
14299TIP3    H264313   3.359   3.623  15.767 -0.7539 -0.7063 -0.4277
14300TIP3   OH264314   4.466   6.608  11.944 -0.1648 -0.1143 -0.5288
14300TIP3    H164315   4.532   6.540  11.953  0.0912  0.2567  0.4614
14300TIP3    H264316   4.418   6.606  12.027 -0.3788  0.6643 -0.6312
14301TIP3   OH264317   4.854   1.621   1.126  0.5061 -0.1165  0.1321
14301TIP3    H164318   4.938   1.660   1.101  1.0165 -0.6559  0.9803
14301TIP3    H264319   4.876   1.560   1.196 -0.4783 -0.9226 -0.2485
14302TIP3   OH264320   2.890   5.514   0.829 -0.5405  0.4256 -0.4132
14302TIP3    H164321   2.879   5.572   0.754 -1.3728  1.0631  0.1925
14302TIP3    H264322   2.983   5.491   0.829 -0.6292  0.0571 -1.9082
14303TIP3   OH264323   0.401   1.705  14.874 -0.1191 -0.0201  0.4094
14303TIP3    H164324   0.328   1.667  14.922  2.2031 -1.5922  2.7970
14303TIP3    H264325   0.386   1.800  14.880 -0.4140 -0.2124  3.4118
14304TIP3   OH264326   6.754   6.743   4.201  0.2461 -0.6017  0.4388
14304TIP3    H164327   6.795   6.690   4.133  0.8865 -0.3560  0.6337
14304TIP3    H264328   6.823   6.802   4.231 -0.1762 -0.3590  0.9433
14305TIP3   OH264329   3.847   6.041  16.008  0.2900  0.0905 -0.2382
14305TIP3    H164330   3.885   6.064  16.093  0.5161 -1.5711  0.1341
14305TIP3    H264331   3.920   6.047  15.946  0.1680  1.1181 -0.2856
14306TIP3   OH264332   3.468   2.258   4.429  0.4967  0.1520  0.1854
14306TIP3    H164333   3.485   2.182   4.485 -0.3435  0.7092  1.2223
14306TIP3    H264334   3.397   2.229   4.371  0.6105 -0.0629  0.1537
14307TIP3   OH264335   5.582   4.394  11.841  0.1725  0.3655  0.0102
14307TIP3    H164336   5.493   4.427  11.854  0.2588  0.7600 -0.3829
14307TIP3    H264337   5.592   4.388  11.746  0.2012 -0.6926  0.0759
14308TIP3   OH264338   6.533   3.650   0.032  0.0512 -0.2727  0.1678
14308TIP3    H164339   6.548   3.681  -0.058 -0.4010 -1.0676 -0.1840
14308TIP3    H264340   6.620   3.626   0.064  0.0060 -1.5072 -0.6210
14309TIP3   OH264341   3.330   2.825   2.523 -0.0230 -0.2662 -0.4342
14309TIP3    H164342   3.339   2.917   2.548  0.2034 -0.7540  1.3321
14309TIP3    H264343   3.274   2.826   2.445 -0.9320  1.2789  0.2329
14310TIP3   OH264344   5.749   1.241   2.809 -0.3867  0.1102  0.0785
14310TIP3    H164345   5.781   1.305   2.745  1.2613 -0.9105 -0.1195
14310TIP3    H264346   5.658   1.225   2.783  0.5170 -0.9450 -2.5459
14311TIP3   OH264347   4.608   5.154   3.672  0.1023  0.6773  0.9394
14311TIP3    H164348   4.522   5.189   3.649  0.1190 -0.8961 -1.7166
14311TIP3    H264349   4.590   5.067   3.708  0.5263  0.6847  1.1754
14312TIP3   OH264350   4.924   3.134   4.509  0.1099 -0.4714 -0.0882
14312TIP3    H164351   5.004   3.155   4.557  0.2532  0.4204 -0.7077
14312TIP3    H264352   4.953   3.082   4.435  0.1957  0.4021 -0.6732
14313TIP3   OH264353   2.059   5.728  14.556  0.5260  0.1707  0.5289
14313TIP3    H164354   2.038   5.802  14.614 -1.0053  0.1461  0.0438
14313TIP3    H264355   2.079   5.769  14.472  0.4187  0.0756  0.4568
14314TIP3   OH264356   0.378   0.434  14.463  0.3544 -0.0022  0.2812
14314TIP3    H164357   0.391   0.414  14.370  0.4552 -0.3935  0.3790
14314TIP3    H264358   0.334   0.518  14.463 -0.8181 -0.6060 -0.1524
14315TIP3   OH264359   5.839   5.417   5.384 -0.0320  0.3740 -0.0843
14315TIP3    H164360   5.789   5.419   5.303 -0.2498 -0.9917 -0.0053
14315TIP3    H264361   5.817   5.498   5.429 -1.6012  0.1320 -0.3893
14316TIP3   OH264362   2.075   6.001  16.643  0.2965 -0.1230  0.3137
14316TIP3    H164363   2.141   5.998  16.712  0.3964 -1.4946  0.1784
14316TIP3    H264364   1.992   5.983  16.689 -0.2968  3.5008  0.8130
14317TIP3   OH264365   4.184   6.781  16.583  0.6877 -0.2259 -0.2119
14317TIP3    H164366   4.268   6.826  16.593  0.8724 -0.3587 -1.0748
14317TIP3    H264367   4.195   6.699  16.630  1.5524 -0.8794 -1.5036
14318TIP3   OH264368   5.139   0.305   1.810  0.2579 -0.5238  0.1580
14318TIP3    H164369   5.184   0.387   1.831  1.4221 -0.9290 -0.6972
14318TIP3    H264370   5.150   0.295   1.716 -1.0868 -0.9630  0.0353
14319TIP3   OH264371   0.644   6.737   0.703 -0.0674 -0.4909 -0.8114
14319TIP3    H164372   0.556   6.703   0.687 -1.1745  1.6391  0.4121
14319TIP3    H264373   0.651   6.814   0.647  0.9692 -0.5906 -0.8304
14320TIP3   OH264374   6.557   3.134  16.959 -0.0729 -0.4696 -0.5625
14320TIP3    H164375   6.488   3.193  16.928  0.1535 -0.0822 -0.3398
14320TIP3    H264376   6.598   3.182  17.032 -0.6905 -1.4252  0.4265
14321TIP3   OH264377   1.646   0.037   4.612 -0.7337  0.4061 -0.2907
14321TIP3    H164378   1.595   0.101   4.661  0.1196 -0.6020  1.9713
14321TIP3    H264379   1.665  -0.033   4.675  1.8202 -0.1524 -1.5848
14322TIP3   OH264380   3.607   5.077  14.083 -0.1489 -0.1000 -0.0723
14322TIP3    H164381   3.649   5.039  14.161 -0.8389 -1.6801 -0.4592
14322TIP3    H264382   3.670   5.061  14.012 -0.7464 -1.1775 -0.3709
14323TIP3   OH264383   0.573   5.590   1.494 -0.0208 -0.0255  0.1490
14323TIP3    H164384   0.483   5.579   1.464  0.3026  0.0344 -0.8407
14323TIP3    H264385   0.626   5.539   1.433  0.8030  1.4967 -0.4286
14324TIP3   OH264386   1.002   3.572  14.385  0.0037  0.4139 -0.6378
14324TIP3    H164387   0.908   3.589  14.384 -0.2225 -0.7586  0.2777
14324TIP3    H264388   1.040   3.651  14.424 -0.6577  0.6414 -0.4425
14325TIP3   OH264389   1.941   6.659  14.407 -0.2005  0.2265  0.3568
14325TIP3    H164390   1.909   6.657  14.497  0.6315  0.1862  0.6541
14325TIP3    H264391   1.872   6.617  14.356 -0.9201  0.7549  0.8931
14326TIP3   OH264392   4.762   3.771  15.368 -0.0066  0.3331  0.3451
14326TIP3    H164393   4.701   3.804  15.303  1.0088 -1.6810 -1.7157
14326TIP3    H264394   4.842   3.821  15.354  0.2009 -0.0750  0.0769
14327TIP3   OH264395   1.916   5.332  16.122 -0.3826 -0.0090 -0.0246
14327TIP3    H164396   1.940   5.394  16.191 -1.2847  1.1706 -0.7454
14327TIP3    H264397   1.921   5.246  16.164  1.0981  0.5192  0.9312
14328TIP3   OH264398   4.477   3.613  16.743  0.5311 -0.6081  0.6799
14328TIP3    H164399   4.529   3.689  16.716 -0.7602  0.9259  2.3997
14328TIP3    H264400   4.534   3.566  16.803  1.2056 -0.8085 -0.1073
14329TIP3   OH264401   3.236   4.304  14.219 -0.2473 -0.1674 -0.1086
14329TIP3    H164402   3.217   4.239  14.152  1.3002 -0.5727 -0.1801
14329TIP3    H264403   3.153   4.350  14.233 -1.3104 -2.0225 -0.1924
14330TIP3   OH264404   1.031   2.357  14.477 -0.5546  0.0558  0.5340
14330TIP3    H164405   1.000   2.281  14.527  0.8906 -1.5435 -0.9286
14330TIP3    H264406   1.000   2.432  14.527 -2.9190 -1.4762  1.4772
14331TIP3   OH264407   4.368   5.875   0.240  0.1519 -0.0497  0.1102
14331TIP3    H164408   4.412   5.924   0.171 -0.3860 -1.3914 -1.2087
14331TIP3    H264409   4.278   5.906   0.240 -0.3792 -1.5280 -1.2301
14332TIP3   OH264410   2.165   4.119  12.667  0.2873  0.2088 -0.3158
14332TIP3    H164411   2.147   4.061  12.593 -1.0757 -0.0665  0.2154
14332TIP3    H264412   2.110   4.196  12.651  0.1496  0.2407  0.2979
14333TIP3   OH264413   1.160   0.309  13.161 -0.3263 -0.2530 -0.1951
14333TIP3    H164414   1.107   0.369  13.214 -0.7474 -2.1862  1.6726
14333TIP3    H264415   1.171   0.353  13.077 -1.9398  1.7252  0.5995
14334TIP3   OH264416   0.541   2.173   4.374 -0.3847  0.0191 -0.0465
14334TIP3    H164417   0.557   2.080   4.393  0.9341  0.4053  0.8238
14334TIP3    H264418   0.610   2.219   4.421 -1.2872  1.4815 -0.1165
14335TIP3   OH264419   4.891   4.495  15.452  0.0537  0.0364  0.4112
14335TIP3    H164420   4.841   4.464  15.376  0.8227  1.7666 -0.8181
14335TIP3    H264421   4.944   4.419  15.477 -0.8060 -0.8088 -0.2641
14336TIP3   OH264422   0.998   3.600   0.935 -0.2324  0.2740 -0.5008
14336TIP3    H164423   0.936   3.542   0.978 -0.5783  1.1264  0.1527
14336TIP3    H264424   0.950   3.681   0.921  0.7339  0.9541  0.0313
14337TIP3   OH264425   6.275   1.592   1.818 -0.2410 -0.7139  0.7163
14337TIP3    H164426   6.356   1.555   1.783  0.6516 -0.6150  2.6428
14337TIP3    H264427   6.248   1.530   1.885  0.6817  1.5132  3.2248
14338TIP3   OH264428   1.419   6.498   1.094  0.7584 -0.0555 -0.6707
14338TIP3    H164429   1.434   6.563   1.162 -0.8947  0.2978 -0.6311
14338TIP3    H264430   1.373   6.427   1.138 -0.9902  0.5006 -1.5588
14339TIP3   OH264431   6.662   1.303  12.633 -0.1867  0.0926 -0.5832
14339TIP3    H164432   6.725   1.363  12.672  0.0585 -0.5967  0.1019
14339TIP3    H264433   6.588   1.358  12.609  0.4754  0.8339 -0.9564
14340TIP3   OH264434   2.216   6.622  16.250  0.0652 -0.0214  0.2426
14340TIP3    H164435   2.132   6.631  16.205 -0.8834  1.0095  2.1645
14340TIP3    H264436   2.276   6.674  16.197 -1.0163  1.1241  0.1054
14341TIP3   OH264437   3.928   1.690  17.190  0.2980 -0.0474  0.0525
14341TIP3    H164438   3.908   1.776  17.226 -0.0512 -0.9371  2.0580
14341TIP3    H264439   3.850   1.666  17.140  0.4560  0.8583 -0.6218
14342TIP3   OH264440   2.633   6.615   0.570  0.5437 -0.4435 -0.0352
14342TIP3    H164441   2.640   6.707   0.594  0.8800 -0.6615  0.7299
14342TIP3    H264442   2.602   6.615   0.480 -0.3529  0.4091  0.2712
14343TIP3   OH264443   4.331   0.400  17.142  0.1948  0.3043  0.2362
14343TIP3    H164444   4.312   0.372  17.231 -0.1742 -3.1711 -0.8902
14343TIP3    H264445   4.246   0.399  17.098  0.9479 -1.9867 -1.2160
14344TIP3   OH264446   2.633   0.585  16.060  0.2786  0.2250  0.3250
14344TIP3    H164447   2.627   0.653  16.128  0.9692 -0.8361  1.4716
14344TIP3    H264448   2.543   0.560  16.043  0.0002  1.6119 -0.2911
14345TIP3   OH264449   1.698   3.396   4.877  0.0136 -0.0691 -0.2057
14345TIP3    H164450   1.695   3.463   4.809 -1.5452  0.5522  0.4545
14345TIP3    H264451   1.621   3.342   4.861  0.8994 -1.3326 -0.3288
14346TIP3   OH264452   0.254   0.718   6.095 -0.2415 -0.4554 -0.4346
14346TIP3    H164453   0.161   0.740   6.089 -0.2233 -0.3553 -0.3406
14346TIP3    H264454   0.299   0.788   6.049 -0.1318  0.0950  0.4920
14347TIP3   OH264455   2.014   3.360  14.511  0.8104  0.1529 -0.4902
14347TIP3    H164456   1.934   3.406  14.535  1.1670  1.7325 -2.2188
14347TIP3    H264457   2.084   3.407  14.557  0.8843 -0.4440  0.0139
14348TIP3   OH264458   4.545   5.389   0.201 -0.3050 -0.0863 -0.0600
14348TIP3    H164459   4.566   5.461   0.260  0.5725 -0.4889  0.1287
14348TIP3    H264460   4.530   5.314   0.259 -0.8859 -0.1422 -0.2749
14349TIP3   OH264461   1.946   4.220  14.387 -0.4241  0.3118 -0.6804
14349TIP3    H164462   1.864   4.180  14.418  0.5472  0.6305  2.4706
14349TIP3    H264463   1.996   4.147  14.351 -0.4850 -0.5611  0.9866
14350TIP3   OH264464   3.449   1.259   0.221 -0.2706 -0.0215  0.4270
14350TIP3    H164465   3.424   1.247   0.129  0.5335 -2.1371  0.4704
14350TIP3    H264466   3.375   1.307   0.259 -1.4917 -0.8189 -0.8699
14351TIP3   OH264467   1.300   4.937  14.824  0.3183  0.2953  0.0288
14351TIP3    H164468   1.298   4.859  14.769  0.1132 -1.1690  2.0288
14351TIP3    H264469   1.383   4.980  14.803  1.9442 -2.1761  1.1391
14352TIP3   OH264470   6.222   4.862  14.183  0.4394  0.4872 -0.3459
14352TIP3    H164471   6.249   4.833  14.096 -0.1847  1.6724 -0.9459
14352TIP3    H264472   6.141   4.813  14.201  0.6805  0.0915 -0.3487
14353TIP3   OH264473   4.528   3.493  14.463  0.0209 -0.7706 -0.4873
14353TIP3    H164474   4.584   3.420  14.490 -0.1036 -0.2921  1.1694
14353TIP3    H264475   4.589   3.561  14.436  0.2073 -0.7861 -0.1225
14354TIP3   OH264476   0.167   0.480  14.700  0.2736 -0.2237  0.2626
14354TIP3    H164477   0.087   0.529  14.715  1.1192  1.3430 -0.2483
14354TIP3    H264478   0.140   0.405  14.648 -0.6116  1.1956 -1.3669
14355TIP3   OH264479   5.327   3.281  14.263  0.4875 -0.2668 -0.3706
14355TIP3    H164480   5.236   3.304  14.244  0.3191 -1.0268 -0.5119
14355TIP3    H264481   5.321   3.223  14.340  0.8614 -0.2069 -0.2969
14356TIP3   OH264482   2.893   1.960  16.985  0.2729 -0.2814  0.5498
14356TIP3    H164483   2.849   1.984  17.067 -1.0944  0.1051 -0.2928
14356TIP3    H264484   2.973   2.012  16.985  0.2677 -0.2595  1.6248
14357TIP3   OH264485   4.646   6.365   5.501 -0.4550  0.0982 -0.2523
14357TIP3    H164486   4.578   6.359   5.567 -1.8401  1.0127 -1.5752
14357TIP3    H264487   4.666   6.274   5.479 -1.1591 -0.1747  0.2180
14358TIP3   OH264488   4.083   0.670  17.124 -0.7810 -0.6149 -0.2837
14358TIP3    H164489   4.078   0.695  17.216  0.3062  0.2487 -0.4368
14358TIP3    H264490   4.144   0.597  17.122  2.0648  1.6730 -0.6946
14359TIP3   OH264491   0.364   6.675  14.590 -0.2639 -0.1133  0.0166
14359TIP3    H164492   0.367   6.770  14.601 -0.1663 -0.3835  2.6358
14359TIP3    H264493   0.452   6.646  14.610 -0.0808 -0.7007 -1.5935
14360TIP3   OH264494   1.352   2.227  15.342 -0.2896 -0.1184  0.8297
14360TIP3    H164495   1.350   2.147  15.395 -1.6303  1.2137  2.8482
14360TIP3    H264496   1.266   2.267  15.357  0.6485  2.0815  0.4272
14361TIP3   OH264497   4.091   3.148  11.509 -0.2542 -0.0985 -0.2884
14361TIP3    H164498   3.998   3.167  11.508  0.2097  2.4487  1.5907
14361TIP3    H264499   4.097   3.060  11.548 -1.7773  0.2654  0.7989
14362TIP3   OH264500   1.731   2.965   3.142 -0.5323 -0.0703  0.6779
14362TIP3    H164501   1.705   3.044   3.094 -1.5559 -0.1174  1.1307
14362TIP3    H264502   1.714   2.985   3.234  0.2758 -0.4154  0.9091
14363TIP3   OH264503   6.774   5.981  15.733 -0.3989  0.3146  0.0175
14363TIP3    H164504   6.752   6.042  15.663 -0.5937 -0.4114 -0.5684
14363TIP3    H264505   6.797   6.036  15.808  0.0482  1.0954 -0.6908
14364TIP3   OH264506   5.546   0.592   0.512  0.3034 -0.4084  0.0113
14364TIP3    H164507   5.583   0.596   0.600 -3.6187  0.5771  1.7297
14364TIP3    H264508   5.467   0.539   0.522 -0.1457 -0.3496 -2.9410
14365TIP3   OH264509   2.008   1.575  12.288 -1.1156  0.1096  0.1860
14365TIP3    H164510   1.939   1.591  12.352 -1.2352 -2.1791  0.6900
14365TIP3    H264511   1.998   1.482  12.266  1.8036 -0.2691  0.2964
14366TIP3   OH264512   2.244   0.027   0.692  0.1939 -0.0646  0.3937
14366TIP3    H164513   2.186  -0.042   0.724 -1.4265  1.4928  0.8492
14366TIP3    H264514   2.284   0.063   0.771  2.3290 -1.5576  0.0435
14367TIP3   OH264515   0.116   2.866  14.860  0.3244  0.2443 -0.1541
14367TIP3    H164516   0.134   2.795  14.798 -1.3728 -0.9775  0.7226
14367TIP3    H264517   0.072   2.824  14.934 -0.3127  2.1300  0.5889
14368TIP3   OH264518   0.475   3.868  13.069 -0.2158 -0.0162 -0.3506
14368TIP3    H164519   0.540   3.884  13.138 -1.4872 -1.6968  1.2913
14368TIP3    H264520   0.427   3.950  13.061  0.8319  0.6172 -0.2003
14369TIP3   OH264521   4.749   3.882   0.842 -0.1714 -0.3510 -0.2114
14369TIP3    H164522   4.814   3.841   0.785  0.1480 -0.7434  0.4328
14369TIP3    H264523   4.726   3.814   0.905 -1.8031 -0.4643 -0.9200
14370TIP3   OH264524   3.647   2.967   0.957 -0.0687  0.1940 -0.4730
14370TIP3    H164525   3.565   2.965   1.007  0.2097  3.4835  0.2039
14370TIP3    H264526   3.620   2.973   0.865 -0.5686 -0.9411 -0.4050
14371TIP3   OH264527   2.292   0.301   3.237  0.5093 -0.7459  0.3356
14371TIP3    H164528   2.252   0.331   3.319 -1.1223 -1.1656 -0.2902
14371TIP3    H264529   2.234   0.232   3.205  1.1597 -0.6353 -1.1562
14372TIP3   OH264530   4.877   4.335  14.353 -0.1747  0.2405  0.0527
14372TIP3    H164531   4.807   4.331  14.288 -1.0294  0.5677  0.9363
14372TIP3    H264532   4.843   4.394  14.421 -0.1770 -1.7741  1.8544
14373TIP3   OH264533   1.240   3.752  16.590  0.2575 -0.3093 -0.3020
14373TIP3    H164534   1.210   3.842  16.581 -1.4679 -0.9043 -0.7399
14373TIP3    H264535   1.278   3.747  16.678 -2.9837 -0.0730  1.1810
14374TIP3   OH264536   4.756   0.894   1.500  0.3102  0.1494 -0.1468
14374TIP3    H164537   4.761   0.988   1.515  0.6996  0.0657  0.2401
14374TIP3    H264538   4.754   0.856   1.588 -0.2501 -0.1830 -0.2979
14375TIP3   OH264539   6.530   3.443   5.652 -0.8531 -0.0533 -0.1951
14375TIP3    H164540   6.507   3.534   5.669 -0.2574  0.0972 -0.2105
14375TIP3    H264541   6.598   3.447   5.586  0.0618 -0.4560  0.7142
14376TIP3   OH264542   4.734   3.047   2.997  0.3035 -0.5761 -0.6586
14376TIP3    H164543   4.643   3.035   3.023  0.7421 -0.1493  1.1288
14376TIP3    H264544   4.746   2.987   2.923 -0.9005 -2.0196  0.2880
14377TIP3   OH264545   3.038   1.048  14.490 -0.5795  0.3387  0.3694
14377TIP3    H164546   3.025   1.137  14.457 -1.6894 -0.4030 -1.2897
14377TIP3    H264547   3.027   0.992  14.413 -1.2550 -1.3227  1.6366
14378TIP3   OH264548   5.591   2.704   5.441  0.2149  0.0775  0.1982
14378TIP3    H164549   5.668   2.725   5.493 -0.3603 -1.9871  1.9335
14378TIP3    H264550   5.621   2.638   5.379  0.6539  1.8189 -1.5179
14379TIP3   OH264551   3.960   2.934  12.997  0.4816  0.7055  0.0314
14379TIP3    H164552   3.879   2.974  12.968  0.2759  0.5624  0.4161
14379TIP3    H264553   4.026   3.002  12.985  0.1857  1.0536  0.4010
14380TIP3   OH264554   4.533   5.119  15.240  0.6828  0.1207  0.5905
14380TIP3    H164555   4.595   5.191  15.224  0.6850 -0.1818 -0.8390
14380TIP3    H264556   4.563   5.049  15.182 -1.5843  0.3238 -0.8587
14381TIP3   OH264557   1.249   4.523   1.828  0.0319  0.0002 -0.4181
14381TIP3    H164558   1.281   4.531   1.738 -0.0981  1.5716 -0.3427
14381TIP3    H264559   1.251   4.613   1.862 -0.6489 -0.4721  0.8965
14382TIP3   OH264560   3.614   3.077   2.447  0.4014 -0.0519 -0.1675
14382TIP3    H164561   3.574   3.009   2.500  2.3383 -1.9805 -1.1164
14382TIP3    H264562   3.548   3.098   2.380  0.0863 -1.5513 -0.3372
14383TIP3   OH264563   1.892   1.577   3.691 -0.3434 -0.0614 -0.2938
14383TIP3    H164564   1.966   1.634   3.671  0.9262 -1.1043  1.3304
14383TIP3    H264565   1.916   1.493   3.650 -1.3993  0.0618 -1.1801
14384TIP3   OH264566   6.279   2.402  11.652  0.6087  0.3924 -0.5391
14384TIP3    H164567   6.316   2.330  11.600  0.1267 -0.3607  0.1609
14384TIP3    H264568   6.266   2.472  11.588 -0.2531 -0.6251 -1.5126
14385TIP3   OH264569   0.063   5.340  17.200 -0.3539  0.0837  0.4573
14385TIP3    H164570  -0.010   5.345  17.262  1.7820  0.5556  3.0195
14385TIP3    H264571   0.061   5.249  17.169 -1.6290 -0.0888  0.9864
14386TIP3   OH264572   2.486   3.901   4.657 -0.0937  0.1474  0.2392
14386TIP3    H164573   2.394   3.875   4.664 -0.3698  1.2592  0.8719
14386TIP3    H264574   2.523   3.879   4.742 -0.1160  0.9765  0.4679
14387TIP3   OH264575   4.206   0.765   4.264 -0.3910  0.1204 -0.2839
14387TIP3    H164576   4.137   0.708   4.299 -0.1796 -0.3021 -0.5490
14387TIP3    H264577   4.239   0.812   4.340  0.7559 -1.5319  0.2761
14388TIP3   OH264578   1.296   1.875   0.878  0.5519 -0.3905  0.5898
14388TIP3    H164579   1.321   1.893   0.969 -0.3289  0.9207  0.5802
14388TIP3    H264580   1.239   1.799   0.883 -0.1872  0.2060  1.2229
14389TIP3   OH264581   1.733   6.057   1.832  0.2745  0.1042  0.0998
14389TIP3    H164582   1.751   6.082   1.923  0.9136 -2.3348  0.6885
14389TIP3    H264583   1.651   6.008   1.836  0.5312 -0.3895 -0.5466
14390TIP3   OH264584   2.137   6.667   6.096  0.2151  0.1632 -0.0465
14390TIP3    H164585   2.217   6.616   6.081  0.2384 -0.0509  0.7745
14390TIP3    H264586   2.155   6.753   6.058 -0.4476 -0.9557 -2.9768
14391TIP3   OH264587   6.224   4.922  11.888 -0.2976  0.0456 -0.2483
14391TIP3    H164588   6.228   4.987  11.958  1.3810 -0.5455  0.2330
14391TIP3    H264589   6.183   4.846  11.929 -0.1421  0.0133 -0.1487
14392TIP3   OH264590   3.171   4.819   6.051  0.1841 -0.4739 -0.1964
14392TIP3    H164591   3.202   4.899   6.092 -0.8183 -0.9347  1.5173
14392TIP3    H264592   3.198   4.826   5.959  2.7515  0.4254  0.6066
14393TIP3   OH264593   5.261   2.725   5.497 -0.0531  0.6183  0.5933
14393TIP3    H164594   5.238   2.672   5.420 -1.7296  0.9108  0.8675
14393TIP3    H264595   5.301   2.664   5.558  0.4973  0.2154 -0.1628
14394TIP3   OH264596   0.940   1.194  16.528 -0.5692 -0.5296  0.0565
14394TIP3    H164597   1.020   1.244  16.513  0.5012 -2.2859 -0.2743
14394TIP3    H264598   0.915   1.215  16.618  0.2553  0.0422  0.1587
14395TIP3   OH264599   5.171   0.457  15.690  0.0083 -0.2041 -0.4010
14395TIP3    H164600   5.222   0.511  15.751 -2.8043  0.9118  1.0528
14395TIP3    H264601   5.149   0.378  15.740 -1.2389  0.1389 -0.4071
14396TIP3   OH264602   1.217   1.796  12.955  0.3759 -0.1403  0.3362
14396TIP3    H164603   1.207   1.880  12.910 -0.0013 -1.0557 -1.3365
14396TIP3    H264604   1.128   1.773  12.982  0.5971  0.3958  1.5811
14397TIP3   OH264605   3.219   3.375  16.998  0.0630  0.0954 -0.0476
14397TIP3    H164606   3.245   3.465  16.979 -0.1437 -0.0334 -0.9864
14397TIP3    H264607   3.139   3.362  16.948  0.0056 -0.5608  0.2075
14398TIP3   OH264608   5.102   1.133   5.012  0.6009 -0.1339  0.3099
14398TIP3    H164609   5.037   1.062   5.010  1.0179 -0.6398  2.8418
14398TIP3    H264610   5.165   1.110   4.943 -0.2860 -1.2029 -0.1605
14399TIP3   OH264611   0.911   2.288  13.349  0.6740  0.4235 -0.4243
14399TIP3    H164612   0.870   2.369  13.319  0.5548 -0.3041 -2.2847
14399TIP3    H264613   0.887   2.223  13.284  1.1160 -1.0359  0.8326
14400TIP3   OH264614   3.458   5.008  17.169  0.1962 -0.6758  0.3600
14400TIP3    H164615   3.493   5.062  17.239 -0.1774 -1.0114  0.8060
14400TIP3    H264616   3.422   4.931  17.213  0.4871 -1.1731 -0.2412
14401TIP3   OH264617   4.452   3.161   2.538 -0.4942 -0.5266 -0.2503
14401TIP3    H164618   4.391   3.179   2.467 -1.0631 -0.7238  0.1761
14401TIP3    H264619   4.534   3.203   2.512 -0.7973 -0.3106 -0.8578
14402TIP3   OH264620   5.134   5.689   3.584 -0.0624  0.0388 -0.5029
14402TIP3    H164621   5.216   5.735   3.602  0.3446 -0.9457  0.1984
14402TIP3    H264622   5.074   5.720   3.652  0.5955 -1.4270  0.7734
14403TIP3   OH264623   4.129   6.535   5.590  0.1751 -0.2688 -0.1402
14403TIP3    H164624   4.214   6.571   5.613  0.7995 -0.9111 -1.3848
14403TIP3    H264625   4.095   6.498   5.671  0.7769  0.5861  0.5065
14404TIP3   OH264626   5.561   6.040  13.543 -0.3548 -0.0025 -0.1646
14404TIP3    H164627   5.470   6.055  13.517  0.2455  3.2097 -0.6893
14404TIP3    H264628   5.559   5.958  13.592 -3.3862 -0.3839 -0.8051
14405TIP3   OH264629   5.640   1.065  16.139 -0.1398  0.5310 -0.3721
14405TIP3    H164630   5.665   1.077  16.230 -0.4593  0.9645 -0.3357
14405TIP3    H264631   5.605   1.151  16.113 -1.5819 -0.0546 -0.4198
14406TIP3   OH264632   1.945   2.159   0.340 -0.6419 -0.3240  0.4515
14406TIP3    H164633   1.901   2.131   0.420 -2.1801  1.9113  0.4205
14406TIP3    H264634   1.877   2.206   0.291  0.8046 -0.0185 -1.2812
14407TIP3   OH264635   0.647   6.267  14.788  0.6252 -0.8495 -0.4440
14407TIP3    H164636   0.562   6.237  14.821  0.9739 -0.2289  1.0645
14407TIP3    H264637   0.687   6.312  14.863  2.5053 -1.6027 -0.9796
14408TIP3   OH264638   5.600   3.577  15.638 -0.3572 -0.6893 -0.3597
14408TIP3    H164639   5.685   3.535  15.649  0.1187  0.2941 -0.1963
14408TIP3    H264640   5.543   3.508  15.604  0.6184 -1.2468 -0.8840
14409TIP3   OH264641   0.337   2.381   5.599  0.8812 -0.8533  0.2259
14409TIP3    H164642   0.257   2.434   5.587  0.6026 -1.5049 -0.8453
14409TIP3    H264643   0.341   2.366   5.693  0.1356 -0.1851  0.3753
14410TIP3   OH264644   1.493   0.112  14.411  0.4896  0.1318 -0.1091
14410TIP3    H164645   1.437   0.189  14.403  0.3650 -0.0457 -1.0373
14410TIP3    H264646   1.546   0.129  14.489 -1.0525  0.1576  0.9651
14411TIP3   OH264647   2.900   6.466   5.090 -0.2036  0.2213  0.0511
14411TIP3    H164648   2.963   6.483   5.159 -1.5134  0.5105  1.2015
14411TIP3    H264649   2.869   6.553   5.063  0.5389  0.1306 -1.1358
14412TIP3   OH264650   4.030   1.613  11.011  0.1037 -0.1866  0.5165
14412TIP3    H164651   3.949   1.662  11.010 -0.2568 -0.7868 -0.7368
14412TIP3    H264652   4.069   1.628  10.925  0.7453 -0.8472  0.6802
14413TIP3   OH264653   3.977   1.561   5.261  0.3662 -0.2594 -0.4429
14413TIP3    H164654   4.062   1.529   5.289  0.1306  0.1340  0.7384
14413TIP3    H264655   3.916   1.533   5.329 -0.5139 -0.8066 -1.4311
14414TIP3   OH264656   2.225   5.757   0.035  0.7934  0.0089  0.0112
14414TIP3    H164657   2.182   5.830  -0.009 -0.0661  0.6405  1.8650
14414TIP3    H264658   2.261   5.704  -0.036 -0.0958  1.2901 -1.4146
14415TIP3   OH264659   1.555   3.315  12.997 -0.5831 -0.1970 -0.0511
14415TIP3    H164660   1.555   3.288  12.905 -0.6518  1.0639 -0.4325
14415TIP3    H264661   1.514   3.242  13.044  1.1243 -1.6598 -0.7573
14416TIP3   OH264662   1.763   4.463  14.819  0.1021  0.0710 -0.2096
14416TIP3    H164663   1.711   4.502  14.889  1.0553 -1.5750  1.4443
14416TIP3    H264664   1.816   4.535  14.785 -1.0480  1.0853  0.1225
14417TIP3   OH264665   4.258   0.315   1.584  0.0095  0.1922  0.4473
14417TIP3    H164666   4.232   0.234   1.540  2.3135 -0.0084 -0.6278
14417TIP3    H264667   4.327   0.351   1.527  0.4122  1.8638  1.9711
14418TIP3   OH264668   6.603   1.819   5.988 -0.3702 -0.5029  0.6853
14418TIP3    H164669   6.548   1.794   5.913 -0.6821  1.4877  0.2385
14418TIP3    H264670   6.542   1.858   6.050  0.4587  1.4114  0.3302
14419TIP3   OH264671   4.106   6.562   1.579  0.4031 -0.2957 -0.2285
14419TIP3    H164672   4.095   6.478   1.623 -0.6655  0.2467  0.5354
14419TIP3    H264673   4.152   6.540   1.498  0.8224 -1.5140  0.3301
14420TIP3   OH264674   3.400   1.208   6.016 -0.3299 -0.6394 -0.6282
14420TIP3    H164675   3.425   1.204   6.109 -0.3923 -0.6007 -0.6093
14420TIP3    H264676   3.480   1.186   5.968  0.1732  1.0610 -0.6145
14421TIP3   OH264677   2.310   0.836  11.447  0.1041 -0.0703  0.3709
14421TIP3    H164678   2.349   0.827  11.533 -2.4395  0.0512  1.5898
14421TIP3    H264679   2.318   0.749  11.408  0.8212 -0.2553  0.9126
14422TIP3   OH264680   6.592   1.947  11.053 -0.5422 -0.1009  0.3114
14422TIP3    H164681   6.512   1.995  11.032 -0.1607  1.2698  1.8145
14422TIP3    H264682   6.653   2.015  11.083  0.9404 -1.2065 -0.1312
14423TIP3   OH264683   6.228   1.174   2.239  0.0580 -0.1901 -0.0480
14423TIP3    H164684   6.177   1.254   2.244  0.6037  0.3566 -2.4418
14423TIP3    H264685   6.288   1.178   2.313 -1.4384  0.5285  1.1244
14424TIP3   OH264686   1.208   2.275   5.081  0.1933 -0.3319 -1.0984
14424TIP3    H164687   1.115   2.265   5.062 -0.2521 -1.4285  1.4694
14424TIP3    H264688   1.230   2.363   5.050 -1.6227 -0.1657 -1.9528
14425TIP3   OH264689   5.153   3.899  10.816 -0.7344 -0.0053 -0.2986
14425TIP3    H164690   5.147   3.898  10.720 -1.8771 -0.7814 -0.2295
14425TIP3    H264691   5.225   3.839  10.836  0.2286  0.9949 -0.7110
14426TIP3   OH264692   4.971   4.022   0.948 -0.2744  0.4963 -0.3114
14426TIP3    H164693   4.883   4.000   0.915  0.2070 -0.8540 -0.7334
14426TIP3    H264694   4.990   3.954   1.011 -0.4794  2.1239  1.5450
14427TIP3   OH264695   1.653   1.077  14.139  0.1090 -0.2443  0.3401
14427TIP3    H164696   1.565   1.044  14.157 -0.7383  1.7710  0.0453
14427TIP3    H264697   1.674   1.132  14.214 -0.0549  1.5262 -0.8603
14428TIP3   OH264698   3.336   3.652  13.149 -0.4468 -0.5514 -0.2013
14428TIP3    H164699   3.369   3.721  13.205  0.1583 -0.4695 -0.6549
14428TIP3    H264700   3.285   3.596  13.207 -1.5652  0.6828  0.0285
14429TIP3   OH264701   0.557   2.558  16.231  0.5200  0.3792  0.8360
14429TIP3    H164702   0.589   2.468  16.229 -0.3404  0.0774 -2.0225
14429TIP3    H264703   0.634   2.612  16.214  0.4123 -0.0686 -1.2243
14430TIP3   OH264704   1.213   0.653  11.023  0.2041 -0.2750 -0.0414
14430TIP3    H164705   1.194   0.671  11.115  0.1673 -1.2440  0.1518
14430TIP3    H264706   1.211   0.738  10.980  3.2768  0.5726  1.4099
14431TIP3   OH264707   0.237   0.959  16.286  0.5088 -0.2086  0.1326
14431TIP3    H164708   0.315   0.913  16.317  0.3641  0.2028  1.1247
14431TIP3    H264709   0.268   1.046  16.261  0.6379 -0.5632 -0.9588
14432TIP3   OH264710   5.617   6.767  16.884 -0.6355  0.3557 -0.0124
14432TIP3    H164711   5.554   6.765  16.812 -2.2732  0.3470  1.3845
14432TIP3    H264712   5.578   6.827  16.948  1.1221  0.9054  0.5756
14433TIP3   OH264713   2.440   4.476  15.323  0.0092 -0.4081  0.4343
14433TIP3    H164714   2.483   4.500  15.405  0.4369 -1.2271  0.4559
14433TIP3    H264715   2.509   4.432  15.272  0.0117  0.9291 -0.7454
14434TIP3   OH264716   5.221   3.097  11.014  0.1153  0.0471  0.8312
14434TIP3    H164717   5.276   3.018  11.013 -0.2652 -0.2205  0.9272
14434TIP3    H264718   5.190   3.103  11.105 -0.8825 -0.4143  0.5336
14435TIP3   OH264719   3.311   1.314  16.955  0.5113 -0.5037 -0.6998
14435TIP3    H164720   3.268   1.308  16.869 -0.9673 -1.2995  0.0729
14435TIP3    H264721   3.276   1.394  16.993 -1.0539 -1.6402  0.3156
14436TIP3   OH264722   1.790   1.174   0.141  0.0838  0.4383  0.1561
14436TIP3    H164723   1.869   1.182   0.195 -0.2403 -0.4623  0.7601
14436TIP3    H264724   1.806   1.233   0.067  0.9212  0.9749  0.7597
14437TIP3   OH264725   6.472   3.308  12.427 -0.1441 -0.2644 -0.2023
14437TIP3    H164726   6.482   3.304  12.332 -1.0834 -0.8827 -0.2782
14437TIP3    H264727   6.479   3.217  12.455  3.5033  0.1871  0.6993
14438TIP3   OH264728   3.667   1.819  16.836 -0.1878  0.7790  0.0919
14438TIP3    H164729   3.636   1.806  16.746  0.1993  1.7563 -0.1868
14438TIP3    H264730   3.724   1.896  16.831  1.8443 -0.6525  0.7172
14439TIP3   OH264731   4.572   6.707   6.565 -0.1801  0.0346 -0.2976
14439TIP3    H164732   4.527   6.699   6.481 -0.4037 -0.7793 -0.1038
14439TIP3    H264733   4.624   6.627   6.573 -0.0513  0.1675  0.2745
14440TIP3   OH264734   4.206   5.845   5.301  0.3694 -0.4175  0.3882
14440TIP3    H164735   4.233   5.812   5.387 -0.2139  2.1990  1.6306
14440TIP3    H264736   4.288   5.859   5.254  0.7816 -0.2936  1.1303
14441TIP3   OH264737   0.372   4.176  11.766  0.4581  0.7473 -0.3365
14441TIP3    H164738   0.333   4.259  11.792  0.0451  0.3771  0.2491
14441TIP3    H264739   0.427   4.197  11.690 -0.0726  1.4558 -0.5268
14442TIP3   OH264740   5.144   5.111  17.015 -0.3780  0.0951 -0.3245
14442TIP3    H164741   5.185   5.113  17.102 -0.5206 -0.6488 -0.2397
14442TIP3    H264742   5.063   5.062  17.028  0.6903 -1.9684 -1.3487
14443TIP3   OH264743   5.564   1.030   3.980  0.1170 -0.3432 -0.2918
14443TIP3    H164744   5.515   1.036   4.063  1.4753  0.9119  0.4401
14443TIP3    H264745   5.500   1.056   3.913  0.1484  2.7214  0.8048
14444TIP3   OH264746   5.264   3.986   3.608  0.5591  0.1747  0.0386
14444TIP3    H164747   5.268   3.890   3.607  0.9328  0.1933 -1.7554
14444TIP3    H264748   5.347   4.013   3.647 -0.0923 -0.2398  1.7704
14445TIP3   OH264749   5.352   0.861  12.014 -0.2025  0.2632  0.3748
14445TIP3    H164750   5.326   0.864  12.106  0.5648  1.2769  0.5744
14445TIP3    H264751   5.285   0.808  11.971 -0.6326 -0.1135  1.4947
14446TIP3   OH264752   6.585   4.745  13.938 -0.2094  0.4220  0.0933
14446TIP3    H164753   6.535   4.769  14.016 -1.0417  1.9599 -0.8779
14446TIP3    H264754   6.557   4.657  13.916  1.4489 -0.7825  2.6302
14447TIP3   OH264755   6.263   0.377   0.759  0.3699 -0.1586 -0.9014
14447TIP3    H164756   6.313   0.459   0.753 -0.8778  0.6163 -0.8301
14447TIP3    H264757   6.330   0.308   0.758  1.6678  0.9694  2.1167
14448TIP3   OH264758   0.332   5.464  11.080  0.5346 -0.1089 -0.4999
14448TIP3    H164759   0.416   5.437  11.117 -0.2081  0.3824  1.6478
14448TIP3    H264760   0.336   5.437  10.988  1.7703 -3.0052  0.3422
14449TIP3   OH264761   1.726   0.476   2.999  0.3393  0.3727 -0.2130
14449TIP3    H164762   1.745   0.562   2.962  0.9195  0.4641  0.2802
14449TIP3    H264763   1.788   0.468   3.072 -0.8296  0.2400  0.7747
14450TIP3   OH264764   3.148   1.006  14.908 -0.1730  0.3860  0.0085
14450TIP3    H164765   3.185   1.021  14.821 -0.0521 -0.5285 -0.1066
14450TIP3    H264766   3.216   1.037  14.968  0.8414 -1.3602 -0.2038
14451TIP3   OH264767   6.526   3.716   1.025 -0.6082  0.1624 -0.2540
14451TIP3    H164768   6.535   3.631   1.068 -0.1393  0.2524 -0.1760
14451TIP3    H264769   6.527   3.696   0.931  0.2301  0.1503 -0.2485
14452TIP3   OH264770   5.785   3.467   4.379 -0.1782  0.5174  0.4106
14452TIP3    H164771   5.714   3.461   4.444 -1.7012  1.5406 -1.1089
14452TIP3    H264772   5.824   3.553   4.394  1.0054 -0.1989  1.4941
14453TIP3   OH264773   0.128   2.509   0.174  0.2510 -0.2758  0.3521
14453TIP3    H164774   0.123   2.604   0.187  0.2089 -0.1424 -0.5990
14453TIP3    H264775   0.040   2.477   0.196  0.5188 -0.2112  1.5465
14454TIP3   OH264776   3.610   6.240  11.717 -0.1317 -0.5983 -0.0160
14454TIP3    H164777   3.623   6.274  11.805  0.3728 -0.7439 -0.0313
14454TIP3    H264778   3.698   6.218  11.687  0.0577  2.1656 -1.6409
14455TIP3   OH264779   2.122   0.502   3.412  0.3681  0.4228 -0.1505
14455TIP3    H164780   2.195   0.564   3.413  0.2669  0.5370  1.7778
14455TIP3    H264781   2.082   0.510   3.498 -1.1364 -0.5879 -0.7249
14456TIP3   OH264782   4.788   1.787  16.476  0.5481  0.4886 -0.5668
14456TIP3    H164783   4.830   1.866  16.442 -0.4113  0.2594 -2.3372
14456TIP3    H264784   4.701   1.786  16.436  0.5773 -1.4933 -0.6560
14457TIP3   OH264785   4.001   2.033   2.082 -0.8314 -0.1364  0.6413
14457TIP3    H164786   3.998   2.112   2.134  4.6245 -0.3631  1.6212
14457TIP3    H264787   3.975   1.963   2.142 -2.8784  0.5388  0.5703
14458TIP3   OH264788   0.820   4.062   4.852 -0.2502  0.4538 -0.4989
14458TIP3    H164789   0.749   4.015   4.895  2.0422 -3.0259 -0.2716
14458TIP3    H264790   0.791   4.073   4.762 -0.8940 -1.4885 -0.5596
14459TIP3   OH264791   4.573   4.047   5.601 -0.5206  0.1201 -0.1244
14459TIP3    H164792   4.572   4.142   5.608 -0.8121  0.0322  1.2031
14459TIP3    H264793   4.531   4.017   5.682  1.1585 -1.1773  0.2881
14460TIP3   OH264794   5.969   6.401  16.600 -0.2182 -0.1722  0.2066
14460TIP3    H164795   6.038   6.457  16.563 -0.5458  1.3885  1.8638
14460TIP3    H264796   5.964   6.428  16.692 -1.2943 -2.0580  0.7179
14461TIP3   OH264797   5.611   5.296  15.885 -0.1689  0.3597 -0.5533
14461TIP3    H164798   5.703   5.270  15.875 -0.0921  0.2444  0.3883
14461TIP3    H264799   5.613   5.392  15.883  0.0476  0.3674  0.1315
14462TIP3   OH264800   2.621   6.411  11.888 -0.0588  0.0767  0.0732
14462TIP3    H164801   2.681   6.349  11.930 -0.1728 -0.9143 -1.1859
14462TIP3    H264802   2.595   6.471  11.958  0.0268 -1.3303  1.3328
14463TIP3   OH264803   1.101   5.235   1.493  0.2602  0.3250 -0.4880
14463TIP3    H164804   1.045   5.309   1.517  1.4894 -0.0817  3.9576
14463TIP3    H264805   1.190   5.268   1.500  0.8167 -1.4376  1.2371
14464TIP3   OH264806   3.739   4.557   4.464 -0.1976 -0.0800  0.0685
14464TIP3    H164807   3.664   4.597   4.421  2.6983  4.2158 -1.3183
14464TIP3    H264808   3.792   4.521   4.393 -0.7004 -2.8775  1.0152
14465TIP3   OH264809   4.972   0.232   0.494 -0.4603 -0.5107 -0.0533
14465TIP3    H164810   5.011   0.153   0.533  3.1148  1.4070  0.4494
14465TIP3    H264811   4.946   0.285   0.569 -3.5720 -1.4838 -0.3920
14466TIP3   OH264812   5.032   2.929   2.071  0.1735  0.9963  0.4051
14466TIP3    H164813   5.078   2.853   2.037  0.2195  0.9769  0.5092
14466TIP3    H264814   5.035   2.994   2.001 -0.2506  0.7434  0.1509
14467TIP3   OH264815   1.438   3.232  14.019  0.2737  0.4231 -0.1195
14467TIP3    H164816   1.369   3.169  14.040 -0.0391  0.9712  0.5102
14467TIP3    H264817   1.517   3.195  14.058  0.5113 -0.6046 -1.5205
14468TIP3   OH264818   3.220   5.401  15.305 -0.7605  0.2398  0.2214
14468TIP3    H164819   3.296   5.453  15.330 -1.8652  1.5898  0.8624
14468TIP3    H264820   3.253   5.312  15.296  0.4448  0.3818  2.8084
14469TIP3   OH264821   3.835   5.924  14.774  0.1400  0.7889 -0.3308
14469TIP3    H164822   3.787   5.975  14.708  1.1765  1.4738 -0.5674
14469TIP3    H264823   3.870   5.849  14.726  0.0385  0.7486 -0.3435
14470TIP3   OH264824   0.422   2.349   4.148 -0.6445 -0.6647 -0.9873
14470TIP3    H164825   0.456   2.262   4.127 -0.4727 -0.8276 -0.0558
14470TIP3    H264826   0.481   2.382   4.216 -0.4857  0.3328 -1.6009
14471TIP3   OH264827   3.411   1.244   4.126  0.3845 -0.0756  0.1104
14471TIP3    H164828   3.506   1.252   4.130  0.2819  1.3280 -0.0333
14471TIP3    H264829   3.389   1.184   4.198  1.3492 -0.1630  0.3345
14472TIP3   OH264830   2.308   4.349   0.723  0.0354 -0.3430 -0.2778
14472TIP3    H164831   2.264   4.287   0.781  1.4230 -0.7160  0.3984
14472TIP3    H264832   2.319   4.428   0.776  1.7275 -0.8435  0.1319
14473TIP3   OH264833   2.383   4.621  10.751 -0.0119  0.4399 -0.0626
14473TIP3    H164834   2.391   4.611  10.656  0.2680  2.1886 -0.2319
14473TIP3    H264835   2.435   4.549  10.786  0.6785  0.3419 -1.2315
14474TIP3   OH264836   5.892   5.432   4.706 -0.0328 -0.2648 -0.1085
14474TIP3    H164837   5.982   5.465   4.704  0.2408 -0.9564  0.4279
14474TIP3    H264838   5.837   5.511   4.698  0.6145 -0.0198 -2.3940
14475TIP3   OH264839   4.922   0.144  10.485 -0.3962  0.1615 -0.4694
14475TIP3    H164840   4.950   0.232  10.506  0.5343 -0.0161 -0.9388
14475TIP3    H264841   4.937   0.136  10.390 -1.8445 -0.0025 -0.7059
14476TIP3   OH264842   6.317   5.518  13.130  0.1063 -0.1381  0.4841
14476TIP3    H164843   6.280   5.431  13.113 -1.3179  0.9372 -2.2256
14476TIP3    H264844   6.328   5.557  13.043  2.9133  1.5517  1.5110
14477TIP3   OH264845   0.113   1.375   3.886  0.0061  0.0029  0.1969
14477TIP3    H164846   0.173   1.447   3.864 -2.0478  2.2343  1.7058
14477TIP3    H264847   0.137   1.351   3.975  0.5743 -1.0909 -0.2470
14478TIP3   OH264848   3.649   4.240  14.673  0.5759 -0.1667 -0.7022
14478TIP3    H164849   3.582   4.207  14.612 -0.3130 -0.2747  0.3076
14478TIP3    H264850   3.732   4.208  14.638 -0.1891 -2.7924 -0.2367
14479TIP3   OH264851   5.935   2.135  14.150  0.3942  0.1998  0.4042
14479TIP3    H164852   5.923   2.128  14.245  0.0740 -0.7319  0.3048
14479TIP3    H264853   5.856   2.095  14.113  1.6649 -1.7712 -0.2497
14480TIP3   OH264854   6.115   5.834   3.983  0.4351  0.0323  0.2481
14480TIP3    H164855   6.057   5.810   4.055 -1.0482  0.8071 -0.6536
14480TIP3    H264856   6.179   5.893   4.022 -0.6257  0.8059  0.8473
14481TIP3   OH264857   4.806   4.080   1.696 -0.1875  0.7042  0.5314
14481TIP3    H164858   4.818   4.169   1.663 -0.5280  0.5813  0.0706
14481TIP3    H264859   4.714   4.078   1.724 -0.4938  0.1682 -0.4834
14482TIP3   OH264860   6.298   2.276  15.603 -0.2576 -0.1593  0.1782
14482TIP3    H164861   6.278   2.337  15.674  1.5928 -0.2417  0.8067
14482TIP3    H264862   6.394   2.270  15.603 -0.3646 -2.2940 -0.5352
14483TIP3   OH264863   2.059   5.765   2.844 -0.1600 -0.0929 -0.5076
14483TIP3    H164864   2.028   5.683   2.883  1.6487 -0.6049 -0.1147
14483TIP3    H264865   2.145   5.744   2.809  0.0536  1.4951 -0.9714
14484TIP3   OH264866   5.551   6.059   3.736  0.2886  0.4891  0.8427
14484TIP3    H164867   5.635   6.100   3.757  0.1286  1.0161  0.4472
14484TIP3    H264868   5.560   5.970   3.770  0.6749  0.8112  1.6105
14485TIP3   OH264869   2.835   5.544   5.606  0.1336 -0.2487  0.0958
14485TIP3    H164870   2.832   5.449   5.619  1.1014 -0.4283 -0.8672
14485TIP3    H264871   2.856   5.579   5.692  1.8577 -1.0779  0.0480
14486TIP3   OH264872   1.457   4.648  12.252 -0.0997 -0.1222  0.0206
14486TIP3    H164873   1.386   4.704  12.284  0.3831  0.4840  0.0292
14486TIP3    H264874   1.414   4.588  12.191 -0.3093  1.5757 -1.5758
14487TIP3   OH264875   4.279   2.084  13.824 -0.3204  0.0193 -0.0843
14487TIP3    H164876   4.325   2.133  13.892  2.3036  1.3506 -2.6898
14487TIP3    H264877   4.333   2.007  13.809 -0.7787 -0.1758 -0.7627
14488TIP3   OH264878   3.639   1.713  12.413 -0.2388 -0.1006 -0.8554
14488TIP3    H164879   3.571   1.731  12.348 -0.8871  2.1444  0.3640
14488TIP3    H264880   3.700   1.786  12.404 -0.4991  0.4110  1.2061
14489TIP3   OH264881   0.357   2.246   4.637  0.8919  0.3988 -0.2616
14489TIP3    H164882   0.290   2.187   4.604 -0.0404  0.3317  1.6713
14489TIP3    H264883   0.438   2.195   4.634  0.3492 -0.4815  0.0698
14490TIP3   OH264884   0.093   3.227   1.651  0.1660 -0.4309  0.2224
14490TIP3    H164885   0.035   3.189   1.717  0.6250  0.0305  0.8953
14490TIP3    H264886   0.049   3.209   1.568  0.2050 -2.0973  0.5579
14491TIP3   OH264887   5.062   2.030  15.013  0.0188  0.2323 -0.4417
14491TIP3    H164888   5.128   2.020  14.944 -0.9728  0.0689 -1.3735
14491TIP3    H264889   5.110   2.014  15.094  1.6943  2.5344 -0.9086
14492TIP3   OH264890   6.316   6.244  13.972 -0.3356  0.4388 -0.1855
14492TIP3    H164891   6.283   6.217  13.886 -3.1327  2.5985  0.1208
14492TIP3    H264892   6.404   6.277  13.955 -0.5166  0.0141 -2.0618
14493TIP3   OH264893   6.633   3.755   2.203  0.4137  0.0481  0.4044
14493TIP3    H164894   6.596   3.701   2.133  0.2232 -1.6774  1.7916
14493TIP3    H264895   6.558   3.797   2.244  0.0871 -2.1359  2.1418
14494TIP3   OH264896   0.461   4.468   4.767 -0.3476 -0.3479 -0.2118
14494TIP3    H164897   0.476   4.540   4.829  1.2101 -1.5528  0.8296
14494TIP3    H264898   0.523   4.484   4.696 -1.5629  0.5639 -1.1141
14495TIP3   OH264899   3.814   6.039   3.204 -0.5503 -0.4407  0.0401
14495TIP3    H164900   3.863   6.007   3.128  0.2847 -2.1771  1.2572
14495TIP3    H264901   3.725   6.052   3.171 -0.1193 -0.8294 -1.3298
14496TIP3   OH264902   5.838   6.496  14.345  0.5973  0.4247 -0.4718
14496TIP3    H164903   5.920   6.513  14.393 -0.8982  1.7822  1.6936
14496TIP3    H264904   5.839   6.401  14.331  1.1798 -0.0038  2.1458
14497TIP3   OH264905   0.611   5.955  16.896 -0.3186 -0.0757  0.0548
14497TIP3    H164906   0.686   5.990  16.944 -0.9289 -0.6118  1.4541
14497TIP3    H264907   0.648   5.892  16.834  0.4964  0.6522 -0.2090
14498TIP3   OH264908   4.942   3.470   2.588  0.4246 -0.1464  0.4956
14498TIP3    H164909   4.888   3.531   2.639 -0.0174 -1.3930  1.5156
14498TIP3    H264910   4.896   3.386   2.594  0.4804 -0.3748 -1.7614
14499TIP3   OH264911   2.971   1.450   6.445 -0.0415  0.7130 -0.2569
14499TIP3    H164912   3.049   1.396   6.433 -0.1858  0.2119  0.9530
14499TIP3    H264913   3.001   1.525   6.497 -0.3533  0.5276  0.1970
14500TIP3   OH264914   3.105   3.409  15.039  0.3374  0.5402 -0.7440
14500TIP3    H164915   3.093   3.399  15.133 -0.6166  1.4269 -0.7634
14500TIP3    H264916   3.192   3.448  15.030  0.7909 -0.3548 -0.2802
14501TIP3   OH264917   4.453   2.953  17.112 -0.1364  0.3765 -0.0977
14501TIP3    H164918   4.532   3.001  17.139 -1.1015  1.8367  0.1812
14501TIP3    H264919   4.417   2.920  17.194  1.4689 -2.3860 -0.4410
14502TIP3   OH264920   2.896   2.758   5.502 -0.5140  0.1132 -0.4423
14502TIP3    H164921   2.917   2.707   5.580 -0.7665 -0.0774 -0.4987
14502TIP3    H264922   2.909   2.697   5.429 -0.8599  0.1154 -0.5060
14503TIP3   OH264923   0.949   4.666  12.741 -0.1787  0.3839  0.4468
14503TIP3    H164924   0.976   4.576  12.724 -0.7780  0.0905  1.0279
14503TIP3    H264925   0.979   4.684  12.830 -2.2031 -0.0747  1.2426
14504TIP3   OH264926   1.405   5.229  15.438  0.4540 -0.0940  0.2412
14504TIP3    H164927   1.495   5.212  15.467  0.4249  0.3788  0.6222
14504TIP3    H264928   1.393   5.323  15.453 -0.0037 -0.1007 -0.0907
14505TIP3   OH264929   3.578   6.401   5.275  0.1691  0.1130 -0.5130
14505TIP3    H164930   3.646   6.394   5.208  1.9075  0.9995  1.1275
14505TIP3    H264931   3.501   6.432   5.227  0.9217 -0.8657 -2.3819
14506TIP3   OH264932   0.261   1.859   0.022 -0.2495 -0.3610 -0.6298
14506TIP3    H164933   0.181   1.830   0.066  0.1323  1.0366  1.0169
14506TIP3    H264934   0.267   1.952   0.040  1.7817 -0.4460 -0.6874
14507TIP3   OH264935   2.050   1.968  13.550  0.0561  0.0578 -0.1191
14507TIP3    H164936   2.121   2.024  13.519 -0.4133  0.5977 -0.2194
14507TIP3    H264937   2.093   1.906  13.609  0.5651  0.5571  0.0375
14508TIP3   OH264938   5.584   0.060   5.708  0.1730 -0.5150  0.6436
14508TIP3    H164939   5.570  -0.020   5.759 -0.6750 -0.4858  0.4718
14508TIP3    H264940   5.619   0.123   5.771  0.2932 -0.8489  0.9140
14509TIP3   OH264941   0.653   0.756   1.519  0.3455  0.8457 -0.6192
14509TIP3    H164942   0.629   0.785   1.431 -1.6850 -1.1125 -0.7482
14509TIP3    H264943   0.739   0.715   1.508  0.6460  1.6977 -1.4663
14510TIP3   OH264944   0.999   6.613   1.911  0.2475 -0.1477  0.4369
14510TIP3    H164945   1.055   6.654   1.976  0.7083 -0.4937  0.2624
14510TIP3    H264946   0.983   6.525   1.945 -0.8418  0.2109  0.8738
14511TIP3   OH264947   0.086   2.296   1.309  0.3509  0.0645 -0.5263
14511TIP3    H164948   0.097   2.221   1.367 -0.4951 -0.0665 -0.5351
14511TIP3    H264949   0.170   2.303   1.263 -0.2431 -2.1743 -2.0454
14512TIP3   OH264950   4.790   2.484   5.438  0.3138  0.1994 -0.1521
14512TIP3    H164951   4.863   2.502   5.377 -0.8180  1.6145 -1.1063
14512TIP3    H264952   4.795   2.389   5.452  3.0480  0.4262  0.7054
14513TIP3   OH264953   1.095   0.736   3.358  0.2939  0.2688  0.3836
14513TIP3    H164954   1.026   0.782   3.406  0.9387  2.9517 -1.1656
14513TIP3    H264955   1.055   0.711   3.275  0.0835 -1.6642  1.0263
14514TIP3   OH264956   0.863   2.533  16.808  0.1513  0.3701  0.5426
14514TIP3    H164957   0.796   2.486  16.858  0.6835 -1.7310 -0.6365
14514TIP3    H264958   0.833   2.525  16.717  1.2225  0.7171  0.1588
14515TIP3   OH264959   4.947   1.392   0.646 -0.4897 -0.2502 -0.2548
14515TIP3    H164960   4.904   1.439   0.574 -0.1338  0.3718 -0.0646
14515TIP3    H264961   5.033   1.433   0.653  0.0501 -1.3225 -0.4649
14516TIP3   OH264962   6.696   4.104   6.257 -0.0001  0.6498  0.9094
14516TIP3    H164963   6.625   4.071   6.311 -0.7527  1.4568  0.4209
14516TIP3    H264964   6.676   4.072   6.168 -0.4163  1.8906  0.5462
14517TIP3   OH264965   4.390   2.083   4.161 -0.0480  0.6209 -0.3366
14517TIP3    H164966   4.301   2.066   4.129 -0.2629 -0.6008  0.8444
14517TIP3    H264967   4.447   2.051   4.091 -0.5129 -1.8334  0.3704
14518TIP3   OH264968   0.222   1.537  11.721  0.3428  0.3584  0.0102
14518TIP3    H164969   0.144   1.482  11.723  1.3149 -1.0080  1.2690
14518TIP3    H264970   0.243   1.554  11.813  0.1581  2.7232 -0.3532
14519TIP3   OH264971   4.896   6.410   3.543  0.5384 -0.3872 -0.5344
14519TIP3    H164972   4.853   6.384   3.624 -0.8481  1.4585 -0.6510
14519TIP3    H264973   4.983   6.370   3.548  0.3369 -0.6080  1.6806
14520TIP3   OH264974   4.330   1.357   2.049 -0.3566 -0.6953 -0.6571
14520TIP3    H164975   4.308   1.272   2.010 -0.7439 -1.5857  1.3986
14520TIP3    H264976   4.247   1.388   2.085  0.7681 -2.0809  3.4372
14521TIP3   OH264977   0.399   5.811   0.639 -0.2620  0.0625  0.0555
14521TIP3    H164978   0.466   5.834   0.703  0.0288  1.0091 -0.5786
14521TIP3    H264979   0.436   5.837   0.555 -1.3792  0.5111 -0.3074
14522TIP3   OH264980   5.043   4.142  16.372  0.1261 -0.0305  0.3749
14522TIP3    H164981   5.109   4.073  16.370  0.2957  0.1460 -0.3427
14522TIP3    H264982   5.027   4.163  16.279  0.2962  1.0907  0.5870
14523TIP3   OH264983   6.375   1.887   2.347 -0.0478  0.2134  1.1963
14523TIP3    H164984   6.306   1.821   2.339  1.2362 -1.3881  2.8113
14523TIP3    H264985   6.414   1.892   2.259 -1.0175 -0.2141  0.7338
14524TIP3   OH264986   4.299   3.995   2.219  0.0129 -0.5534 -0.0911
14524TIP3    H164987   4.351   3.916   2.236 -0.7233 -1.1010 -0.3668
14524TIP3    H264988   4.296   4.040   2.304  4.2693  1.5535 -0.8994
14525TIP3   OH264989   5.152   3.156  17.224  0.2996  0.7573  0.8464
14525TIP3    H164990   5.237   3.180  17.259  0.8983 -1.4793  0.9749
14525TIP3    H264991   5.089   3.193  17.286  1.1852  1.6944  1.1895
14526TIP3   OH264992   1.887   5.899   1.403 -0.1865 -0.5710  0.5947
14526TIP3    H164993   1.909   5.991   1.385  1.9240 -1.0977  0.3114
14526TIP3    H264994   1.882   5.894   1.498 -0.0937 -0.2028  0.6213
14527TIP3   OH264995   5.454   2.210   5.661 -0.3960  0.2789  0.0602
14527TIP3    H164996   5.443   2.250   5.575  0.0848  2.5996  1.0396
14527TIP3    H264997   5.381   2.243   5.713 -0.5105 -0.8575  0.6386
14528TIP3   OH264998   2.543   1.646  11.745  0.3963 -0.6319  0.0767
14528TIP3    H164999   2.593   1.587  11.802 -1.1760 -0.9997  1.0996
14528TIP3    H265000   2.473   1.592  11.709 -0.8278  0.5014  0.7098
14529TIP3   OH265001   3.938   2.135   3.144  0.2609  0.3759  0.5507
14529TIP3    H165002   3.987   2.063   3.105  1.1584  0.0585  2.2192
14529TIP3    H265003   3.850   2.127   3.106  0.0227 -2.2833  1.5610
14530TIP3   OH265004   6.204   0.401   5.446 -0.3620 -0.2075 -0.0633
14530TIP3    H165005   6.229   0.309   5.453  1.4487  0.3050  0.4109
14530TIP3    H265006   6.152   0.417   5.525 -2.6334 -1.3903 -1.2696
14531TIP3   OH265007   2.818   6.142  16.357  0.1507  0.1130 -0.2119
14531TIP3    H165008   2.885   6.074  16.360  1.1881  1.1123 -0.3699
14531TIP3    H265009   2.768   6.123  16.278 -0.5154 -1.3294  0.5242
14532TIP3   OH265010   1.431   1.752   4.552  0.1295  0.0582  0.2493
14532TIP3    H165011   1.415   1.658   4.555  0.4451  0.0210  0.9595
14532TIP3    H265012   1.346   1.790   4.531  0.3699 -0.4885 -1.7759
14533TIP3   OH265013   5.500   5.600  12.620 -0.1233  0.1830  0.5691
14533TIP3    H165014   5.487   5.686  12.661  0.2248  0.5364 -0.0432
14533TIP3    H265015   5.583   5.569  12.656 -1.0404 -0.6270  2.0224
14534TIP3   OH265016   5.063   3.985   1.468 -0.0021 -0.6268 -0.1194
14534TIP3    H165017   5.102   4.073   1.465  0.7271 -0.9315  0.1397
14534TIP3    H265018   5.073   3.959   1.559  0.1806 -1.1518 -0.2904
14535TIP3   OH265019   1.841   6.533  13.445 -0.3316  0.4047 -0.0187
14535TIP3    H165020   1.928   6.519  13.405  0.4825  0.4878  1.6864
14535TIP3    H265021   1.799   6.598  13.389  0.5258  0.0062 -1.1395
14536TIP3   OH265022   6.188   2.253  16.170 -0.0737 -0.3006  0.3547
14536TIP3    H165023   6.113   2.309  16.155  1.1761  1.0975 -0.7883
14536TIP3    H265024   6.151   2.164  16.176 -1.8951  0.4701  0.8254
14537TIP3   OH265025   0.424   4.861  12.941  0.5224 -0.1203  0.6443
14537TIP3    H165026   0.430   4.955  12.959  0.4015 -0.0710  0.4345
14537TIP3    H265027   0.336   4.836  12.969  0.3657 -0.0610  0.2065
14538TIP3   OH265028   1.690   5.442   1.050 -0.0587  0.5935  0.2764
14538TIP3    H165029   1.755   5.419   0.984 -0.6918 -0.9072  0.1684
14538TIP3    H265030   1.730   5.415   1.133  0.5617  2.1033  0.4907
14539TIP3   OH265031   2.900   2.999   5.650  0.1073  0.2313 -0.0984
14539TIP3    H165032   2.904   2.972   5.558 -0.8041 -0.5704  0.1052
14539TIP3    H265033   2.928   2.922   5.699  0.7150  0.7000  0.3005
14540TIP3   OH265034   5.738   6.448   0.215 -0.3533 -0.2058 -0.7204
14540TIP3    H165035   5.829   6.451   0.244 -0.4227 -0.7287 -0.4506
14540TIP3    H265036   5.690   6.496   0.282 -0.1569  0.8812 -1.3388
14541TIP3   OH265037   5.028   0.512   2.194  0.2022  0.2181  0.2692
14541TIP3    H165038   5.044   0.551   2.280  1.9778  0.1275 -0.0064
14541TIP3    H265039   5.008   0.421   2.212 -1.5325  0.6747  0.7322
14542TIP3   OH265040   1.434   4.121  12.133  0.5473  0.4748  0.5446
14542TIP3    H165041   1.508   4.106  12.192  1.0736 -1.2509 -0.5293
14542TIP3    H265042   1.357   4.094  12.184  0.9620 -0.6567  0.5664
14543TIP3   OH265043   2.991   3.687  16.195  0.0667  0.1877 -0.3515
14543TIP3    H165044   2.941   3.606  16.210 -0.8689  0.6289 -1.0191
14543TIP3    H265045   3.011   3.685  16.101  0.3648  0.5553 -0.2934
14544TIP3   OH265046   3.193   6.505  11.700 -0.5140 -0.1266  0.2120
14544TIP3    H165047   3.102   6.498  11.670 -0.1114 -0.9106 -0.8367
14544TIP3    H265048   3.239   6.433  11.656  0.7075  0.5410  0.3718
14545TIP3   OH265049   2.259   1.454  15.584  0.4263 -0.1289 -0.2109
14545TIP3    H165050   2.282   1.417  15.669  1.8284 -1.8081 -1.2723
14545TIP3    H265051   2.306   1.537  15.579 -1.3291  1.0022  1.4749
14546TIP3   OH265052   2.261   3.439   0.072 -0.0790  0.2145  0.6551
14546TIP3    H165053   2.209   3.475   0.144 -0.9008  0.6803 -0.1605
14546TIP3    H265054   2.330   3.503   0.058  0.4050 -0.1363  1.3724
14547TIP3   OH265055   2.545   2.349   6.120  0.2063 -0.0495 -0.3176
14547TIP3    H165056   2.465   2.296   6.124 -0.1619  0.4887 -0.5487
14547TIP3    H265057   2.518   2.435   6.152  0.4033  0.4884 -1.5808
14548TIP3   OH265058   1.480   5.528  15.923 -0.2719 -0.2092 -0.1147
14548TIP3    H165059   1.526   5.555  15.844 -0.2965 -0.8603 -0.3553
14548TIP3    H265060   1.499   5.435  15.931 -0.6952 -0.2567  0.3632
14549TIP3   OH265061   1.980   6.145   4.082 -0.3028  0.3021  0.1686
14549TIP3    H165062   2.040   6.078   4.050 -0.4150 -0.3316  1.2586
14549TIP3    H265063   2.020   6.228   4.057 -0.2326 -0.1729 -1.3125
14550TIP3   OH265064   1.625   2.487  15.961 -0.3457  0.0818  0.6139
14550TIP3    H165065   1.673   2.416  15.919 -1.1153  0.8784 -1.7012
14550TIP3    H265066   1.534   2.457  15.964 -0.3230  0.0882  1.6246
14551TIP3   OH265067   2.232   2.610   4.160  0.1982 -0.1208  0.0036
14551TIP3    H165068   2.317   2.618   4.204  0.5121  0.8495 -0.7457
14551TIP3    H265069   2.248   2.645   4.072 -0.9789  0.0409 -0.1485
14552TIP3   OH265070   0.012   0.999  14.229  0.2138  0.0716  0.5813
14552TIP3    H165071  -0.019   1.017  14.317  0.2304 -0.0080  0.6042
14552TIP3    H265072  -0.068   0.991  14.176  0.2415  1.6319  0.2794
14553TIP3   OH265073   5.388   2.845  14.355 -0.3706  0.5420  0.0761
14553TIP3    H165074   5.370   2.927  14.401  1.1859  1.6034 -1.1845
14553TIP3    H265075   5.391   2.779  14.425 -0.1048  1.7821  1.2633
14554TIP3   OH265076   0.322   4.186  15.049 -0.1820 -0.5639  0.0741
14554TIP3    H165077   0.354   4.102  15.016 -0.4649  0.3374 -2.5719
14554TIP3    H265078   0.351   4.188  15.141  2.6301 -2.1176 -0.7276
14555TIP3   OH265079   1.029   5.210  14.896 -0.0383  0.3901  0.1491
14555TIP3    H165080   1.124   5.193  14.900 -0.0322 -0.0348 -1.3204
14555TIP3    H265081   0.991   5.146  14.955  0.5411  0.0811  0.1978
14556TIP3   OH265082   0.470   5.553   0.039 -0.1135 -0.4460 -0.3988
14556TIP3    H165083   0.503   5.622  -0.018 -0.0620 -1.2883 -1.3944
14556TIP3    H265084   0.468   5.475  -0.016  0.6244 -1.4363  0.9385
14557TIP3   OH265085   2.247   3.462   4.095 -0.2179  0.2925  0.2400
14557TIP3    H165086   2.170   3.484   4.147 -1.5766 -1.8393 -0.8025
14557TIP3    H265087   2.223   3.485   4.005 -0.5064 -2.3976 -0.4120
14558TIP3   OH265088   5.065   4.971   2.298 -0.4876  0.2697 -0.9159
14558TIP3    H165089   5.148   4.924   2.294  0.3383  1.5014  0.8719
14558TIP3    H265090   5.021   4.936   2.376 -0.5168  1.3650 -0.4264
14559TIP3   OH265091   3.191   1.792  13.338 -0.3884  0.1037 -0.0069
14559TIP3    H165092   3.142   1.845  13.401 -1.4503 -0.3329 -0.4485
14559TIP3    H265093   3.277   1.780  13.379 -0.9699  0.0636  1.2432
14560TIP3   OH265094   1.368   2.638   3.391  0.4208 -0.4765  0.2398
14560TIP3    H165095   1.289   2.680   3.424  0.4221 -0.3858  0.1268
14560TIP3    H265096   1.348   2.618   3.299  0.5804 -0.3281  0.1729
14561TIP3   OH265097   3.409   1.495  12.123 -0.0810 -0.7178 -0.6631
14561TIP3    H165098   3.401   1.589  12.140  1.3458 -0.7744  0.4866
14561TIP3    H265099   3.498   1.484  12.090 -0.7182 -1.4898 -2.1555
14562TIP3   OH265100   5.816   3.782   3.347 -0.4897  0.4089  0.1752
14562TIP3    H165101   5.745   3.722   3.369  0.2554 -0.4440  0.2536
14562TIP3    H265102   5.884   3.727   3.308 -0.2343  1.3538 -0.7488
14563TIP3   OH265103   3.130   3.112   3.147 -0.5717 -0.6356 -0.3034
14563TIP3    H165104   3.069   3.185   3.153 -1.3560 -1.2441 -0.8437
14563TIP3    H265105   3.111   3.071   3.063  0.3058 -1.0800 -0.2966
14564TIP3   OH265106   4.742   3.209  12.707  0.4428 -0.0499  0.1291
14564TIP3    H165107   4.810   3.254  12.657 -0.6447  1.1111 -0.3215
14564TIP3    H265108   4.745   3.248  12.794  1.9138 -1.6376  0.8231
14565TIP3   OH265109   2.810   3.447   1.764  0.2741 -0.0743  0.4123
14565TIP3    H165110   2.864   3.381   1.807  0.9659  2.0063  2.8548
14565TIP3    H265111   2.871   3.495   1.708  0.2829  0.1459  0.6119
14566TIP3   OH265112   0.351   3.353  15.026  0.3380 -0.3373 -0.4324
14566TIP3    H165113   0.266   3.397  15.020  0.9813  0.8895 -0.7018
14566TIP3    H265114   0.330   3.264  15.056 -0.9792  0.1427  0.0922
14567TIP3   OH265115   4.593   5.224  10.840  0.2244 -0.0910  0.0902
14567TIP3    H165116   4.571   5.153  10.780  1.8279 -0.0778 -0.5256
14567TIP3    H265117   4.604   5.301  10.783 -0.4328  0.4168  0.6394
14568TIP3   OH265118   4.600   1.005  17.006  0.1687  0.5058  0.3217
14568TIP3    H165119   4.608   1.064  17.081 -0.7639  0.7301  0.2466
14568TIP3    H265120   4.661   1.040  16.941 -1.8654  2.5996 -0.5061
14569TIP3   OH265121   4.020   4.071   2.229  0.0021 -0.4774  0.4078
14569TIP3    H165122   3.957   4.007   2.262 -0.4350 -0.8204 -1.0336
14569TIP3    H265123   4.093   4.018   2.195 -0.4046 -0.2339 -0.8808
14570TIP3   OH265124   3.118   0.806  12.284  0.7145 -0.2890  0.5808
14570TIP3    H165125   3.193   0.747  12.271  2.0367  1.3528  0.5951
14570TIP3    H265126   3.137   0.850  12.366 -0.6120 -0.3302  0.9133
14571TIP3   OH265127   1.334   6.542  10.736 -0.3307 -0.1953 -0.4323
14571TIP3    H165128   1.428   6.558  10.745 -0.5314  0.9755 -0.3084
14571TIP3    H265129   1.324   6.503  10.650  0.1050  1.1530 -1.1138
14572TIP3   OH265130   5.266   5.489   2.667  0.1768 -0.6185  0.3338
14572TIP3    H165131   5.232   5.495   2.756 -0.5284 -0.0081  0.0295
14572TIP3    H265132   5.192   5.458   2.615  0.9309 -2.1249  0.1592
14573TIP3   OH265133   1.378   0.551  12.919  0.4869  0.0733  1.3089
14573TIP3    H165134   1.411   0.640  12.904  2.9207 -1.0377 -0.2135
14573TIP3    H265135   1.299   0.546  12.865  0.0190  1.4508  1.8252
14574TIP3   OH265136   5.667   3.338  11.634  0.2842 -0.3321  0.1032
14574TIP3    H165137   5.615   3.262  11.607  1.3617 -0.8076 -0.6971
14574TIP3    H265138   5.694   3.318  11.723  1.1574 -1.2428 -0.3507
14575TIP3   OH265139   2.708   3.577   2.974  0.0842  0.2359  0.5183
14575TIP3    H165140   2.754   3.566   3.057  0.0467  1.9618  0.7740
14575TIP3    H265141   2.615   3.575   2.998 -0.0506 -3.1071  0.0199
14576TIP3   OH265142   6.354   2.720   0.725  0.3076  0.1411  0.3231
14576TIP3    H165143   6.350   2.815   0.739  0.4505  0.0860  0.7354
14576TIP3    H265144   6.433   2.707   0.673  2.0220 -0.0564  2.8734
14577TIP3   OH265145   1.545   3.365   5.720  0.2538  0.4217  0.3684
14577TIP3    H165146   1.567   3.289   5.774  1.5513  1.6759  1.6381
14577TIP3    H265147   1.593   3.352   5.639  0.4688 -0.1099  0.5826
14578TIP3   OH265148   4.291   0.809   4.006 -0.4511 -0.0791  0.4226
14578TIP3    H165149   4.197   0.822   3.995 -0.2632  2.3375  1.4062
14578TIP3    H265150   4.300   0.779   4.097 -0.2664  0.0090  0.4336
14579TIP3   OH265151   6.615   6.742   1.709 -0.3293  0.0094  0.8218
14579TIP3    H165152   6.640   6.666   1.761  0.0197  0.0236  0.6738
14579TIP3    H265153   6.541   6.780   1.756  0.5258  0.5125  1.7642
14580TIP3   OH265154   2.085   6.584   3.156  0.1806  0.1298 -0.1864
14580TIP3    H165155   2.081   6.489   3.166  1.0045  0.0078 -0.8680
14580TIP3    H265156   2.108   6.597   3.064 -0.2956  1.0007 -0.1885
14581TIP3   OH265157   0.741   2.492  13.228  0.1153  0.4562 -1.0521
14581TIP3    H165158   0.682   2.553  13.273 -0.5366 -0.4222 -0.7052
14581TIP3    H265159   0.737   2.519  13.136  0.5131  1.4895 -0.7769
14582TIP3   OH265160   4.990   2.973   0.525 -0.3117  0.1079 -0.0599
14582TIP3    H165161   5.057   3.040   0.538  1.0027 -0.8742 -1.6096
14582TIP3    H265162   4.924   3.015   0.469  0.2757  0.2500 -0.6478
14583TIP3   OH265163   5.208   0.428   3.242 -0.2858 -0.1725  0.2079
14583TIP3    H165164   5.119   0.394   3.252 -1.0063  1.6113  0.1555
14583TIP3    H265165   5.254   0.400   3.320 -1.4155  0.4133  1.0929
14584TIP3   OH265166   1.570   4.411  16.970  0.5719 -0.1696  0.0485
14584TIP3    H165167   1.494   4.356  16.990  2.3158 -3.0298 -0.9574
14584TIP3    H265168   1.561   4.486  17.029 -3.5610  0.0975 -0.7453
14585TIP3   OH265169   6.636   1.129  15.397 -0.1516 -0.3729 -0.4278
14585TIP3    H165170   6.583   1.087  15.466  0.3454 -1.7361 -0.8570
14585TIP3    H265171   6.686   1.057  15.359  0.0303  0.4812 -1.8119
14586TIP3   OH265172   5.313   3.089   3.056  0.3909  0.0598  0.2719
14586TIP3    H165173   5.379   3.044   3.004 -0.1480  0.1730 -0.5115
14586TIP3    H265174   5.320   3.181   3.030 -0.5012 -0.0232 -0.2730
14587TIP3   OH265175   4.984   0.433   6.025 -0.1617  0.1234  0.0172
14587TIP3    H165176   4.994   0.454   6.118 -1.2332 -2.4799  0.7584
14587TIP3    H265177   5.071   0.447   5.987  0.1615  1.6844  1.2843
14588TIP3   OH265178   0.972   2.485  11.455 -0.2862  0.0837 -0.8839
14588TIP3    H165179   0.937   2.480  11.366  0.0094  0.8796 -1.0463
14588TIP3    H265180   1.057   2.441  11.450 -0.4286 -0.1906 -0.9105
14589TIP3   OH265181   6.328   3.522   2.147 -0.1063  0.5473  0.3003
14589TIP3    H165182   6.285   3.607   2.138 -0.0351  0.5253 -0.2676
14589TIP3    H265183   6.272   3.473   2.207 -1.9759 -0.1778 -1.9420
14590TIP3   OH265184   0.353   6.419  13.232 -0.4945  0.0405 -0.2103
14590TIP3    H165185   0.264   6.384  13.222 -0.7429  0.5590  0.2283
14590TIP3    H265186   0.376   6.450  13.144 -0.8186  0.0935 -0.2758
14591TIP3   OH265187   6.246   1.470   4.457 -0.7585  0.4239  0.1510
14591TIP3    H165188   6.170   1.528   4.464 -0.8326  0.1812  1.4878
14591TIP3    H265189   6.320   1.529   4.449 -0.8221  0.7296  1.6392
14592TIP3   OH265190   2.233   0.327   4.496 -0.0016 -0.2556  0.0466
14592TIP3    H165191   2.154   0.287   4.534  0.1910 -0.8419 -0.1659
14592TIP3    H265192   2.202   0.410   4.459 -0.1459  0.4690  1.7293
14593TIP3   OH265193   5.395   1.510   1.256  0.3082 -0.2232 -0.5650
14593TIP3    H165194   5.345   1.485   1.334 -0.8456  0.3982 -1.0949
14593TIP3    H265195   5.355   1.592   1.227  1.8025  0.4194 -0.8669
14594TIP3   OH265196   5.888   5.334  16.570  0.0113  0.4275  0.7736
14594TIP3    H165197   5.954   5.330  16.640  0.3507  4.6508  0.8364
14594TIP3    H265198   5.816   5.384  16.608 -1.1149  0.1312 -0.9346
14595TIP3   OH265199   3.031   1.950  14.659 -0.4471  0.0830  0.0205
14595TIP3    H165200   2.976   1.934  14.736 -0.8071 -0.9577 -0.4510
14595TIP3    H265201   3.052   2.043  14.664  1.1676 -0.3428  2.4827
14596TIP3   OH265202   2.697   4.142   5.060  0.0846  0.0585  0.0569
14596TIP3    H165203   2.664   4.153   5.149  1.5506 -1.3577  0.7931
14596TIP3    H265204   2.745   4.224   5.042 -3.6378  2.1101 -1.0052
14597TIP3   OH265205   3.368   1.222  12.879 -0.0903  0.0903  0.5874
14597TIP3    H165206   3.362   1.313  12.908  0.5232  0.4090 -0.2528
14597TIP3    H265207   3.376   1.228  12.783 -0.0239 -0.8394  0.5310
14598TIP3   OH265208   5.224   0.487   4.167  0.7841  0.7352 -0.1119
14598TIP3    H165209   5.205   0.579   4.151 -1.7213 -0.0956 -2.2545
14598TIP3    H265210   5.184   0.468   4.252 -0.1961  1.2124 -0.4690
14599TIP3   OH265211   3.224   6.196   3.948 -0.4536 -0.6344  0.3238
14599TIP3    H165212   3.238   6.111   3.990 -0.3303 -1.5170 -1.4391
14599TIP3    H265213   3.153   6.236   3.998  0.1389 -1.3419  1.7791
14600TIP3   OH265214   1.141   2.542  16.656 -0.8382  0.6139 -0.1333
14600TIP3    H165215   1.167   2.621  16.703 -0.7919 -0.1721  1.1966
14600TIP3    H265216   1.164   2.470  16.715  0.3826 -0.4868 -1.9080
14601TIP3   OH265217   3.608   6.513   1.686  0.0286 -0.1370 -0.4170
14601TIP3    H165218   3.554   6.588   1.711 -2.1630 -1.0689 -2.1796
14601TIP3    H265219   3.698   6.547   1.684 -0.5234  1.5456  2.1708
14602TIP3   OH265220   1.419   5.461   2.541  0.2271  0.2916 -0.4058
14602TIP3    H165221   1.379   5.432   2.459 -0.2218 -3.9481  1.1846
14602TIP3    H265222   1.510   5.482   2.518 -0.4605  1.2042 -2.3561
14603TIP3   OH265223   1.646   5.629  15.746 -0.6074 -0.2919 -0.4793
14603TIP3    H165224   1.731   5.588  15.764 -1.0090 -0.3582  1.3754
14603TIP3    H265225   1.665   5.693  15.677  0.6899 -1.1956 -0.9952
14604TIP3   OH265226   4.137   0.751  12.525 -0.0684 -0.3077 -0.0822
14604TIP3    H165227   4.137   0.697  12.604  0.1846 -1.2613 -0.7281
14604TIP3    H265228   4.055   0.800  12.530 -0.1270 -0.4792  0.6908
14605TIP3   OH265229   4.184   5.112   3.050 -0.1701 -0.2579 -0.0315
14605TIP3    H165230   4.116   5.122   3.117 -1.0053 -0.5641 -0.8291
14605TIP3    H265231   4.204   5.202   3.022  2.5508  0.1516  2.9450
14606TIP3   OH265232   4.577   1.223  13.526  1.0529  0.4657  0.4757
14606TIP3    H165233   4.623   1.245  13.445  1.2405  0.6787  0.6411
14606TIP3    H265234   4.634   1.161  13.571  0.7392 -0.0011  0.2293
14607TIP3   OH265235   5.905   1.700   0.879 -0.1227 -0.3021  0.3687
14607TIP3    H165236   5.870   1.651   0.954  0.0670 -0.3485  0.4265
14607TIP3    H265237   5.981   1.747   0.914 -0.5548  0.3677  0.4117
14608TIP3   OH265238   1.665   3.917   5.535  0.2088 -0.1435 -0.3730
14608TIP3    H165239   1.639   3.973   5.461  2.2029  0.6557 -0.5184
14608TIP3    H265240   1.647   3.828   5.505  2.3110  0.0676 -2.4230
14609TIP3   OH265241   5.717   4.914   4.541  0.4217 -0.6307  0.1453
14609TIP3    H165242   5.767   4.994   4.553  1.7493 -1.5280  0.7575
14609TIP3    H265243   5.652   4.935   4.473  0.1673  1.1964  0.9382
14610TIP3   OH265244   2.638   6.423  16.355 -0.3789 -0.2309  0.4271
14610TIP3    H165245   2.545   6.406  16.342 -0.2913  0.3641 -1.1184
14610TIP3    H265246   2.672   6.344  16.396 -1.3720 -0.8648  0.0450
14611TIP3   OH265247   0.359   4.767  14.626 -0.2567  0.3651  0.4418
14611TIP3    H165248   0.320   4.764  14.538 -0.3208  0.0987  0.4784
14611TIP3    H265249   0.381   4.859  14.639 -2.6679  0.8793  1.1983
14612TIP3   OH265250   6.211   2.068  16.426 -0.3028  0.1879 -0.2986
14612TIP3    H165251   6.263   2.016  16.365  1.0777  0.4782  0.6010
14612TIP3    H265252   6.202   2.013  16.503  1.0344  1.1879  0.6008
14613TIP3   OH265253   1.612   5.255  14.998 -0.4768 -0.0209  0.1336
14613TIP3    H165254   1.607   5.230  14.906 -0.7583  1.9471 -0.4194
14613TIP3    H265255   1.693   5.216  15.030 -0.3908 -0.7279 -0.9427
14614TIP3   OH265256   5.916   2.942  15.888 -0.0376  0.5434 -0.3412
14614TIP3    H165257   5.820   2.938  15.885 -0.0429 -1.7538  1.6565
14614TIP3    H265258   5.935   3.036  15.893 -2.1161  1.0898 -1.7852
14615TIP3   OH265259   3.852   0.154   1.607 -0.1607 -0.3184 -0.3486
14615TIP3    H165260   3.939   0.163   1.566 -0.5530  2.0202 -0.7776
14615TIP3    H265261   3.793   0.193   1.543 -1.0622  1.4479  1.5061
14616TIP3   OH265262   1.332   6.680   0.899 -0.3896  0.1122  0.8618
14616TIP3    H165263   1.374   6.612   0.951 -0.1936 -0.0560  0.4847
14616TIP3    H265264   1.337   6.649   0.809  0.0411  0.7899  0.6420
14617TIP3   OH265265   5.372   4.253   5.206  0.1629 -0.1586 -0.0119
14617TIP3    H165266   5.277   4.265   5.201  0.0221 -0.5375  1.6831
14617TIP3    H265267   5.384   4.172   5.255  1.3973  0.6123  0.9901
14618TIP3   OH265268   1.140   4.768  11.920 -0.0780  0.5339  0.2621
14618TIP3    H165269   1.093   4.776  11.837 -0.0803  0.1785  0.2313
14618TIP3    H265270   1.072   4.771  11.987 -0.1690 -0.2102  0.2079
14619TIP3   OH265271   1.114   2.520  11.067 -0.0388 -0.0492 -0.0759
14619TIP3    H165272   1.028   2.532  11.027 -0.0985  0.0549  0.0876
14619TIP3    H265273   1.164   2.472  11.000 -0.6650 -1.4000  0.4074
14620TIP3   OH265274   4.802   2.716   4.219 -0.0231 -0.3904  0.5650
14620TIP3    H165275   4.806   2.626   4.252 -1.2861 -0.4403  0.6014
14620TIP3    H265276   4.860   2.716   4.144  0.9366 -0.9236  1.2923
14621TIP3   OH265277   3.098   1.885   5.179  0.0370  0.2709  0.5933
14621TIP3    H165278   3.052   1.804   5.158 -1.9077  1.2420  1.0303
14621TIP3    H265279   3.148   1.905   5.100 -0.5509 -0.6195 -0.0148
14622TIP3   OH265280   6.112   3.681   1.323 -0.0830 -0.2590 -0.1121
14622TIP3    H165281   6.037   3.625   1.308  0.6243 -1.0805 -0.6078
14622TIP3    H265282   6.130   3.721   1.238 -0.8402  1.0589  0.3264
14623TIP3   OH265283   4.524   3.774   0.699  0.3612 -0.3278  0.0274
14623TIP3    H165284   4.521   3.693   0.751 -1.8568  0.3201  0.9484
14623TIP3    H265285   4.595   3.824   0.739 -0.7305 -0.2178  1.9226
14624TIP3   OH265286   5.761   1.606   4.208  0.0922  0.2059 -0.1777
14624TIP3    H165287   5.729   1.647   4.288 -2.0869 -1.3834 -0.1939
14624TIP3    H265288   5.820   1.537   4.239  3.0846  2.6754 -0.1310
14625TIP3   OH265289   2.293   5.143   3.643  0.4600 -0.7501 -0.9816
14625TIP3    H165290   2.305   5.230   3.679 -2.1672 -0.0032 -1.8099
14625TIP3    H265291   2.353   5.139   3.569  0.1596  0.5884 -1.3092
14626TIP3   OH265292   1.743   3.326  16.955 -1.3025  0.0052  0.2660
14626TIP3    H165293   1.761   3.412  16.994  2.0114 -2.0382  3.6085
14626TIP3    H265294   1.674   3.289  17.010 -1.7127 -0.0651 -0.2897
14627TIP3   OH265295   0.402   3.877  15.839 -0.0581 -0.0453 -0.2492
14627TIP3    H165296   0.466   3.809  15.857 -0.4336 -1.1293 -2.8567
14627TIP3    H265297   0.452   3.949  15.802 -0.1688 -0.3395 -0.9636
14628TIP3   OH265298   5.260   5.987   2.413 -0.1809 -0.4127 -0.3105
14628TIP3    H165299   5.304   6.070   2.433 -0.8278  0.6841 -3.1075
14628TIP3    H265300   5.168   6.011   2.403 -0.9051 -2.0907  2.0873
14629TIP3   OH265301   5.923   4.109  10.910  0.2658  0.0923  0.2955
14629TIP3    H165302   5.883   4.031  10.948  0.8968  0.1618  1.1145
14629TIP3    H265303   5.864   4.134  10.839 -0.7290 -0.2579  0.9902
14630TIP3   OH265304   1.482   0.250   4.208 -0.1497 -0.1758  0.3858
14630TIP3    H165305   1.496   0.155   4.205  0.1855 -0.1309  0.6062
14630TIP3    H265306   1.453   0.267   4.297 -0.1049 -0.0542  0.3763
14631TIP3   OH265307   3.793   3.808   2.496 -0.1067  0.3388 -0.1874
14631TIP3    H165308   3.846   3.730   2.514 -1.8939 -1.3368 -1.9114
14631TIP3    H265309   3.824   3.873   2.558  0.4812 -2.1915  2.2687
14632TIP3   OH265310   4.641   0.966   4.130 -0.3330  0.0224 -0.3241
14632TIP3    H165311   4.720   0.985   4.182 -0.7612 -1.2060  0.8034
14632TIP3    H265312   4.571   0.961   4.195 -1.1084 -0.2579 -1.1804
14633TIP3   OH265313   2.307   3.530  13.817  0.4014  0.1604  0.5790
14633TIP3    H165314   2.263   3.454  13.855  1.7405 -1.8103 -1.6840
14633TIP3    H265315   2.399   3.503  13.808  1.0007  2.2304  0.2081
14634TIP3   OH265316   2.340   4.628  13.446 -0.0102  0.5598 -0.1745
14634TIP3    H165317   2.376   4.552  13.492 -2.1028 -1.6340 -2.0013
14634TIP3    H265318   2.254   4.641  13.485  0.5085  2.3136  0.4277
14635TIP3   OH265319   0.372   1.472   0.153 -0.5057 -0.6939  0.3144
14635TIP3    H165320   0.400   1.381   0.165  1.1131 -0.4890 -1.5727
14635TIP3    H265321   0.370   1.483   0.058 -1.7543  0.9441  0.5115
14636TIP3   OH265322   0.922   1.567  13.933 -0.7596 -0.5038 -0.0791
14636TIP3    H165323   0.856   1.537  13.996 -0.7324  0.4837  0.4209
14636TIP3    H265324   0.998   1.589  13.986 -0.2330 -1.0564 -0.5992
14637TIP3   OH265325   0.094   3.967   5.801  0.2367  0.0256  0.0118
14637TIP3    H165326   0.168   3.954   5.742  0.3370 -0.7493  0.3061
14637TIP3    H265327   0.017   3.961   5.745  0.4010  1.2770 -0.3753
14638TIP3   OH265328   0.174   1.077  13.248 -0.0359 -0.0121  0.0904
14638TIP3    H165329   0.252   1.113  13.207 -0.2621  0.3117 -0.0572
14638TIP3    H265330   0.103   1.098  13.187 -0.0961 -1.1595 -0.2529
14639TIP3   OH265331   2.157   4.247   2.350  0.8588 -0.1885 -0.0829
14639TIP3    H165332   2.167   4.288   2.436 -0.1613 -2.2218  1.0196
14639TIP3    H265333   2.096   4.304   2.304  0.7803  0.4696  0.8163
14640TIP3   OH265334   4.327   1.765  16.846  0.0591 -0.1138  0.6999
14640TIP3    H165335   4.242   1.768  16.891 -0.8501  3.1757 -1.0895
14640TIP3    H265336   4.340   1.672  16.827 -3.2333 -0.6783  0.8832
14641TIP3   OH265337   3.159   0.260   5.407  0.1644 -0.7247 -0.0753
14641TIP3    H165338   3.063   0.258   5.401  0.2063 -0.4751 -0.8682
14641TIP3    H265339   3.178   0.224   5.494 -0.7168  0.5922  0.6944
14642TIP3   OH265340   5.218   5.403   4.790 -0.4314  0.2986  0.1001
14642TIP3    H165341   5.127   5.428   4.773 -0.2813  0.4892 -0.4548
14642TIP3    H265342   5.213   5.337   4.859 -1.2305 -1.8640 -1.9387
14643TIP3   OH265343   3.369   2.339   5.334  0.0435 -0.5119  0.0986
14643TIP3    H165344   3.351   2.303   5.247 -1.3329 -0.0558  0.1882
14643TIP3    H265345   3.443   2.398   5.321  1.6626 -2.5653 -0.2445
14644TIP3   OH265346   2.584   1.229   4.806  0.3742  0.4625 -0.1652
14644TIP3    H165347   2.501   1.275   4.794  1.1604  1.7551 -0.7102
14644TIP3    H265348   2.560   1.147   4.850 -1.4199 -0.1173 -2.1633
14645TIP3   OH265349   1.450   3.152   3.061 -0.4129  0.0651 -0.2299
14645TIP3    H165350   1.409   3.068   3.039  0.3715 -0.2184 -0.6233
14645TIP3    H265351   1.395   3.188   3.130 -0.1513 -1.2711  0.6865
14646TIP3   OH265352   5.111   5.435  12.354 -0.2303  0.1681  0.3806
14646TIP3    H165353   5.123   5.461  12.262 -0.0411  0.7514  0.5648
14646TIP3    H265354   5.200   5.425  12.387 -0.3062 -0.9309  0.2593
14647TIP3   OH265355   2.613   2.488   1.794 -0.1444 -0.4400  0.1496
14647TIP3    H165356   2.557   2.414   1.770  1.0504 -0.8674 -1.4011
14647TIP3    H265357   2.590   2.507   1.885 -1.8869 -1.4233 -0.0631
14648TIP3   OH265358   1.150   1.383  16.526 -0.4630  0.8876  0.3724
14648TIP3    H165359   1.184   1.375  16.615 -1.3022  2.0012  0.8045
14648TIP3    H265360   1.228   1.380  16.470  0.0502 -0.0227  1.1207
14649TIP3   OH265361   6.258   2.582  11.916 -0.3163 -0.2932  0.1440
14649TIP3    H165362   6.174   2.627  11.903 -0.1670  0.5409  1.9460
14649TIP3    H265363   6.305   2.594  11.833 -0.9747  1.4106  0.0032
14650TIP3   OH265364   2.321   5.940  14.139  0.7970  0.7719 -0.3966
14650TIP3    H165365   2.322   5.858  14.090  1.0698  0.7078 -0.2851
14650TIP3    H265366   2.384   5.927  14.209 -0.3337  0.4896  0.5880
14651TIP3   OH265367   2.803   0.891   1.601 -0.1410  0.0490 -0.2095
14651TIP3    H165368   2.748   0.892   1.522 -1.3426 -0.6964  0.5902
14651TIP3    H265369   2.744   0.918   1.671  0.7107 -0.0485  0.5555
14652TIP3   OH265370   5.479   5.598  11.267  0.2056  0.1832  0.6109
14652TIP3    H165371   5.497   5.509  11.297  0.4560 -0.3863 -1.2016
14652TIP3    H265372   5.541   5.613  11.196 -2.2023  0.4768 -1.4981
14653TIP3   OH265373   5.493   2.891   3.598 -0.1584 -0.0783  0.3589
14653TIP3    H165374   5.445   2.819   3.559  0.6430  0.1304 -1.0426
14653TIP3    H265375   5.426   2.955   3.622 -0.6094  0.0114 -1.1533
14654TIP3   OH265376   1.712   1.319  15.952  0.3202  0.4953  0.4324
14654TIP3    H165377   1.662   1.238  15.947 -2.6475  2.3782 -1.8276
14654TIP3    H265378   1.803   1.290  15.955 -0.5958 -2.8879 -1.6437
14655TIP3   OH265379   3.440   0.531  12.804  0.5802 -0.3917 -0.1115
14655TIP3    H165380   3.467   0.520  12.713  1.2659 -1.1886  0.1832
14655TIP3    H265381   3.490   0.465  12.852  0.0659 -0.1146  0.8138
14656TIP3   OH265382   0.768   5.087   1.084  0.4604 -0.7196  0.0084
14656TIP3    H165383   0.852   5.066   1.044  0.3844  1.3850 -1.3439
14656TIP3    H265384   0.791   5.141   1.160  0.2906  0.5261 -0.8266
14657TIP3   OH265385   6.293   3.763  11.468 -0.9927 -0.3211  0.8117
14657TIP3    H165386   6.217   3.790  11.520 -0.2879  0.4964  1.4363
14657TIP3    H265387   6.292   3.822  11.393 -3.9383 -3.6487 -1.9078
14658TIP3   OH265388   3.909   3.859   3.197 -0.5223 -0.1725  0.3873
14658TIP3    H165389   3.833   3.895   3.242  0.1260 -1.9290  3.0687
14658TIP3    H265390   3.984   3.891   3.247  0.1743 -3.0254  1.2778
14659TIP3   OH265391   1.278   5.314  14.387 -0.7550  0.2726 -0.6211
14659TIP3    H165392   1.301   5.332  14.479  0.5298 -0.7672 -0.7288
14659TIP3    H265393   1.194   5.358  14.375 -0.8379  0.6049  0.9980
14660TIP3   OH265394   1.121   6.680   7.023 -0.5036 -0.0835 -0.0715
14660TIP3    H165395   1.064   6.671   6.947  1.1171  0.9133 -1.4598
14660TIP3    H265396   1.182   6.606   7.017  0.0145  0.3391 -0.0993
14661TIP3   OH265397   6.565   4.853  12.526  0.5299  0.3272 -0.1597
14661TIP3    H165398   6.554   4.817  12.614  0.5092  0.5394 -0.0758
14661TIP3    H265399   6.588   4.777  12.472 -0.9019 -0.0410 -0.2481
14662TIP3   OH265400   2.490   1.906  15.830 -0.0256 -0.2083 -0.9212
14662TIP3    H165401   2.517   1.998  15.840 -2.2101  0.2396  1.8136
14662TIP3    H265402   2.394   1.911  15.825 -0.1928 -2.3611 -0.1365
14663TIP3   OH265403   0.732   0.614  14.935 -0.1057 -0.1727 -0.3166
14663TIP3    H165404   0.750   0.692  14.883 -1.0462  0.9548  1.0248
14663TIP3    H265405   0.707   0.648  15.021 -1.5482 -1.9138 -0.0253
14664TIP3   OH265406   1.307   1.051  12.394 -0.2956  0.5062 -0.2874
14664TIP3    H165407   1.313   1.088  12.482  1.9758 -2.6588  1.0039
14664TIP3    H265408   1.225   1.002  12.393  0.4714 -0.8606  0.7359
14665TIP3   OH265409   0.461   6.414   4.417  0.1919  0.2754 -0.2792
14665TIP3    H165410   0.374   6.414   4.456 -0.3424  0.8037 -1.4389
14665TIP3    H265411   0.445   6.414   4.323  1.4508 -0.5730 -0.5131
14666TIP3   OH265412   1.515   0.754  15.287 -0.0481  0.3667 -0.2002
14666TIP3    H165413   1.530   0.692  15.359 -1.7970  1.1702  0.8744
14666TIP3    H265414   1.597   0.803  15.280  0.7145 -0.8378  0.1304
14667TIP3   OH265415   5.638   2.394  14.378 -0.1979 -0.2160  0.3069
14667TIP3    H165416   5.718   2.362  14.337  0.0046 -0.6466  1.0267
14667TIP3    H265417   5.660   2.479  14.413 -0.5337  0.4174 -0.9722
14668TIP3   OH265418   1.856   1.253   0.612  0.3065  0.2091  0.4807
14668TIP3    H165419   1.919   1.290   0.551  0.4277 -0.5430  0.1442
14668TIP3    H265420   1.779   1.233   0.558  0.8296 -1.5249  0.3353
14669TIP3   OH265421   3.746   5.390  14.931 -0.3020 -0.0531  0.6255
14669TIP3    H165422   3.813   5.325  14.912  0.3541  0.7396  0.2232
14669TIP3    H265423   3.721   5.425  14.845  1.1357  2.0055  1.0181
14670TIP3   OH265424   3.489   2.963  14.221  0.7282 -0.3796  0.7483
14670TIP3    H165425   3.523   2.982  14.133 -0.0964 -1.4971  0.1641
14670TIP3    H265426   3.565   2.930  14.269  0.8553 -1.2417 -0.0254
14671TIP3   OH265427   2.424   3.721  14.474  0.0930  0.2528  0.2473
14671TIP3    H165428   2.508   3.677  14.484 -0.7222 -0.9235  2.2568
14671TIP3    H265429   2.378   3.671  14.407  1.7987  2.2264 -2.4869
14672TIP3   OH265430   5.538   0.379  12.440 -0.3418 -0.0736  0.6318
14672TIP3    H165431   5.619   0.330  12.427  0.3882  1.4073 -0.4330
14672TIP3    H265432   5.476   0.340  12.378  0.2220  0.3146 -0.1814
14673TIP3   OH265433   1.224   6.137   5.553  0.1164  0.0917 -0.6134
14673TIP3    H165434   1.189   6.206   5.610  0.7715 -1.5310  1.8141
14673TIP3    H265435   1.317   6.134   5.573  1.1956  2.1435 -4.6723
14674TIP3   OH265436   2.681   6.612   2.912 -0.3481 -0.6216 -0.1736
14674TIP3    H165437   2.639   6.606   2.826 -1.9725  0.4615  0.5318
14674TIP3    H265438   2.694   6.521   2.938 -0.9024 -0.9657 -1.0529
14675TIP3   OH265439   2.542   3.985   3.818 -0.0458 -0.0282 -0.5689
14675TIP3    H165440   2.448   4.002   3.808  0.1064  1.2399  0.0544
14675TIP3    H265441   2.560   4.004   3.910  0.7896 -0.4458 -0.6458
14676TIP3   OH265442   4.058   3.845   1.127  0.5711  0.0027  0.4224
14676TIP3    H165443   3.964   3.837   1.109  0.3193  1.3221  1.0848
14676TIP3    H265444   4.078   3.769   1.182  0.7698 -2.5692 -3.0038
14677TIP3   OH265445   1.563   1.634  15.457  0.1335 -1.0336 -0.0827
14677TIP3    H165446   1.507   1.578  15.402  1.9231 -0.5674 -2.4638
14677TIP3    H265447   1.578   1.712  15.403  0.0143  0.5079  2.0538
14678TIP3   OH265448   4.955   5.401  12.901 -0.5085  0.1638 -0.2096
14678TIP3    H165449   4.932   5.470  12.963  0.2490  0.6884 -0.5009
14678TIP3    H265450   5.046   5.379  12.923 -0.2457  0.3426 -1.1353
14679TIP3   OH265451   4.175   5.908   1.068  0.2965  0.4109  0.2112
14679TIP3    H165452   4.158   5.999   1.090 -0.2118  0.5735 -0.8354
14679TIP3    H265453   4.141   5.858   1.143 -0.9839  0.9813  0.0189
14680TIP3   OH265454   0.223   4.425  11.825  0.0405  0.1495  0.4604
14680TIP3    H165455   0.192   4.440  11.736 -1.2009 -3.4406  0.2290
14680TIP3    H265456   0.144   4.410  11.877  0.8272  1.0711  1.9890
14681TIP3   OH265457   0.746   2.654   5.765 -0.2651 -0.2873  0.0336
14681TIP3    H165458   0.662   2.633   5.724  0.4709 -1.0801 -1.1072
14681TIP3    H265459   0.730   2.644   5.859 -1.9734  1.5325 -0.0141
14682TIP3   OH265460   1.591   3.833  16.936 -0.0674  0.2188 -0.1369
14682TIP3    H165461   1.669   3.806  16.888 -1.0796  0.2730 -1.8347
14682TIP3    H265462   1.623   3.895  17.001  1.2938  0.3361 -0.9116
14683TIP3   OH265463   1.608   5.720  16.091  0.7315  0.2059 -0.3629
14683TIP3    H165464   1.531   5.734  16.146  1.6772  1.2940  0.7171
14683TIP3    H265465   1.575   5.672  16.015 -1.1227  1.2051 -0.2239
14684TIP3   OH265466   6.210   1.887  14.876 -0.3543  0.5159 -0.3392
14684TIP3    H165467   6.238   1.825  14.808 -1.0799  0.4499 -0.5759
14684TIP3    H265468   6.276   1.878  14.945 -0.7893 -0.9883 -0.0986
14685TIP3   OH265469   0.280   1.347  11.996  0.5868  0.3804  0.5505
14685TIP3    H165470   0.239   1.261  11.983 -1.7828  1.2453  2.1113
14685TIP3    H265471   0.360   1.343  11.943 -0.1797 -2.2879 -0.4931
14686TIP3   OH265472   2.730   5.076  13.706 -0.4593 -0.2270  0.4230
14686TIP3    H165473   2.815   5.066  13.750  0.0350 -0.5597 -0.5852
14686TIP3    H265474   2.683   4.995  13.726 -0.2183 -0.3940  0.3198
14687TIP3   OH265475   1.796   0.309  11.895  0.1197 -0.2677 -0.1160
14687TIP3    H165476   1.831   0.224  11.866  0.3356  0.5736 -2.4726
14687TIP3    H265477   1.869   0.370  11.884 -0.0750  0.2584  1.4501
14688TIP3   OH265478   0.929   6.271   1.648  0.4737 -0.2537 -1.0361
14688TIP3    H165479   1.013   6.306   1.620 -0.7014  2.9048 -0.8458
14688TIP3    H265480   0.887   6.243   1.566  0.9726 -0.1192 -1.3397
14689TIP3   OH265481   3.046   4.521   2.432 -0.1771  0.0690 -0.0865
14689TIP3    H165482   3.004   4.457   2.376  0.0438 -0.7795  0.6937
14689TIP3    H265483   3.015   4.605   2.401  0.0449 -0.3797 -1.5586
14690TIP3   OH265484   2.055   2.656  15.834 -0.1964  0.1248  0.8343
14690TIP3    H165485   2.145   2.683  15.850 -0.3243  0.1381  1.5438
14690TIP3    H265486   2.045   2.574  15.882 -0.7159  0.3952  1.1932
14691TIP3   OH265487   5.948   4.903  15.000  0.1966 -0.3720  0.4823
14691TIP3    H165488   5.910   4.850  15.070  1.3799  1.7826  2.8414
14691TIP3    H265489   6.041   4.909  15.022  0.5359  0.5709 -1.1205
14692TIP3   OH265490   4.490   0.397  15.852  0.6617 -0.2266 -0.1212
14692TIP3    H165491   4.518   0.322  15.906 -1.2386 -0.8434  0.0440
14692TIP3    H265492   4.427   0.443  15.907 -1.9788 -1.3566 -2.1195
14693TIP3   OH265493   1.173   0.315   3.884  0.7527  0.5193  0.3194
14693TIP3    H165494   1.256   0.283   3.919  0.8295 -0.3198 -0.6068
14693TIP3    H265495   1.196   0.394   3.835  1.2647 -0.5646 -1.2498
14694TIP3   OH265496   2.066   5.889   5.619 -0.4395 -0.3296  0.6110
14694TIP3    H165497   2.104   5.885   5.707  0.7111 -0.4374  0.1208
14694TIP3    H265498   2.053   5.797   5.594 -0.5497 -0.3058  0.5795
14695TIP3   OH265499   5.490   3.415   1.409 -0.2573 -0.1513  0.4495
14695TIP3    H165500   5.557   3.459   1.462 -1.5202  1.3673  0.8116
14695TIP3    H265501   5.408   3.432   1.455 -1.3890  1.2572 -2.0228
14696TIP3   OH265502   0.331   5.827   2.877 -0.3380 -0.1056 -0.3633
14696TIP3    H165503   0.315   5.804   2.785  0.6239 -0.5083 -0.4382
14696TIP3    H265504   0.421   5.861   2.877 -0.0929 -0.7475  0.5445
14697TIP3   OH265505   0.951   6.576  16.752  0.4573  0.0096  0.2168
14697TIP3    H165506   0.999   6.555  16.833 -0.7451  1.1440  1.2296
14697TIP3    H265507   0.872   6.523  16.756  0.4115  0.0374 -0.2449
14698TIP3   OH265508   1.729   6.108   5.628 -0.0521  0.2645 -0.5161
14698TIP3    H165509   1.745   6.019   5.596 -1.6006 -0.5865  0.9377
14698TIP3    H265510   1.778   6.113   5.710 -2.2182 -0.3090  0.8904
14699TIP3   OH265511   2.713   3.442   4.205 -1.0507  0.1209  0.3182
14699TIP3    H165512   2.805   3.430   4.183 -0.4807  0.7768  2.2242
14699TIP3    H265513   2.671   3.360   4.177  0.0751 -0.1227 -0.6950
14700TIP3   OH265514   5.592   1.519  11.076  0.5733  0.2518  0.4522
14700TIP3    H165515   5.650   1.586  11.041 -0.4076  0.1248 -1.4698
14700TIP3    H265516   5.534   1.566  11.136  0.5795  0.9374 -0.0786
14701TIP3   OH265517   2.799   6.459  16.142  0.3278 -0.2904  0.0328
14701TIP3    H165518   2.731   6.448  16.209 -0.3801  0.8678 -0.4991
14701TIP3    H265519   2.867   6.397  16.168 -0.1094 -0.1269  1.6174
14702TIP3   OH265520   0.973   1.349   4.669 -0.3805  0.3123 -0.6162
14702TIP3    H165521   1.063   1.324   4.649 -0.9017 -0.5069 -2.0740
14702TIP3    H265522   0.929   1.265   4.688 -0.5667  0.8136  1.2774
14703TIP3   OH265523   1.615   5.087  15.727 -0.7943  0.4000 -0.3948
14703TIP3    H165524   1.629   5.158  15.664  1.6282 -0.4694 -0.8994
14703TIP3    H265525   1.704   5.062  15.754 -1.7588  0.0070  2.5312
14704TIP3   OH265526   5.884   2.549   0.639  0.2635 -0.1333  0.3224
14704TIP3    H165527   5.815   2.553   0.573  1.6926  0.2878 -1.1800
14704TIP3    H265528   5.887   2.457   0.666  0.0228 -0.4060 -0.5857
14705TIP3   OH265529   1.343   1.193   3.341 -0.2496 -0.3708  0.1503
14705TIP3    H165530   1.434   1.221   3.331 -0.5948  0.2852 -1.2431
14705TIP3    H265531   1.292   1.273   3.331 -0.9574 -0.6405  1.4997
14706TIP3   OH265532   3.004   5.443  10.986  0.4733 -0.0393 -0.7338
14706TIP3    H165533   3.001   5.438  11.081 -1.0212  2.6061 -0.5977
14706TIP3    H265534   3.059   5.519  10.967 -0.3931  0.3105 -1.9363
14707TIP3   OH265535   5.442   3.243  13.280 -0.3558  0.4262  0.6708
14707TIP3    H165536   5.490   3.270  13.358 -0.9214  2.4997  0.3492
14707TIP3    H265537   5.350   3.246  13.307 -0.5400  0.9377 -0.0036
14708TIP3   OH265538   4.774   3.179  10.903  0.5286  0.4280 -0.2991
14708TIP3    H165539   4.683   3.181  10.932  0.7295  0.9700  0.3024
14708TIP3    H265540   4.773   3.225  10.819  0.5262  2.0187  0.5343
14709TIP3   OH265541   1.497   4.633   0.341 -0.8678  0.3951 -0.3042
14709TIP3    H165542   1.498   4.728   0.334  3.3229  0.3929 -1.0612
14709TIP3    H265543   1.472   4.602   0.254  0.1564  0.8365 -0.7697
14710TIP3   OH265544   5.286   2.129   1.720 -0.3240  0.0030  0.1891
14710TIP3    H165545   5.229   2.197   1.684 -1.0038 -1.5690 -1.8397
14710TIP3    H265546   5.342   2.174   1.783 -3.1088  1.7722  1.4410
14711TIP3   OH265547   5.400   2.715  16.036 -0.8427 -0.2067  0.5029
14711TIP3    H165548   5.427   2.766  16.112  2.0437  1.2832 -1.4397
14711TIP3    H265549   5.383   2.780  15.968 -1.4710 -1.6107 -0.7165
14712TIP3   OH265550   0.670   3.246  13.271 -0.0044 -0.0567  0.4514
14712TIP3    H165551   0.710   3.329  13.298 -2.1060  0.9768  0.4951
14712TIP3    H265552   0.673   3.191  13.349  0.4854  0.3446  0.7172
14713TIP3   OH265553   6.227   2.814  14.686 -0.3189 -0.0248  0.0671
14713TIP3    H165554   6.259   2.894  14.645  0.4303  0.0722  0.8110
14713TIP3    H265555   6.200   2.842  14.774  2.2222 -1.0147  1.1978
14714TIP3   OH265556   0.922   2.381   1.622  0.0005 -0.4836  0.3634
14714TIP3    H165557   0.834   2.354   1.595 -0.9409  1.1679  1.6936
14714TIP3    H265558   0.964   2.407   1.540 -0.9120 -0.8228 -0.2273
14715TIP3   OH265559   2.415   4.036   2.436  0.0608 -0.6301 -0.2896
14715TIP3    H165560   2.416   4.127   2.406 -2.0841 -0.5514 -0.2007
14715TIP3    H265561   2.468   4.037   2.515  0.1112  0.5297 -0.3201
14716TIP3   OH265562   0.055   3.106  17.162 -0.0998  0.4581  0.3026
14716TIP3    H165563   0.117   3.067  17.224 -0.7884 -2.5513 -0.8492
14716TIP3    H265564   0.109   3.155  17.100  1.1517 -2.1178 -0.6676
14717TIP3   OH265565   5.756   3.016   5.533  0.1072 -0.0828 -0.3453
14717TIP3    H165566   5.818   3.058   5.473 -0.9941  0.1916 -1.3241
14717TIP3    H265567   5.679   3.000   5.479 -0.3033 -1.3288  0.6084
14718TIP3   OH265568   5.445   0.974   1.545 -0.1117  0.2304 -0.8087
14718TIP3    H165569   5.516   0.968   1.609 -1.0173  1.3908  0.3536
14718TIP3    H265570   5.462   0.904   1.483  2.1879  0.6735 -0.7023
14719TIP3   OH265571   5.665   6.557  11.638  0.5088  0.5787  0.0085
14719TIP3    H165572   5.749   6.603  11.635 -0.1775  1.8963  0.3954
14719TIP3    H265573   5.671   6.500  11.714  0.9944  0.7989  0.1384
14720TIP3   OH265574   5.836   4.924   1.848  0.4923 -0.1297  0.1789
14720TIP3    H165575   5.889   4.967   1.915  0.8815 -0.6210  0.1893
14720TIP3    H265576   5.747   4.923   1.884  0.5868  0.1485  0.4204
14721TIP3   OH265577   1.741   5.934  13.037  0.1192  0.0198  0.0648
14721TIP3    H165578   1.661   5.973  13.000 -0.3906  0.3351  1.4628
14721TIP3    H265579   1.711   5.890  13.117  1.4244  0.5735  0.8695
14722TIP3   OH265580   3.350   3.717   4.339  0.6384 -0.2682  0.1764
14722TIP3    H165581   3.325   3.722   4.431 -0.6364 -1.8758 -0.0575
14722TIP3    H265582   3.266   3.719   4.292  1.2243 -0.7064 -0.8901
14723TIP3   OH265583   3.641   3.863   0.973 -0.0037  0.2747 -0.2182
14723TIP3    H165584   3.710   3.903   0.920 -0.2703  2.7301  1.2347
14723TIP3    H265585   3.560   3.880   0.924  0.1099 -0.3344 -0.6279
14724TIP3   OH265586   4.554   3.483  16.351 -0.3448  0.6280 -0.2350
14724TIP3    H165587   4.483   3.526  16.302 -1.6814 -0.9266  0.2777
14724TIP3    H265588   4.623   3.470  16.286 -0.5005  2.1860 -0.7499
14725TIP3   OH265589   1.455   5.369  11.509 -0.2583  0.1748 -0.4524
14725TIP3    H165590   1.479   5.368  11.602  0.2907  0.6755 -0.5899
14725TIP3    H265591   1.415   5.455  11.496  2.5294  1.3599 -1.4102
14726TIP3   OH265592   4.624   5.032   4.772 -0.1314 -0.9253  0.3989
14726TIP3    H165593   4.546   5.045   4.825  0.2637  2.7963  0.2308
14726TIP3    H265594   4.598   5.057   4.683  1.3644  1.0299  0.4654
14727TIP3   OH265595   3.616   4.892  12.063 -0.0781 -0.1645 -0.0245
14727TIP3    H165596   3.700   4.929  12.037  0.5644 -0.1599  1.9431
14727TIP3    H265597   3.620   4.801  12.033  0.7723 -0.2567  0.3527
14728TIP3   OH265598   2.361   3.970  15.797  0.1536 -0.1961  0.1354
14728TIP3    H165599   2.420   4.020  15.853  1.6391 -0.0118 -1.5189
14728TIP3    H265600   2.318   4.036  15.742 -1.5638 -0.3363  1.2984
14729TIP3   OH265601   0.242   5.484   0.169  0.1331 -0.2956 -0.1560
14729TIP3    H165602   0.295   5.517   0.242 -0.4490  0.4091 -0.0456
14729TIP3    H265603   0.278   5.527   0.092  0.2036 -0.3907 -0.1762
14730TIP3   OH265604   2.995   1.578  16.079 -0.2908  0.1434 -0.5837
14730TIP3    H165605   3.035   1.491  16.080 -0.3933  0.0687  3.6452
14730TIP3    H265606   3.066   1.637  16.054  0.4116 -0.8687 -1.0058
14731TIP3   OH265607   6.476   0.927  12.542  0.4729 -0.3781  0.2630
14731TIP3    H165608   6.410   0.988  12.576  2.0683  1.0789  0.7800
14731TIP3    H265609   6.559   0.972  12.555  1.3823 -1.0596 -2.8390
14732TIP3   OH265610   5.084   6.581   3.859  0.4302 -0.8619  0.1421
14732TIP3    H165611   5.167   6.537   3.841  0.0552 -1.8283  0.7278
14732TIP3    H265612   5.108   6.655   3.916  0.9408 -0.8471 -0.0883
14733TIP3   OH265613   2.832   5.089   2.983  0.0516  0.5090 -0.3295
14733TIP3    H165614   2.848   5.098   3.077  0.1176 -0.6919 -0.2140
14733TIP3    H265615   2.741   5.061   2.978  1.0037 -2.8106 -0.4086
14734TIP3   OH265616   2.598   5.883  11.586 -0.1386  0.4117  0.2050
14734TIP3    H165617   2.562   5.936  11.514  0.3654  0.6232  0.1089
14734TIP3    H265618   2.675   5.840  11.548 -0.8024 -0.7572  0.1420
14735TIP3   OH265619   2.498   4.489  13.160 -0.2723 -0.6404 -0.2108
14735TIP3    H165620   2.464   4.483  13.250  0.1078 -1.2044 -0.1018
14735TIP3    H265621   2.470   4.575  13.130  0.3230 -0.1132  0.7425
14736TIP3   OH265622   4.478   2.128   5.608  0.2695  0.1369  0.2065
14736TIP3    H165623   4.518   2.044   5.625 -0.4321 -0.6625 -1.8703
14736TIP3    H265624   4.544   2.178   5.560  0.4388  0.5301  0.8375
14737TIP3   OH265625   1.083   1.817  13.693 -0.2554  0.1461  0.1938
14737TIP3    H165626   1.118   1.890  13.641 -1.2955  1.6061  1.5167
14737TIP3    H265627   0.989   1.834  13.698 -0.5633 -1.4921  0.2234
14738TIP3   OH265628   3.726   5.487  14.604 -0.0736  0.3413 -0.1426
14738TIP3    H165629   3.717   5.422  14.535  0.3679  0.1644 -0.0373
14738TIP3    H265630   3.647   5.540  14.598 -1.5287 -1.6465  1.2908
14739TIP3   OH265631   5.092   3.752  16.845 -0.3770  0.1230  0.1263
14739TIP3    H165632   5.150   3.767  16.920 -1.3415  0.9449  0.7169
14739TIP3    H265633   5.110   3.825  16.786 -0.4004  0.0740  0.0567
14740TIP3   OH265634   5.821   4.347  15.011  0.2212 -0.8480 -0.4895
14740TIP3    H165635   5.856   4.263  15.042 -1.6389 -0.6053  2.5110
14740TIP3    H265636   5.833   4.345  14.916  2.6760 -3.3414 -0.1824
14741TIP3   OH265637   4.584   0.354  14.002 -0.3762 -1.1267  0.6617
14741TIP3    H165638   4.617   0.313  14.083 -0.6684 -2.3826  0.1672
14741TIP3    H265639   4.586   0.283  13.938  0.7371  0.1110 -0.6883
14742TIP3   OH265640   1.297   1.321  15.114 -0.2031  0.4297 -0.0663
14742TIP3    H165641   1.221   1.263  15.107 -1.1857  1.6023  0.6209
14742TIP3    H265642   1.279   1.392  15.052  0.5846  0.4466 -0.2774
14743TIP3   OH265643   1.913   5.480   5.805 -0.8027  0.8538  0.2023
14743TIP3    H165644   1.823   5.489   5.772 -1.1602 -1.1814  0.5689
14743TIP3    H265645   1.918   5.544   5.876 -1.8900  1.1580  0.0207
14744TIP3   OH265646   2.630   0.050  15.963 -0.1665 -0.2201 -0.0003
14744TIP3    H165647   2.676   0.131  15.944 -0.8234  0.3364  0.7269
14744TIP3    H265648   2.643  -0.004  15.885  1.0534  0.2195 -0.1150
14745TIP3   OH265649   6.578   6.050  13.121  0.1278  0.1692 -0.2161
14745TIP3    H165650   6.537   6.134  13.099  0.5239  0.2440 -0.7008
14745TIP3    H265651   6.639   6.071  13.192  1.5206  0.6499 -1.5138
14746TIP3   OH265652   0.183   1.549   4.691  0.2070  0.3552  0.2581
14746TIP3    H165653   0.275   1.567   4.672  0.4543 -0.4628  0.6494
14746TIP3    H265654   0.161   1.608   4.763  0.5665  0.2165  0.4854
14747TIP3   OH265655   6.398   6.712  16.352 -0.3594  0.3554  0.3845
14747TIP3    H165656   6.374   6.710  16.444 -0.5714 -2.0450  0.2962
14747TIP3    H265657   6.494   6.714  16.352 -0.3600  0.4115  0.6398
14748TIP3   OH265658   3.597   5.870  12.939 -0.4486  0.0998 -0.2341
14748TIP3    H165659   3.587   5.775  12.929 -2.6282  0.4962 -2.3140
14748TIP3    H265660   3.536   5.893  13.009  0.3649 -0.0742  0.5373
14749TIP3   OH265661   4.072   6.573  12.229  0.4465 -0.3305  0.5184
14749TIP3    H165662   4.051   6.648  12.284  1.2347  0.2315  0.0637
14749TIP3    H265663   4.112   6.510  12.289  3.6265  1.2643  0.1974
14750TIP3   OH265664   2.712   0.111  15.386 -0.4113 -0.1898  0.8619
14750TIP3    H165665   2.618   0.094  15.397 -0.7392  1.4403  0.5632
14750TIP3    H265666   2.737   0.059  15.310 -1.3015  0.2549  0.2689
14751TIP3   OH265667   1.160   6.245  11.988 -0.1180  0.3513 -0.2475
14751TIP3    H165668   1.206   6.309  12.042  1.7076 -0.0802 -1.2316
14751TIP3    H265669   1.211   6.165  11.996 -1.4730 -0.5394 -0.2985
14752TIP3   OH265670   2.088   4.207   5.425 -0.3381 -0.1753  0.3980
14752TIP3    H165671   2.067   4.292   5.464  0.5548  1.2440 -2.1095
14752TIP3    H265672   2.003   4.171   5.399 -0.8504 -0.7140  2.7082
14753TIP3   OH265673   4.193   0.654   0.467 -0.3328 -0.1002  0.2243
14753TIP3    H165674   4.225   0.600   0.539 -2.6419 -1.3668  0.3651
14753TIP3    H265675   4.208   0.744   0.495  2.0324 -0.6383  0.7157
14754TIP3   OH265676   5.815   3.421   5.957 -0.0508  0.1743 -0.0681
14754TIP3    H165677   5.723   3.401   5.939  0.0259  0.4737 -0.8479
14754TIP3    H265678   5.816   3.514   5.979 -0.1696 -0.2425  1.7485
14755TIP3   OH265679   3.872   0.217   2.741 -0.0160  0.2511 -0.1669
14755TIP3    H165680   3.884   0.262   2.657 -0.7977 -0.7467 -0.8231
14755TIP3    H265681   3.904   0.128   2.725 -0.8151 -0.1383  0.3819
14756TIP3   OH265682   1.509   1.762  13.828 -0.6506 -0.7479 -0.4005
14756TIP3    H165683   1.418   1.781  13.850 -0.0543  2.2732 -0.3175
14756TIP3    H265684   1.557   1.779  13.909  0.2317 -0.1876 -1.0230
14757TIP3   OH265685   3.415   2.548  14.833  0.7561 -0.7071 -0.0143
14757TIP3    H165686   3.421   2.615  14.901 -0.3639 -0.6620  0.0416
14757TIP3    H265687   3.481   2.574  14.769  0.6953  0.1606  0.2600
14758TIP3   OH265688   4.573   0.500  15.594 -0.3261 -0.7618 -0.0748
14758TIP3    H165689   4.655   0.469  15.555 -0.8084  0.3207 -2.0638
14758TIP3    H265690   4.548   0.431  15.655  1.6402 -1.4875 -0.0285
14759TIP3   OH265691   3.588   3.175  15.979 -0.1938  0.1696 -0.0058
14759TIP3    H165692   3.562   3.262  15.950  2.9594  1.2242  0.1304
14759TIP3    H265693   3.575   3.119  15.904  0.3101  1.3198 -0.9696
14760TIP3   OH265694   2.264   0.743   1.295 -0.3667  0.3527  0.1448
14760TIP3    H165695   2.182   0.787   1.271  0.6225  2.0165 -0.2557
14760TIP3    H265696   2.331   0.810   1.285  0.7394 -0.3018  2.8155
14761TIP3   OH265697   5.499   2.520  15.519  0.0534  0.6319 -0.8040
14761TIP3    H165698   5.534   2.463  15.587  1.5834  1.9696 -0.4303
14761TIP3    H265699   5.410   2.539  15.548 -0.9561 -2.6135 -1.6402
14762TIP3   OH265700   4.236   3.839  15.052 -0.4102 -0.2894 -0.3103
14762TIP3    H165701   4.241   3.786  14.973 -0.1118  0.0270 -0.5075
14762TIP3    H265702   4.146   3.829  15.082 -0.0779 -1.7478  0.2417
14763TIP3   OH265703   0.990   3.236  15.107  0.0234  0.5132  0.0414
14763TIP3    H165704   1.043   3.169  15.065 -1.5110 -1.4517  1.1227
14763TIP3    H265705   1.053   3.293  15.151  1.3250 -0.8113 -0.0539
14764TIP3   OH265706   4.174   1.683  15.901  0.0968 -0.3361 -0.2308
14764TIP3    H165707   4.126   1.601  15.905 -1.8672  0.8203  0.7098
14764TIP3    H265708   4.166   1.712  15.811 -1.4229  0.0958  0.0341
14765TIP3   OH265709   6.675   4.884  17.185  0.4010  0.7430 -0.1068
14765TIP3    H165710   6.694   4.887  17.279 -0.2400  1.1579  0.0124
14765TIP3    H265711   6.580   4.877  17.180  0.4151  1.0081 -0.7291
14766TIP3   OH265712   2.222   2.848  12.122  0.1633  0.7621 -0.5113
14766TIP3    H165713   2.299   2.898  12.095 -1.8684  2.7363 -2.9039
14766TIP3    H265714   2.199   2.885  12.207  1.3109  0.7976 -0.2084
14767TIP3   OH265715   4.267   1.951  15.937  0.2789 -0.1370  0.3000
14767TIP3    H165716   4.248   1.859  15.920 -0.5043  0.0624  0.0331
14767TIP3    H265717   4.181   1.990  15.956  0.4546  0.7507 -0.6679
14768TIP3   OH265718   6.296   1.323  15.081 -0.4262  0.2569  0.2546
14768TIP3    H165719   6.339   1.272  15.150 -1.8329 -2.1312 -0.5557
14768TIP3    H265720   6.265   1.257  15.018 -1.3295  2.2077 -1.4108
14769TIP3   OH265721   2.204   3.051  16.388 -0.5654  0.4421 -0.4258
14769TIP3    H165722   2.185   3.066  16.481 -0.5095  1.4548 -0.5749
14769TIP3    H265723   2.130   2.999  16.357  0.3166 -1.4859  0.6052
14770TIP3   OH265724   5.022   0.235   4.529 -0.9068  0.3595  0.2158
14770TIP3    H165725   5.046   0.324   4.502 -2.8052  1.2369  1.3407
14770TIP3    H265726   4.928   0.229   4.513 -0.3312 -2.4963 -2.6587
14771TIP3   OH265727   0.613   1.332  14.638  0.3715  0.1173  0.2092
14771TIP3    H165728   0.651   1.278  14.569 -0.6931 -1.7540  1.0781
14771TIP3    H265729   0.542   1.280  14.674 -1.7774  2.7670 -0.0419
14772TIP3   OH265730   0.774   0.806   3.318  0.0585  0.4750  0.5892
14772TIP3    H165731   0.755   0.712   3.312  1.9150  0.0580  0.6742
14772TIP3    H265732   0.689   0.849   3.316 -0.7647 -1.1628 -0.4646
14773TIP3   OH265733   0.909   3.280  16.193  0.1321  0.4201  0.5230
14773TIP3    H165734   0.877   3.314  16.277  0.4587  1.3271  0.2774
14773TIP3    H265735   0.917   3.357  16.137  2.4386  0.1721  0.4742
14774TIP3   OH265736   3.370   5.871  11.164 -0.2171  0.2327 -0.0864
14774TIP3    H165737   3.374   5.936  11.235  0.4169 -0.2788  0.3482
14774TIP3    H265738   3.447   5.889  11.111 -1.5422  1.6660 -1.5806
14775TIP3   OH265739   4.430   0.833  12.726 -0.6965  0.7144 -0.7725
14775TIP3    H165740   4.430   0.835  12.821 -0.1710  0.4188 -0.7618
14775TIP3    H265741   4.367   0.764  12.704  0.0401 -0.0240 -0.6091
14776TIP3   OH265742   6.008   5.845   0.554 -0.0633  0.2583 -0.4240
14776TIP3    H165743   6.040   5.817   0.640  2.0939 -0.0987 -1.3192
14776TIP3    H265744   5.921   5.805   0.546  0.0363 -0.3199  1.2676
14777TIP3   OH265745   5.031   3.399  12.835  0.4679  0.3794  0.3349
14777TIP3    H165746   5.078   3.451  12.901  0.0437  0.2051  0.7755
14777TIP3    H265747   5.006   3.462  12.768 -1.2590  0.9941  1.5405
14778TIP3   OH265748   3.301   1.882  14.733  0.6369 -0.0152  0.3707
14778TIP3    H165749   3.212   1.917  14.729  0.0852 -1.3887  0.3430
14778TIP3    H265750   3.294   1.803  14.786  1.3434 -1.5407 -1.7054
14779TIP3   OH265751   2.340   6.433  13.144  0.0791  0.5053  0.3864
14779TIP3    H165752   2.364   6.366  13.208 -0.8805  0.4647  0.7155
14779TIP3    H265753   2.415   6.492  13.142  0.9730 -0.6299  0.0124
14780TIP3   OH265754   0.553   0.768   0.951 -0.2110  0.3563  0.0068
14780TIP3    H165755   0.505   0.694   0.989 -1.4873  0.8069 -0.6770
14780TIP3    H265756   0.630   0.728   0.910 -0.4343 -0.4834  0.3843
14781TIP3   OH265757   5.982   2.379  11.725  0.2314  0.2068 -0.9089
14781TIP3    H165758   5.980   2.471  11.751  0.5836  0.1385 -0.6224
14781TIP3    H265759   6.069   2.367  11.687 -0.6283  0.5490 -3.0738
14782TIP3   OH265760   1.956   2.473   5.638 -0.2085 -0.0750  0.1567
14782TIP3    H165761   2.000   2.469   5.553  1.7383  1.1903  1.0409
14782TIP3    H265762   1.991   2.398   5.686 -0.5709 -0.2393  0.1605
14783TIP3   OH265763   2.630   2.096  13.066  0.1409  0.5084  0.1372
14783TIP3    H165764   2.588   2.049  13.138  1.5326 -2.2116 -0.7510
14783TIP3    H265765   2.683   2.163  13.109  1.4283 -1.4754  1.7365
14784TIP3   OH265766   2.526   2.830   1.072  0.6045  0.5844  0.5976
14784TIP3    H165767   2.513   2.738   1.053  2.6701  0.2670  0.5370
14784TIP3    H265768   2.513   2.874   0.988  1.7133  0.0826  0.1446
14785TIP3   OH265769   5.292   2.163   2.865 -0.4109 -0.4909 -0.2977
14785TIP3    H165770   5.315   2.233   2.803  1.4190 -0.2288  0.6588
14785TIP3    H265771   5.238   2.206   2.931  1.3270  0.2060  0.6945
14786TIP3   OH265772   3.942   5.645   4.605 -0.1528  0.0134  0.0941
14786TIP3    H165773   4.019   5.608   4.647 -0.1934 -0.4242 -0.2098
14786TIP3    H265774   3.968   5.734   4.581  1.0765 -0.9210 -2.1798
14787TIP3   OH265775   4.172   5.643  17.172 -0.1015  0.8459 -0.0006
14787TIP3    H165776   4.116   5.720  17.168 -0.0930  0.8169 -0.9006
14787TIP3    H265777   4.229   5.657  17.248  0.0711  1.8396 -0.3120
14788TIP3   OH265778   4.663   1.732  10.809 -0.3953  0.1282 -0.0969
14788TIP3    H165779   4.758   1.741  10.804 -0.4247  0.0134 -1.0265
14788TIP3    H265780   4.635   1.804  10.865  0.1389  0.9130 -0.8187
14789TIP3   OH265781   1.504   0.920  10.403 -0.2466  0.2255  0.4166
14789TIP3    H165782   1.413   0.933  10.374  0.4191  1.5590 -1.1506
14789TIP3    H265783   1.541   1.008  10.405  1.1802 -0.3756  0.4521
14790TIP3   OH265784   2.238   3.736  14.001  0.0806  0.1520 -0.5713
14790TIP3    H165785   2.324   3.757  14.038 -1.0605  0.9503  1.7182
14790TIP3    H265786   2.247   3.646  13.970  0.9851 -0.7755  2.1807
14791TIP3   OH265787   0.441   5.104  15.603  0.3950 -0.1506 -0.0220
14791TIP3    H165788   0.356   5.091  15.561  0.9477  0.4838 -1.3794
14791TIP3    H265789   0.504   5.097  15.532  1.4307  0.0389  0.8670
14792TIP3   OH265790   3.918   3.965   2.682 -0.3768 -0.0300  0.3548
14792TIP3    H165791   3.922   3.918   2.765 -0.5414  0.4106  0.6189
14792TIP3    H265792   4.002   3.949   2.641 -1.3185 -2.5207 -0.6638
14793TIP3   OH265793   0.957   2.753   2.357 -0.0431  0.1692 -0.7854
14793TIP3    H165794   0.986   2.664   2.378  0.9170  0.8726  1.0025
14793TIP3    H265795   0.993   2.769   2.270 -0.4300 -1.2821 -1.2310
14794TIP3   OH265796   3.274   2.346  14.391  0.9344  0.0915 -0.0117
14794TIP3    H165797   3.368   2.352  14.373  0.9282 -1.1280 -0.4968
14794TIP3    H265798   3.266   2.352  14.486  1.4678  0.6373 -0.0028
14795TIP3   OH265799   1.263   4.474   4.697 -0.2979 -0.2935 -0.0501
14795TIP3    H165800   1.229   4.561   4.719 -2.3592 -0.2010 -3.3837
14795TIP3    H265801   1.239   4.461   4.606 -0.1330 -4.4517  0.4249
14796TIP3   OH265802   6.435   1.862   4.692  0.4689 -0.3218 -0.2009
14796TIP3    H165803   6.517   1.882   4.646  0.4193 -1.5650 -0.8491
14796TIP3    H265804   6.374   1.929   4.661  1.2743  0.7382  0.4390
14797TIP3   OH265805   2.754   2.843  14.367 -0.1217 -0.8124  0.2153
14797TIP3    H165806   2.825   2.780  14.376  1.1779  0.6041  0.0017
14797TIP3    H265807   2.761   2.876  14.278  0.7811  1.4641  1.1008
14798TIP3   OH265808   6.500   0.085   5.023  0.3574  0.1289 -0.2403
14798TIP3    H165809   6.406   0.092   5.007  0.0606 -1.8632  0.4859
14798TIP3    H265810   6.539   0.081   4.935 -0.1185  1.9514 -0.5628
14799TIP3   OH265811   3.826   0.755  10.967  0.0449  0.7812  0.0384
14799TIP3    H165812   3.810   0.807  10.888  0.7608 -0.5423 -0.9914
14799TIP3    H265813   3.793   0.668  10.945 -1.6833  0.9204  1.9529
14800TIP3   OH265814   5.764   4.840   0.274 -0.0407 -0.3708  0.8372
14800TIP3    H165815   5.694   4.871   0.216  0.0409  0.8565  1.3709
14800TIP3    H265816   5.784   4.752   0.243 -0.7779 -0.1535 -0.2821
14801TIP3   OH265817   0.016   6.179   0.364 -0.1037 -0.9591 -0.3443
14801TIP3    H165818  -0.003   6.116   0.433 -1.2431  0.3979  0.6215
14801TIP3    H265819   0.060   6.251   0.409 -0.7299 -0.1201 -1.0553
14802TIP3   OH265820   2.153   2.054   0.460  0.3680  0.3184  0.7064
14802TIP3    H165821   2.082   2.109   0.429  0.3777 -0.3319 -0.4835
14802TIP3    H265822   2.119   1.965   0.454  0.0984  0.2191  3.2767
14803TIP3   OH265823   2.391   3.595  16.884 -0.0397 -0.5168 -0.2255
14803TIP3    H165824   2.425   3.506  16.896 -1.0718 -0.9014 -0.0947
14803TIP3    H265825   2.313   3.584  16.830 -0.7256  0.2015  0.5912
14804TIP3   OH265826   5.665   2.005  16.937  0.0971  0.0629 -0.3792
14804TIP3    H165827   5.720   1.975  17.009  0.1584 -0.1084 -0.4959
14804TIP3    H265828   5.713   2.078  16.899 -0.7784  1.3087  0.8698
14805TIP3   OH265829   2.104   0.357  14.439 -0.3584 -0.1981  0.3968
14805TIP3    H165830   2.079   0.450  14.446  1.5616  0.1798  2.9982
14805TIP3    H265831   2.199   0.358  14.445 -0.3779 -2.4244  1.3251
14806TIP3   OH265832   4.745   1.070  13.639  0.8860  0.7583  0.0462
14806TIP3    H165833   4.760   0.976  13.647  0.2584  0.6791  0.3156
14806TIP3    H265834   4.821   1.111  13.680  1.5942  0.3746 -0.8639
14807TIP3   OH265835   6.211   2.821   5.956  0.4071  0.6201 -0.1961
14807TIP3    H165836   6.252   2.858   6.034 -1.0736  1.4349  0.2317
14807TIP3    H265837   6.235   2.881   5.886  1.3366  0.1554 -0.2844
14808TIP3   OH265838   3.096   1.453   0.714  0.1015  0.0858 -0.0396
14808TIP3    H165839   3.161   1.435   0.782 -0.6449 -2.2492  0.0976
14808TIP3    H265840   3.092   1.372   0.663 -1.3666  0.8479 -1.1605
14809TIP3   OH265841   6.220   2.388   3.347 -0.4439  0.4728 -0.2241
14809TIP3    H165842   6.216   2.483   3.357 -0.3901  0.4244  0.2720
14809TIP3    H265843   6.277   2.374   3.271  1.3462  0.7872  1.0163
14810TIP3   OH265844   1.530   0.742  13.194 -0.0610  0.3964  0.5295
14810TIP3    H165845   1.593   0.799  13.150 -1.2072  1.4932  0.2891
14810TIP3    H265846   1.580   0.701  13.265  1.4477 -0.3158 -0.8953
14811TIP3   OH265847   4.899   3.517   0.565 -0.7355 -0.1449  0.2298
14811TIP3    H165848   4.968   3.582   0.574 -1.5285  0.9254 -1.2424
14811TIP3    H265849   4.947   3.434   0.557  0.3859  0.5775 -0.7861
14812TIP3   OH265850   0.486   1.520  13.231  0.3007  0.3652 -0.1406
14812TIP3    H165851   0.452   1.585  13.292  0.1222 -0.8471  1.1041
14812TIP3    H265852   0.579   1.513  13.253  0.9388  2.1789 -2.1428
14813TIP3   OH265853   2.994   1.320   2.527  0.3608 -0.1420 -0.1190
14813TIP3    H165854   3.044   1.280   2.455  1.6914  0.8702  0.2211
14813TIP3    H265855   2.930   1.376   2.483  1.3482  0.6855 -0.5173
14814TIP3   OH265856   2.126   0.439  16.434 -0.4384  0.2275  0.5003
14814TIP3    H165857   2.196   0.404  16.489 -1.1824  0.1684  1.4143
14814TIP3    H265858   2.111   0.371  16.369  0.9099  0.5829 -0.2023
14815TIP3   OH265859   0.354   6.151  17.213 -0.5859 -0.2765  0.5596
14815TIP3    H165860   0.347   6.131  17.120  3.6443 -0.4573  0.1996
14815TIP3    H265861   0.308   6.235  17.223  1.2130  1.1267 -2.2338
14816TIP3   OH265862   0.964   0.228  12.250 -0.0529 -0.1840 -0.1527
14816TIP3    H165863   1.041   0.171  12.247 -0.0715 -0.1329 -1.9150
14816TIP3    H265864   0.976   0.289  12.178 -1.5400  0.1056 -0.1813
14817TIP3   OH265865   2.430   6.528   4.872 -0.5336 -0.3718 -0.2058
14817TIP3    H165866   2.475   6.520   4.956 -0.4910 -1.1802 -0.2961
14817TIP3    H265867   2.362   6.461   4.875  0.4252 -1.4298 -1.4019
14818TIP3   OH265868   5.320   5.038  14.229 -0.4380  0.0068 -0.0145
14818TIP3    H165869   5.370   5.117  14.206 -1.1890  0.4483 -0.1381
14818TIP3    H265870   5.349   4.972  14.165 -0.6772  0.5214 -0.6562
14819TIP3   OH265871   6.574   6.349   5.513  0.1353 -0.4429  0.5047
14819TIP3    H165872   6.650   6.334   5.457  0.0915  0.2406  0.2598
14819TIP3    H265873   6.548   6.261   5.543  0.1144 -0.8218 -0.6058
14820TIP3   OH265874   1.444   0.690  11.242  0.1578 -0.1718  0.2088
14820TIP3    H165875   1.467   0.662  11.154 -0.1324  1.8648 -0.5433
14820TIP3    H265876   1.518   0.743  11.271 -0.9706  1.5466  0.0434
14821TIP3   OH265877   5.538   0.573   5.723  0.2740  0.1497 -0.5679
14821TIP3    H165878   5.483   0.497   5.705 -1.0381  1.3261 -1.7025
14821TIP3    H265879   5.482   0.631   5.774  1.5331  0.0389  0.9963
14822TIP3   OH265880   6.411   2.253  13.621 -0.6370 -0.3760  0.1507
14822TIP3    H165881   6.460   2.196  13.681  2.1732  1.1309 -0.6186
14822TIP3    H265882   6.357   2.307  13.679 -0.9655 -1.6513  1.0641
14823TIP3   OH265883   0.926   2.716   3.058  1.3779  0.2463 -0.6558
14823TIP3    H165884   0.969   2.637   3.024 -1.0130 -1.7422  0.8132
14823TIP3    H265885   0.900   2.764   2.979  2.0225 -0.8861 -1.5845
14824TIP3   OH265886   5.324   4.356  14.010  0.3575 -0.0187  0.2412
14824TIP3    H165887   5.367   4.316  13.933 -1.1929 -0.1702 -0.5656
14824TIP3    H265888   5.248   4.300  14.026  0.3710  0.3352  1.5607
14825TIP3   OH265889   5.876   2.373   2.228  0.1591  0.2354  0.1250
14825TIP3    H165890   5.902   2.387   2.137 -0.4542  1.5815  0.1491
14825TIP3    H265891   5.959   2.359   2.275  0.4270 -1.1856 -0.7523
14826TIP3   OH265892   2.273   0.826  12.506  0.1539 -0.3994 -0.4719
14826TIP3    H165893   2.279   0.731  12.516  0.0012 -0.3241  0.3669
14826TIP3    H265894   2.227   0.855  12.584  1.5095  0.5178 -0.0016
14827TIP3   OH265895   3.250   4.111  10.670  0.1790 -0.2817  0.0258
14827TIP3    H165896   3.281   4.082  10.756  1.0053 -1.8934 -0.7967
14827TIP3    H265897   3.223   4.031  10.625  2.3054  0.1828 -2.2096
14828TIP3   OH265898   2.988   3.611   0.525  0.3389  0.4424 -0.0226
14828TIP3    H165899   2.976   3.683   0.587  0.6996  0.0509  0.5091
14828TIP3    H265900   2.915   3.552   0.542  0.9230 -0.1089  0.6668
14829TIP3   OH265901   1.540   2.152  12.629  0.2494 -0.0992 -0.3025
14829TIP3    H165902   1.446   2.169  12.627 -0.0199 -1.4966  0.0371
14829TIP3    H265903   1.572   2.206  12.702 -0.3408  0.1287 -0.2087
14830TIP3   OH265904   3.527   4.820   0.901  0.3365 -0.0971 -0.0167
14830TIP3    H165905   3.571   4.752   0.851 -1.8459 -1.0848 -0.6253
14830TIP3    H265906   3.589   4.843   0.971  2.4226 -0.3544 -1.7657
14831TIP3   OH265907   1.339   6.599  12.620  0.1565 -0.3768 -0.0985
14831TIP3    H165908   1.344   6.569  12.711 -1.2766  0.4535  0.2766
14831TIP3    H265909   1.261   6.555  12.586 -0.8695  1.3920 -0.1059
14832TIP3   OH265910   2.567   4.047   0.785 -0.1727 -1.0020  0.6865
14832TIP3    H165911   2.652   4.035   0.826 -0.4839  0.0029  1.6777
14832TIP3    H265912   2.574   4.004   0.700  1.0179 -1.7196  1.1405
14833TIP3   OH265913   1.669   6.384   4.703 -0.1130 -0.6142  0.9280
14833TIP3    H165914   1.710   6.371   4.788  0.4202 -1.7858  0.5122
14833TIP3    H265915   1.656   6.295   4.669  0.1064 -0.1506 -0.3947
14834TIP3   OH265916   4.926   0.744   0.886 -0.5208 -0.2614  0.2043
14834TIP3    H165917   4.894   0.792   0.810 -0.7202  1.5908  1.4119
14834TIP3    H265918   4.847   0.713   0.931 -0.3724 -2.6813 -1.1303
14835TIP3   OH265919   5.509   5.779   4.548  0.0647  0.0957 -0.3484
14835TIP3    H165920   5.444   5.739   4.605  0.6270 -2.0049 -1.1344
14835TIP3    H265921   5.593   5.742   4.578  0.4073 -0.6519 -2.2049
14836TIP3   OH265922   0.712   4.578   3.110  0.5115  0.6271  0.0093
14836TIP3    H165923   0.719   4.522   3.187  0.5868  1.2311  0.4417
14836TIP3    H265924   0.664   4.525   3.046  1.2852 -0.2430  0.1281
14837TIP3   OH265925   1.383   2.013  16.444 -0.3551  0.4390 -0.2288
14837TIP3    H165926   1.454   1.972  16.395 -1.4254 -0.6095 -0.9123
14837TIP3    H265927   1.313   1.948  16.444 -0.9091  1.0283  1.4093
14838TIP3   OH265928   6.163   4.220   2.578  0.6755 -0.4351  0.3288
14838TIP3    H165929   6.109   4.195   2.503  0.4340 -0.2060  0.4264
14838TIP3    H265930   6.234   4.272   2.541 -0.5823  1.4361  0.4906
14839TIP3   OH265931   0.975   1.687  12.357 -0.5461 -0.0073  0.1918
14839TIP3    H165932   1.024   1.617  12.401  0.3880  1.0427  0.8781
14839TIP3    H265933   0.975   1.759  12.420 -2.4164  0.2526 -0.0759
14840TIP3   OH265934   3.628   0.792  13.813 -0.4057 -0.1630  0.0236
14840TIP3    H165935   3.560   0.768  13.750 -0.6574  0.8607 -0.1021
14840TIP3    H265936   3.658   0.879  13.784  2.0050 -1.2345 -0.8126
14841TIP3   OH265937   0.850   4.278  12.203 -0.6356 -0.0870 -0.4030
14841TIP3    H165938   0.933   4.320  12.180 -0.3391 -0.2101  0.4288
14841TIP3    H265939   0.805   4.267  12.119  0.4212 -0.5232 -0.9238
14842TIP3   OH265940   5.014   2.600  12.975  0.4879 -0.1529 -0.2157
14842TIP3    H165941   5.010   2.601  12.879  1.6467  0.3742 -0.2682
14842TIP3    H265942   4.970   2.680  13.002  2.1218  0.8284 -0.4053
14843TIP3   OH265943   0.437   2.633   6.330 -0.1501 -0.4851 -0.2473
14843TIP3    H165944   0.378   2.709   6.329  1.5668  0.8770 -1.5744
14843TIP3    H265945   0.508   2.658   6.389 -0.5924 -1.9030  0.9201
14844TIP3   OH265946   0.197   6.401  15.055  0.7953  0.0790  0.3761
14844TIP3    H165947   0.222   6.493  15.053  0.7826  0.0538 -2.3924
14844TIP3    H265948   0.277   6.354  15.030  0.5019 -0.6006  0.6974
14845TIP3   OH265949   4.550   5.138   4.513 -0.5156 -0.1663  0.2672
14845TIP3    H165950   4.496   5.217   4.520 -1.3102 -0.7393  0.5807
14845TIP3    H265951   4.637   5.171   4.490 -0.8901  0.7893  0.2026
14846TIP3   OH265952   1.960   4.899  12.727 -0.1146 -0.0910  0.1558
14846TIP3    H165953   1.937   4.979  12.680 -1.2295 -1.2561 -1.3343
14846TIP3    H265954   2.054   4.905  12.741 -0.1214  1.2705 -0.3078
14847TIP3   OH265955   0.237   2.681  17.152 -0.0282 -0.0361  0.1254
14847TIP3    H165956   0.173   2.613  17.132  1.3128 -1.0487 -0.8673
14847TIP3    H265957   0.274   2.705  17.067  0.8652  0.5687  0.6684
14848TIP3   OH265958   3.741   1.460   1.423 -0.2727  0.0341  0.3845
14848TIP3    H165959   3.680   1.532   1.438  0.3610  0.4569  0.9196
14848TIP3    H265960   3.686   1.389   1.390 -1.1131  0.3170  1.1538
14849TIP3   OH265961   4.912   4.439  15.148 -0.3114  0.4492  0.4660
14849TIP3    H165962   4.868   4.374  15.204 -1.9244  1.0307 -0.1125
14849TIP3    H265963   4.888   4.414  15.059  1.1110  0.3685  0.0980
14850TIP3   OH265964   3.760   2.847  12.194  0.0030 -0.1016 -0.5579
14850TIP3    H165965   3.716   2.868  12.112  0.4407  0.0617 -0.7580
14850TIP3    H265966   3.853   2.857  12.174  0.3026 -3.2350 -0.9348
14851TIP3   OH265967   1.482   2.566  16.245 -0.0500  0.2184 -0.6681
14851TIP3    H165968   1.534   2.635  16.204  1.1258 -0.2409  0.0115
14851TIP3    H265969   1.496   2.579  16.339  0.5592 -1.2090 -0.5461
14852TIP3   OH265970   0.395   3.286   4.277 -0.1100 -0.3692  0.0984
14852TIP3    H165971   0.327   3.309   4.340 -0.2196 -0.4784  0.0215
14852TIP3    H265972   0.447   3.365   4.267  1.0078 -0.8889  1.7017
14853TIP3   OH265973   2.851   3.027   3.041  0.2862 -0.1915 -0.2924
14853TIP3    H165974   2.838   3.120   3.060 -0.2985  0.0375 -1.7127
14853TIP3    H265975   2.934   3.024   2.992 -0.2101 -0.2968 -1.1290
14854TIP3   OH265976   0.649   3.503  16.209 -0.4768 -0.8428 -0.0840
14854TIP3    H165977   0.565   3.535  16.241 -1.1590 -1.6855 -0.9755
14854TIP3    H265978   0.707   3.503  16.285 -1.2022  0.0219  0.4688
14855TIP3   OH265979   5.056   2.786  16.073 -0.1048  0.4910  0.5036
14855TIP3    H165980   5.126   2.784  16.138  0.5778  1.3960 -0.1948
14855TIP3    H265981   5.012   2.870  16.088 -0.0786  0.6091 -0.0684
14856TIP3   OH265982   3.944   3.182  15.102 -0.0342 -0.9683 -0.0164
14856TIP3    H165983   3.897   3.101  15.081  0.1866 -1.1422  0.1458
14856TIP3    H265984   3.934   3.237  15.025 -2.3054 -0.1456  0.8084
14857TIP3   OH265985   1.794   0.589  13.562  0.3342  0.3931  0.3999
14857TIP3    H165986   1.719   0.648  13.565  1.3532  1.6832  1.9233
14857TIP3    H265987   1.849   0.617  13.636  2.5345 -0.2030 -0.9637
14858TIP3   OH265988   3.724   4.107   2.037 -0.6588 -0.1574 -0.3524
14858TIP3    H165989   3.794   4.054   2.077 -1.9417 -0.9430  0.8773
14858TIP3    H265990   3.645   4.080   2.083 -1.7603  0.8190 -1.6699
14859TIP3   OH265991   1.643   1.197   0.426 -0.0818  0.0077 -0.4027
14859TIP3    H165992   1.615   1.288   0.436 -1.2196 -0.4488  0.7282
14859TIP3    H265993   1.636   1.180   0.332  0.6808  1.2474 -0.6968
14860TIP3   OH265994   4.429   5.090  13.426 -0.7045  0.3347  0.4075
14860TIP3    H165995   4.450   5.135  13.508  0.2588  2.1913 -0.8139
14860TIP3    H265996   4.333   5.087  13.424 -0.8617  3.7079 -0.1413
14861TIP3   OH265997   4.868   2.747  10.873  0.1887 -0.4259  0.2363
14861TIP3    H165998   4.805   2.786  10.812 -1.6209 -1.1890  1.5873
14861TIP3    H265999   4.937   2.813  10.881 -0.9950  0.9124 -0.3783
14862TIP3   OH266000   1.705   0.735   2.491  0.8358 -0.3459 -0.2486
14862TIP3    H166001   1.675   0.796   2.424 -0.6880 -0.9337 -0.1216
14862TIP3    H266002   1.664   0.652   2.468 -0.0897 -0.4598  1.6233
14863TIP3   OH266003   2.716   0.489  13.758 -0.2680 -0.2940 -0.0535
14863TIP3    H166004   2.711   0.408  13.707  0.4600  0.1940 -0.9216
14863TIP3    H266005   2.804   0.487  13.796  0.5895  1.1209 -1.8666
14864TIP3   OH266006   6.740   5.760   2.817 -0.3547  0.2547 -0.4405
14864TIP3    H166007   6.763   5.759   2.724  2.0163 -2.0351  0.1426
14864TIP3    H266008   6.687   5.681   2.830 -1.1239  0.8415  0.0812
14865TIP3   OH266009   1.781   3.566   5.786 -0.3726  0.2020  0.4279
14865TIP3    H166010   1.749   3.479   5.762 -2.5189  0.7605  1.2018
14865TIP3    H266011   1.738   3.625   5.725  2.1311  0.6248 -0.9816
14866TIP3   OH266012   2.545   3.244  13.105 -0.6509  0.3865 -0.0265
14866TIP3    H166013   2.503   3.179  13.049 -0.7675 -0.7699  1.3707
14866TIP3    H266014   2.616   3.279  13.051 -1.2121 -0.1647 -1.1565
14867TIP3   OH266015   1.451   0.400   2.290 -0.1439 -0.3212  0.3600
14867TIP3    H166016   1.450   0.483   2.337 -1.1234  0.2410 -0.6435
14867TIP3    H266017   1.365   0.394   2.249 -0.6172 -2.5153  1.6005
14868TIP3   OH266018   2.946   4.825   0.577 -0.4768 -0.5529 -0.0336
14868TIP3    H166019   3.016   4.816   0.512 -0.1363 -0.1590  0.2729
14868TIP3    H266020   2.979   4.890   0.638 -2.7322  2.6105 -2.0217
14869TIP3   OH266021   0.953   0.595  16.562 -0.1859  0.0268  0.7058
14869TIP3    H166022   0.991   0.535  16.497  1.5840  1.5902  0.2594
14869TIP3    H266023   0.864   0.610  16.532  0.3264  0.0047 -0.8729
14870TIP3   OH266024   5.286   5.333  16.916  0.5178 -0.0598 -0.3741
14870TIP3    H166025   5.225   5.268  16.950  0.0978  0.4326 -0.1882
14870TIP3    H266026   5.306   5.303  16.827 -0.5561  0.1697 -0.6955
14871TIP3   OH266027   5.723   2.649   4.948  0.4872 -0.1250  0.2385
14871TIP3    H166028   5.639   2.685   4.920  1.3837  1.7260 -0.1740
14871TIP3    H266029   5.760   2.715   5.006  1.8822 -0.6709  0.0053
14872TIP3   OH266030   5.863   3.560  12.662 -0.1452  0.8778  0.6827
14872TIP3    H166031   5.804   3.536  12.591  0.8968 -0.7906  0.3455
14872TIP3    H266032   5.895   3.476  12.695  2.0702  1.7504  0.8238
14873TIP3   OH266033   2.027   2.554   3.042 -0.0892  0.4302 -0.1118
14873TIP3    H166034   2.087   2.510   3.102 -1.7987  0.6520  1.7917
14873TIP3    H266035   1.947   2.502   3.045 -0.7116  1.3206 -1.0441
14874TIP3   OH266036   6.693   6.593   2.127  0.4412  0.2341 -0.1706
14874TIP3    H166037   6.732   6.570   2.211  0.4395  1.1967  0.1076
14874TIP3    H266038   6.742   6.543   2.063 -0.1362 -1.1912  0.4739
14875TIP3   OH266039   5.258   0.092   0.917  0.0628  0.0491  0.2471
14875TIP3    H166040   5.353   0.087   0.903 -0.2828 -1.2582 -1.8859
14875TIP3    H266041   5.247   0.083   1.012  2.0347 -0.5607  0.4386
14876TIP3   OH266042   0.782   6.510  12.560  0.4337  0.6990 -0.2421
14876TIP3    H166043   0.722   6.451  12.607 -1.0609  1.1624 -1.5131
14876TIP3    H266044   0.794   6.584  12.620 -0.3251  0.6209  0.0135
14877TIP3   OH266045   1.106   0.853   5.825 -0.0352  0.8268 -0.3020
14877TIP3    H166046   1.152   0.778   5.862  0.1379  0.7278 -0.7106
14877TIP3    H266047   1.020   0.851   5.867  0.3512  1.0407  0.4894
14878TIP3   OH266048   5.193   4.047  14.662  0.0072  0.0542  0.1490
14878TIP3    H166049   5.247   4.053  14.583 -1.7618 -0.6204 -1.1406
14878TIP3    H266050   5.218   3.963  14.701 -1.0657 -0.9186 -1.1923
14879TIP3   OH266051   4.892   5.722   5.490  0.3414 -0.1424 -0.0518
14879TIP3    H166052   4.924   5.765   5.411  1.7060 -1.6440 -0.3385
14879TIP3    H266053   4.917   5.630   5.480 -0.9747 -0.6817  1.3461
14880TIP3   OH266054   1.790   3.040   5.618 -0.0675  0.4565 -0.5331
14880TIP3    H166055   1.773   2.999   5.534  0.0675  2.4448 -1.5525
14880TIP3    H266056   1.711   3.024   5.670 -0.1709 -0.7159 -1.0527
14881TIP3   OH266057   4.427   2.121  10.834  0.0799 -0.0965  0.3982
14881TIP3    H166058   4.366   2.194  10.824 -0.5431 -0.2061  3.0535
14881TIP3    H266059   4.514   2.161  10.828 -0.2278  0.4461 -0.7103
14882TIP3   OH266060   5.366   3.999  16.715 -0.2529 -0.3838 -0.0315
14882TIP3    H166061   5.338   3.982  16.625  1.2337 -2.7361 -0.0954
14882TIP3    H266062   5.286   4.021  16.762 -1.5665 -2.6562 -1.1453
14883TIP3   OH266063   0.187   3.978  10.734 -0.0117  0.4077  0.2754
14883TIP3    H166064   0.250   3.962  10.804 -0.2800 -1.1284  0.1853
14883TIP3    H266065   0.217   3.923  10.661  0.0241  1.6589 -0.6738
14884TIP3   OH266066   3.574   3.060   3.480 -0.0356  0.0939 -0.8597
14884TIP3    H166067   3.533   3.010   3.410 -2.2182  0.2369  0.2482
14884TIP3    H266068   3.550   3.151   3.462  0.1810  0.2323 -0.4593
14885TIP3   OH266069   5.135   2.029  12.114  0.5033  0.1029 -0.2594
14885TIP3    H166070   5.111   1.963  12.178 -1.2358  0.8158 -0.1479
14885TIP3    H266071   5.053   2.050  12.069  1.4250  0.6735 -1.7014
14886TIP3   OH266072   5.102   3.097   1.863 -0.5904  0.2672 -0.0353
14886TIP3    H166073   5.186   3.121   1.902 -0.8211 -1.6513  1.7582
14886TIP3    H266074   5.051   3.178   1.860 -0.1199  0.6840  2.5868
14887TIP3   OH266075   6.512   3.652  11.826 -0.0574  0.5863 -0.0095
14887TIP3    H166076   6.607   3.646  11.817 -0.2518 -0.4140 -1.4056
14887TIP3    H266077   6.494   3.746  11.819  0.9280  0.9072  1.4395
14888TIP3   OH266078   3.230   0.386   3.365 -0.1507 -0.1427 -0.3454
14888TIP3    H166079   3.304   0.445   3.351 -0.7264  0.8841  0.7856
14888TIP3    H266080   3.246   0.350   3.453 -1.1000  0.2658 -0.0019
14889TIP3   OH266081   1.846   6.218   0.511  0.3696 -0.2441  0.5141
14889TIP3    H166082   1.898   6.299   0.513 -0.7146  0.4563  0.2971
14889TIP3    H266083   1.912   6.149   0.503  1.2748  0.6507  0.0413
14890TIP3   OH266084   0.763   0.074   1.573  0.3230  0.5188  0.9907
14890TIP3    H166085   0.733   0.159   1.606 -0.0677  0.2490  1.3338
14890TIP3    H266086   0.710   0.058   1.495  0.1086  0.3981  1.1611
14891TIP3   OH266087   6.281   0.757  17.014  0.5323  0.1904  0.2639
14891TIP3    H166088   6.291   0.663  17.002  1.0213  0.0773  1.5109
14891TIP3    H266089   6.332   0.797  16.943 -1.1329 -0.4860 -1.3460
14892TIP3   OH266090   0.317   2.467   4.477 -0.2690 -0.1834 -0.5302
14892TIP3    H166091   0.305   2.381   4.517 -0.5773 -0.5125 -1.3116
14892TIP3    H266092   0.411   2.482   4.482 -0.4968  0.5370  1.8271
14893TIP3   OH266093   4.957   5.742  15.988  0.1286  0.2104 -0.0430
14893TIP3    H166094   4.947   5.835  15.968  0.6591  0.4372  0.7105
14893TIP3    H266095   4.988   5.703  15.907 -0.2342  0.6687 -0.4026
14894TIP3   OH266096   4.339   2.660  11.602 -0.0647  0.1374 -0.0665
14894TIP3    H166097   4.353   2.736  11.659 -1.5123  1.1192 -0.9820
14894TIP3    H266098   4.410   2.599  11.625  0.8899  1.5960  0.9500
14895TIP3   OH266099   5.572   4.594   1.674 -0.0149  0.6573  0.0586
14895TIP3    H166100   5.624   4.566   1.749  2.4232  2.2303 -0.9910
14895TIP3    H266101   5.601   4.684   1.658 -0.1517  0.1755 -3.0743
14896TIP3   OH266102   0.516   1.765   3.491  0.1269 -0.2611  0.4632
14896TIP3    H166103   0.446   1.775   3.555 -1.2192 -2.1071 -0.6552
14896TIP3    H266104   0.591   1.733   3.541 -0.4555 -0.2369  1.3559
14897TIP3   OH266105   5.665   3.866   4.455 -0.4597  0.0616 -0.1579
14897TIP3    H166106   5.741   3.808   4.460 -0.3310  0.3753  1.9120
14897TIP3    H266107   5.693   3.936   4.395  0.9627  0.2678  0.7151
14898TIP3   OH266108   3.803   3.466   4.930  0.3169 -0.3393  0.1485
14898TIP3    H166109   3.816   3.455   5.024 -1.9943 -1.9757  0.3139
14898TIP3    H266110   3.776   3.557   4.919  1.4467  0.0987  0.9573
14899TIP3   OH266111   1.541   0.400  13.720  0.1105 -0.1830  0.2453
14899TIP3    H166112   1.619   0.351  13.745  0.4570  0.2688  0.0580
14899TIP3    H266113   1.574   0.484  13.689 -0.3093 -0.5988 -1.4288
14900TIP3   OH266114   0.818   0.813   5.100  0.3982  0.0412 -0.1197
14900TIP3    H166115   0.902   0.829   5.057 -0.5656  0.8347 -1.7419
14900TIP3    H266116   0.834   0.834   5.192  2.0490 -0.0994 -0.3592
14901TIP3   OH266117   1.715   0.435   4.633  0.2193  0.0843  0.5054
14901TIP3    H166118   1.789   0.490   4.607 -0.4602  1.5141  1.4964
14901TIP3    H266119   1.638   0.485   4.607 -0.4115 -0.3821  1.4349
14902TIP3   OH266120   6.193   1.196   1.690  0.9659 -0.3843 -0.4507
14902TIP3    H166121   6.248   1.191   1.768  0.5999  0.4960 -0.1387
14902TIP3    H266122   6.255   1.190   1.617  1.5913  1.6631 -0.1127
14903TIP3   OH266123   1.359   1.642  15.686  0.2697 -0.0445 -0.0961
14903TIP3    H166124   1.426   1.638  15.617  0.6919  0.4388  0.2750
14903TIP3    H266125   1.283   1.598  15.648  0.7972 -0.6124 -0.5255
14904TIP3   OH266126   6.146   6.591   4.118  0.3733  0.1666 -0.5029
14904TIP3    H166127   6.113   6.542   4.043 -0.6192  2.3107 -1.5430
14904TIP3    H266128   6.221   6.640   4.084  0.0515  0.9888 -0.0637
14905TIP3   OH266129   2.722   4.948   5.071  0.1708  0.3186 -0.2463
14905TIP3    H166130   2.746   4.937   4.979  1.4898 -0.2107  0.1600
14905TIP3    H266131   2.782   5.015   5.104  0.8983 -0.7779  0.6851
14906TIP3   OH266132   4.371   3.494  11.820  0.0135 -0.3148  0.5095
14906TIP3    H166133   4.333   3.537  11.897  1.1398  0.1015  0.8396
14906TIP3    H266134   4.340   3.546  11.746  0.2641  0.2624  0.8077
14907TIP3   OH266135   4.240   2.593   5.693  0.1889  0.2823 -0.2069
14907TIP3    H166136   4.252   2.688   5.698  0.1499  0.3747 -1.6088
14907TIP3    H266137   4.326   2.560   5.666 -0.0550  0.0146 -0.6591
14908TIP3   OH266138   2.031   6.760  15.378 -0.1514 -0.0143 -0.9591
14908TIP3    H166139   1.962   6.752  15.312 -0.1021 -2.7992 -0.7379
14908TIP3    H266140   2.106   6.795  15.331 -1.0055  0.8172 -1.7155
14909TIP3   OH266141   5.079   3.214   6.912 -1.4309 -0.6799 -0.1725
14909TIP3    H166142   5.034   3.291   6.875  1.2152  1.4933  0.9744
14909TIP3    H266143   5.071   3.147   6.844  2.0665  2.7486 -4.2522
14910TIP3   OH266144   0.048   5.165   1.817  0.0089  0.5340 -0.1735
14910TIP3    H166145   0.137   5.183   1.848 -0.0565 -0.2602  0.5020
14910TIP3    H266146   0.061   5.112   1.738  0.1244 -0.3396  0.4294
14911TIP3   OH266147   0.937   6.361  12.132  0.1018 -0.0922  0.6888
14911TIP3    H166148   1.003   6.293  12.124 -0.6495 -0.5446 -2.7847
14911TIP3    H266149   0.879   6.330  12.201  1.3848 -1.5603  1.1363
14912TIP3   OH266150   3.530   2.630   1.496  0.6183 -0.2622  0.6233
14912TIP3    H166151   3.534   2.582   1.579  2.2908 -0.4895  0.4298
14912TIP3    H266152   3.593   2.702   1.507 -0.7350  0.9973  0.3408
14913TIP3   OH266153   5.478   6.052  14.934  0.0681 -0.3512  0.4032
14913TIP3    H166154   5.503   6.144  14.941 -0.9415 -0.0473  0.0598
14913TIP3    H266155   5.431   6.034  15.015  0.6768 -0.6995  0.6830
14914TIP3   OH266156   0.415   6.172  14.907  0.8595 -0.3452  0.1685
14914TIP3    H166157   0.435   6.185  15.000  0.6169 -1.1468  0.3416
14914TIP3    H266158   0.337   6.116  14.907  0.6456 -0.0543 -0.5171
14915TIP3   OH266159   1.405   3.922   3.978 -0.0266 -0.2796 -0.1701
14915TIP3    H166160   1.400   3.881   3.892 -2.7442 -0.4909  0.0365
14915TIP3    H266161   1.351   4.000   3.971  0.7823  0.3994  0.9745
14916TIP3   OH266162   5.821   5.562  13.655 -0.4853 -0.2265  0.2669
14916TIP3    H166163   5.826   5.623  13.582  0.0675 -0.6503 -0.0520
14916TIP3    H266164   5.732   5.573  13.689 -0.1224  1.3645  0.7452
14917TIP3   OH266165   1.368   4.168   3.439  0.6499  0.2263  0.1541
14917TIP3    H166166   1.451   4.135   3.406 -0.2023 -0.5999 -1.2263
14917TIP3    H266167   1.317   4.186   3.360 -0.7977 -0.1100  0.9981
14918TIP3   OH266168   6.092   0.891   1.543 -0.2841 -0.2041 -0.6843
14918TIP3    H166169   6.052   0.820   1.493 -0.8323 -0.2471 -0.1913
14918TIP3    H266170   6.031   0.964   1.533 -0.4991 -0.2725  0.0800
14919TIP3   OH266171   6.665   4.459   1.145  0.5205 -0.0782  0.3719
14919TIP3    H166172   6.654   4.364   1.146 -0.5714  0.0382  0.1124
14919TIP3    H266173   6.583   4.492   1.108 -0.7451  1.1694  4.0962
14920TIP3   OH266174   1.678   5.528   2.147  0.1088 -0.1102 -0.3189
14920TIP3    H166175   1.669   5.501   2.238  2.2170  0.1897  0.0103
14920TIP3    H266176   1.707   5.620   2.152  1.1109 -0.3638 -1.2429
14921TIP3   OH266177   4.414   0.874  14.433 -0.1274  0.6569 -0.1177
14921TIP3    H166178   4.402   0.851  14.525  0.2874 -0.2630 -0.2934
14921TIP3    H266179   4.327   0.897  14.402 -0.4433 -0.1021  0.2153
14922TIP3   OH266180   3.015   1.681   5.428  0.1310  0.2769 -0.0691
14922TIP3    H166181   2.955   1.653   5.358 -1.2562  0.5522  0.9887
14922TIP3    H266182   3.024   1.604   5.484 -0.6324  0.7518  0.7270
14923TIP3   OH266183   6.043   6.077  16.111  0.2990 -0.1254 -0.1797
14923TIP3    H166184   6.083   6.154  16.152 -1.5779 -1.0697  3.6510
14923TIP3    H266185   5.955   6.106  16.085  0.3032 -0.4325 -0.5450
14924TIP3   OH266186   5.934   2.740  17.116  0.5195 -0.3917  0.2817
14924TIP3    H166187   5.848   2.782  17.110  0.8479  0.8009  3.1892
14924TIP3    H266188   5.989   2.788  17.054 -0.1732  0.8009  0.5857
14925TIP3   OH266189   0.962   3.963  11.128 -0.0104 -0.1533  1.0601
14925TIP3    H166190   0.940   3.935  11.217 -0.9457  1.0094  1.2139
14925TIP3    H266191   1.005   3.887  11.089  1.7212 -0.2282  2.9737
14926TIP3   OH266192   3.587   6.592  15.891 -0.5717 -0.8353 -0.3408
14926TIP3    H166193   3.612   6.552  15.807 -0.5387  1.3510 -1.3947
14926TIP3    H266194   3.516   6.652  15.869  1.3228  1.8923  0.7010
14927TIP3   OH266195   4.373   2.175  16.363  0.3490 -0.2961  0.4811
14927TIP3    H166196   4.375   2.262  16.404 -0.4923 -1.4434  3.0397
14927TIP3    H266197   4.426   2.121  16.422  1.4098 -1.3875 -1.4544
14928TIP3   OH266198   5.558   5.972   0.477  0.2075  0.2184  0.3501
14928TIP3    H166199   5.612   6.030   0.423  0.7949 -0.1717  0.5106
14928TIP3    H266200   5.621   5.915   0.520 -0.0314  2.1538  3.4227
14929TIP3   OH266201   4.814   5.740  14.744  0.0880 -0.1506  0.0092
14929TIP3    H166202   4.770   5.655  14.747 -1.3216  0.5522 -0.4353
14929TIP3    H266203   4.743   5.804  14.752  1.0333  1.0067 -0.7681
14930TIP3   OH266204   1.098   5.208   2.109 -0.2529 -0.7966 -0.0314
14930TIP3    H166205   1.051   5.216   2.026 -0.4528  0.7427  0.2103
14930TIP3    H266206   1.035   5.165   2.168 -0.2023 -1.6529 -0.5985
14931TIP3   OH266207   1.418   5.479  16.611 -0.0452 -0.5192  0.0898
14931TIP3    H166208   1.486   5.435  16.559 -1.0507 -2.4128  0.3114
14931TIP3    H266209   1.360   5.408  16.639  0.4282  0.4250  3.7794
14932TIP3   OH266210   5.253   1.421   6.416 -1.0262  0.0252 -0.2961
14932TIP3    H166211   5.266   1.506   6.374 -0.5472  0.7311  1.2419
14932TIP3    H266212   5.165   1.394   6.390 -0.9512  0.7077 -1.2843
14933TIP3   OH266213   3.211   2.384  15.834  0.1910  0.2703  0.8022
14933TIP3    H166214   3.303   2.361  15.820 -0.0260  0.1283 -0.4613
14933TIP3    H266215   3.163   2.302  15.817 -0.2553  0.6204  0.3454
14934TIP3   OH266216   2.215   5.080   5.271  0.1086  0.2514  0.0457
14934TIP3    H166217   2.162   5.080   5.351  0.5691  0.4086  0.3567
14934TIP3    H266218   2.296   5.125   5.296 -0.0055  0.8821 -0.6928
14935TIP3   OH266219   2.557   1.331  16.491 -0.2039  0.2265  0.6533
14935TIP3    H166220   2.632   1.304  16.438 -0.5495 -1.0469  0.7929
14935TIP3    H266221   2.501   1.253  16.495 -1.8758  1.3613 -0.0317
14936TIP3   OH266222   2.418   5.952   0.216  0.2598 -0.2400 -0.6645
14936TIP3    H166223   2.383   5.937   0.128  1.6676  1.0903 -1.4836
14936TIP3    H266224   2.341   5.969   0.270 -0.4583  1.4631 -2.1718
14937TIP3   OH266225   6.461   4.916   3.864  0.0974  0.3785  0.3691
14937TIP3    H166226   6.460   4.820   3.874 -0.1498  0.5259  1.8180
14937TIP3    H266227   6.479   4.929   3.771 -2.2879 -1.0923 -0.3530
14938TIP3   OH266228   1.213   3.358  15.188  0.3581  0.0441  0.6321
14938TIP3    H166229   1.263   3.348  15.106 -1.6250  3.1520 -1.0506
14938TIP3    H266230   1.278   3.386  15.252  1.6499 -0.8440 -0.2582
14939TIP3   OH266231   3.285   4.141  14.001 -0.5124  0.0118  0.0502
14939TIP3    H166232   3.359   4.197  13.977  1.1252 -1.5537  1.2896
14939TIP3    H266233   3.282   4.075  13.931 -1.3320  0.5971 -0.4790
14940TIP3   OH266234   2.852   1.512  12.978 -0.3658  0.0030  0.0487
14940TIP3    H166235   2.859   1.452  12.903 -2.8962  0.6810 -0.7964
14940TIP3    H266236   2.869   1.598  12.941 -0.9350  0.2615  0.3856
14941TIP3   OH266237   1.994   2.954   4.626 -0.2415  0.7339 -0.0102
14941TIP3    H166238   1.910   2.999   4.629 -0.4857  0.2692  0.2599
14941TIP3    H266239   1.972   2.861   4.636  0.2177  0.5102 -1.0277
14942TIP3   OH266240   5.617   0.995  10.754 -0.2204  0.1712  0.0500
14942TIP3    H166241   5.573   0.911  10.740  1.1853 -0.8596  1.5996
14942TIP3    H266242   5.587   1.024  10.840  0.8580  0.2439  0.4122
14943TIP3   OH266243   4.991   6.647  16.826 -0.4232 -0.1987 -0.0984
14943TIP3    H166244   5.072   6.662  16.777 -0.4120 -1.3662 -0.4522
14943TIP3    H266245   4.946   6.731  16.824  1.1766  0.7063  0.8538
14944TIP3   OH266246   5.730   0.145  11.678 -0.5776 -0.2703  0.3050
14944TIP3    H166247   5.712   0.152  11.585 -0.8204  1.2798  0.4605
14944TIP3    H266248   5.785   0.067  11.686  0.9004  0.5914 -1.3236
14945TIP3   OH266249   5.358   3.181   0.228  0.6293 -0.2551 -0.0453
14945TIP3    H166250   5.432   3.171   0.169 -0.3257 -1.2199 -1.1090
14945TIP3    H266251   5.365   3.108   0.289  1.7748  0.9017  1.2291
14946TIP3   OH266252   2.647   1.203   0.245 -0.1462  0.2402 -0.2849
14946TIP3    H166253   2.680   1.225   0.158 -1.7716  0.5914 -0.8295
14946TIP3    H266254   2.585   1.131   0.230 -0.1984  0.0855  0.6205
14947TIP3   OH266255   1.811   2.999  14.787 -0.3989 -0.4131 -0.3136
14947TIP3    H166256   1.723   2.975  14.756  0.1100 -1.3011 -1.0703
14947TIP3    H266257   1.845   2.919  14.827 -0.4556  0.3063  1.2195
14948TIP3   OH266258   0.380   3.436  17.178  0.1348  0.3517 -0.2296
14948TIP3    H166259   0.288   3.411  17.177 -0.4545  2.4109  1.0267
14948TIP3    H266260   0.385   3.510  17.118  0.4520  1.9682  1.7514
14949TIP3   OH266261   6.768   3.222  11.864  0.1931 -0.2252  0.0733
14949TIP3    H166262   6.712   3.187  11.933  0.7750 -1.4810 -0.0893
14949TIP3    H266263   6.824   3.149  11.838  1.3100  0.7666 -0.3756
14950TIP3   OH266264   3.916   3.253  16.477  0.8331 -0.4649  0.4828
14950TIP3    H166265   3.944   3.333  16.519  1.8158 -1.1186  1.0709
14950TIP3    H266266   3.827   3.238  16.510  1.2276 -0.4473  1.5529
14951TIP3   OH266267   5.178   5.730  14.286 -0.2197 -0.0388 -0.1314
14951TIP3    H166268   5.245   5.687  14.339  1.6702  2.7309 -0.2228
14951TIP3    H266269   5.127   5.782  14.349 -0.1433  0.5467 -0.5518
14952TIP3   OH266270   3.944   1.400  14.810 -0.6048 -0.7609  0.2596
14952TIP3    H166271   3.926   1.312  14.775 -1.0720 -0.5854  0.0543
14952TIP3    H266272   3.967   1.452  14.734  0.1945 -0.8310  0.4478
14953TIP3   OH266273   2.106   6.003  12.329  1.1196  0.7824 -0.2358
14953TIP3    H166274   2.116   6.008  12.233  0.6953 -0.3541 -0.3434
14953TIP3    H266275   2.131   5.913  12.351 -0.8707  0.3920  0.4716
14954TIP3   OH266276   0.885   5.534  11.654 -0.0732  0.1570 -0.0371
14954TIP3    H166277   0.835   5.567  11.729 -1.0755 -0.4416 -0.4362
14954TIP3    H266278   0.950   5.602  11.637  0.4416  0.1046  1.6477
14955TIP3   OH266279   1.712   3.926   4.450  0.1623  0.1946  0.4806
14955TIP3    H166280   1.684   3.836   4.438 -1.1302  0.4653  1.2940
14955TIP3    H266281   1.714   3.963   4.361 -1.0080 -0.1570  0.2981
14956TIP3   OH266282   3.792   2.364   2.028  0.4078 -0.3719 -0.0500
14956TIP3    H166283   3.850   2.410   2.090  0.0118  0.3063 -0.1741
14956TIP3    H266284   3.709   2.355   2.075 -0.3928  1.5707 -1.0423
14957TIP3   OH266285   1.008   4.220  15.795 -0.1206  0.1119 -0.5323
14957TIP3    H166286   1.061   4.140  15.797  0.5770  0.5824  0.2316
14957TIP3    H266287   0.918   4.190  15.804  0.1629 -0.5636  0.0861
14958TIP3   OH266288   6.256   0.954  11.682  0.1250  0.5914  0.1692
14958TIP3    H166289   6.349   0.965  11.705  0.1262 -1.2224  1.0933
14958TIP3    H266290   6.234   1.035  11.635  2.7048  0.1602 -1.9095
14959TIP3   OH266291   2.270   5.384   3.768  0.4155  0.1440 -0.2369
14959TIP3    H166292   2.221   5.446   3.714 -0.6722 -0.4112  0.0968
14959TIP3    H266293   2.234   5.394   3.856 -0.1695 -1.3326 -0.2839
14960TIP3   OH266294   3.326   4.763  16.793  0.1952 -0.3474  0.4418
14960TIP3    H166295   3.374   4.720  16.864 -0.2742  0.9575  1.5668
14960TIP3    H266296   3.265   4.822  16.837  0.5783  1.2026 -1.0574
14961TIP3   OH266297   0.601   3.198  13.853 -0.2284 -0.4412  0.6174
14961TIP3    H166298   0.649   3.133  13.802 -0.5973 -1.2312  1.2757
14961TIP3    H266299   0.669   3.252  13.893  0.0712 -0.0080 -0.4461
14962TIP3   OH266300   0.634   5.383  17.073 -0.1900  0.2585 -0.0894
14962TIP3    H166301   0.569   5.313  17.073 -0.5316  0.4874  3.4181
14962TIP3    H266302   0.717   5.338  17.085 -0.5779  0.4831  3.9927
14963TIP3   OH266303   1.710   5.193   0.269 -0.7104  0.5162  0.5268
14963TIP3    H166304   1.726   5.224   0.180 -1.9345 -1.1807 -0.3077
14963TIP3    H266305   1.770   5.244   0.323  0.0508  1.5664 -1.2656
14964TIP3   OH266306   4.234   0.023   5.115 -0.7785  0.0005 -0.3149
14964TIP3    H166307   4.271   0.094   5.062 -2.0340  0.0770 -1.1091
14964TIP3    H266308   4.300  -0.046   5.113  0.4396  1.1257  0.4417
14965TIP3   OH266309   0.652   4.821   5.576 -0.3128 -0.3141 -0.3519
14965TIP3    H166310   0.643   4.911   5.544  2.6340 -0.8192 -2.8003
14965TIP3    H266311   0.746   4.805   5.577 -0.7223 -2.9067  1.4845
14966TIP3   OH266312   4.914   5.639  13.066  0.1387  0.4139 -0.1479
14966TIP3    H166313   4.844   5.701  13.047 -0.4383  0.2460  1.3340
14966TIP3    H266314   4.973   5.688  13.124  2.3032  1.2201 -2.9236
14967TIP3   OH266315   0.557   4.105  14.396  0.0842 -0.3611  0.2607
14967TIP3    H166316   0.550   4.110  14.491 -2.1355  1.5881  0.0418
14967TIP3    H266317   0.538   4.194  14.366  4.9295  0.1535 -1.8218
14968TIP3   OH266318   4.810   6.739  17.176  0.3169 -0.4674 -0.7573
14968TIP3    H166319   4.839   6.652  17.148  0.9589 -0.3087 -0.5961
14968TIP3    H266320   4.749   6.722  17.248 -0.1003 -0.8095 -1.1864
14969TIP3   OH266321   0.226   3.090   4.920  0.1708 -0.7635  0.0906
14969TIP3    H166322   0.210   3.182   4.943 -0.3091 -1.1878  1.5232
14969TIP3    H266323   0.251   3.093   4.828  0.0891  0.8012  0.0918
14970TIP3   OH266324   3.272   4.340   4.798 -0.6317  0.2595 -0.1517
14970TIP3    H166325   3.349   4.395   4.810 -0.6313 -0.1585  1.8455
14970TIP3    H266326   3.300   4.271   4.737  0.3047  0.6271 -0.1312
14971TIP3   OH266327   5.118   2.932  15.743  0.6417 -1.0921  0.3062
14971TIP3    H166328   5.040   2.878  15.727  0.9559 -1.8030  1.1306
14971TIP3    H266329   5.087   3.001  15.802  0.5997 -1.2988  0.5287
14972TIP3   OH266330   5.403   5.293   2.825  0.6494  0.4186 -0.2269
14972TIP3    H166331   5.380   5.361   2.761  0.7197 -0.3012 -1.0263
14972TIP3    H266332   5.435   5.220   2.772 -0.6151 -0.7225  0.5484
14973TIP3   OH266333   1.328   3.172  17.031 -0.2429 -0.1586  0.4571
14973TIP3    H166334   1.391   3.239  17.004 -1.0776 -0.0207 -1.2405
14973TIP3    H266335   1.310   3.123  16.951 -0.4315 -1.7636  1.4595
14974TIP3   OH266336   2.176   0.162   4.106  0.0031  0.7785  0.1711
14974TIP3    H166337   2.204   0.252   4.092  0.4436  0.6806  0.4040
14974TIP3    H266338   2.250   0.121   4.152 -0.6141  0.5739  0.9819
14975TIP3   OH266339   5.705   5.000   5.820  0.0734  0.6000  0.3106
14975TIP3    H166340   5.631   5.025   5.875 -0.4541  0.0079 -0.1269
14975TIP3    H266341   5.718   5.075   5.763  0.7297  1.2832  1.3531
14976TIP3   OH266342   6.053   0.084  12.023 -0.3755 -0.7795 -0.2006
14976TIP3    H166343   6.101   0.132  11.955  0.6535 -1.1087  0.2822
14976TIP3    H266344   6.121   0.059  12.086 -0.9326 -2.7494 -0.3723
14977TIP3   OH266345   5.264   5.788   2.227  0.7005 -0.1394 -0.1254
14977TIP3    H166346   5.341   5.735   2.245  0.3616 -0.3534  0.6895
14977TIP3    H266347   5.275   5.866   2.282  1.6757  1.1138 -2.0144
14978TIP3   OH266348   0.282   1.270   3.238  0.5610  0.1630 -0.3731
14978TIP3    H166349   0.229   1.350   3.245  0.2415 -0.0476 -0.3983
14978TIP3    H266350   0.265   1.237   3.150  1.5403  0.6613 -0.7629
14979TIP3   OH266351   3.077   3.455   5.881 -0.0458  0.4039 -0.2983
14979TIP3    H166352   3.144   3.523   5.875  1.4904 -1.1860 -1.6420
14979TIP3    H266353   3.079   3.427   5.972  0.3065  1.1371 -0.0723
14980TIP3   OH266354   1.088   2.609  16.995 -0.2473  0.0577 -0.5931
14980TIP3    H166355   1.017   2.568  16.945 -4.0426  3.1213  1.8830
14980TIP3    H266356   1.081   2.569  17.082  1.8138 -0.3567 -0.6085
14981TIP3   OH266357   1.716   4.091  15.348 -0.3240 -0.3385 -0.1437
14981TIP3    H166358   1.679   4.175  15.320 -0.6506 -0.4839 -0.1565
14981TIP3    H266359   1.640   4.035  15.359 -0.1137 -0.5919  0.0022
14982TIP3   OH266360   3.661   4.805   2.266  0.3213 -0.5353 -0.2364
14982TIP3    H166361   3.626   4.874   2.321  0.1445 -0.4104 -0.5066
14982TIP3    H266362   3.750   4.834   2.245  0.6682 -0.9637  0.6365
14983TIP3   OH266363   5.096   2.328  16.005  0.4252  0.1263 -0.1865
14983TIP3    H166364   5.191   2.334  16.014  0.1346  0.1177  4.0175
14983TIP3    H266365   5.071   2.411  15.963  2.2611  0.0918 -1.4038
14984TIP3   OH266366   0.517   2.304  12.147  0.0304  0.4823  0.1578
14984TIP3    H166367   0.497   2.276  12.236  1.5655  1.3742  0.8107
14984TIP3    H266368   0.473   2.389  12.138 -2.9124 -1.1186 -1.1120
14985TIP3   OH266369   4.526   1.946  15.404 -0.3088  0.2612  0.1364
14985TIP3    H166370   4.612   1.921  15.371 -0.0090  0.2628  0.8936
14985TIP3    H266371   4.545   2.000  15.481 -0.9905 -0.3123  0.7129
14986TIP3   OH266372   3.292   1.883   0.014  0.2703 -0.0218 -0.7410
14986TIP3    H166373   3.219   1.841  -0.031 -0.8645  1.4471 -0.3027
14986TIP3    H266374   3.333   1.939  -0.053 -0.9437  1.5638 -0.1967
14987TIP3   OH266375   0.222   4.662  15.752  0.0270  0.3042  0.4860
14987TIP3    H166376   0.311   4.653  15.785 -0.4892  0.3339  1.9168
14987TIP3    H266377   0.221   4.748  15.710  1.5526 -1.0237 -2.4267
14988TIP3   OH266378   2.829   5.754   0.119  0.2174  0.1052 -0.1642
14988TIP3    H166379   2.884   5.776   0.044  0.1087 -1.3270 -0.6715
14988TIP3    H266380   2.848   5.662   0.136 -1.8640 -0.3374 -0.2028
14989TIP3   OH266381   4.012   1.517   4.610  0.1055 -0.0064  0.0209
14989TIP3    H166382   3.932   1.497   4.660 -0.0067  0.2579 -0.0573
14989TIP3    H266383   4.032   1.435   4.565  0.2228 -0.2571  0.5203
14990TIP3   OH266384   1.331   5.434   1.566  0.7491  0.8649  0.2131
14990TIP3    H166385   1.316   5.409   1.475  1.1926  1.9956 -0.1775
14990TIP3    H266386   1.426   5.443   1.574  0.6749  1.2986  0.6403
14991TIP3   OH266387   1.650   5.322   0.006 -0.2945  0.1238  0.0980
14991TIP3    H166388   1.612   5.266  -0.062 -1.3004  1.4747 -0.4773
14991TIP3    H266389   1.579   5.335   0.069 -0.3253  1.4209 -0.1936
14992TIP3   OH266390   2.661   4.620  13.401 -0.1135 -0.1231  0.1683
14992TIP3    H166391   2.602   4.555  13.439 -0.0092 -2.0212 -2.8320
14992TIP3    H266392   2.719   4.645  13.474 -1.2771 -2.0750  1.8073
14993TIP3   OH266393   0.667   0.462  11.614  0.6599 -0.5295 -0.2884
14993TIP3    H166394   0.753   0.500  11.630 -0.3017  1.5407  0.1800
14993TIP3    H266395   0.685   0.376  11.577  2.9230  0.0497 -0.6098
14994TIP3   OH266396   3.858   0.494  15.294 -0.8646 -0.2364 -0.3785
14994TIP3    H166397   3.891   0.404  15.285 -0.6265 -0.3245  1.2238
14994TIP3    H266398   3.935   0.546  15.313 -1.2501 -0.0070  0.6179
14995TIP3   OH266399   0.597   3.704  12.654  0.8111  0.7482 -0.0053
14995TIP3    H166400   0.635   3.743  12.575  2.4695 -3.4190 -1.4028
14995TIP3    H266401   0.670   3.699  12.716  0.2252  1.3557  0.7339
14996TIP3   OH266402   3.111   3.006   5.116  0.0924  0.0884  0.5907
14996TIP3    H166403   3.148   3.074   5.172 -0.2179 -0.5594  1.5834
14996TIP3    H266404   3.027   2.985   5.156  0.0739 -0.7028  0.1370
14997TIP3   OH266405   1.852   4.491   0.762  0.6580 -0.1883  0.3763
14997TIP3    H166406   1.893   4.422   0.814 -0.1801 -0.8593  0.1578
14997TIP3    H266407   1.910   4.501   0.686 -0.4939 -2.4258 -0.8774
14998TIP3   OH266408   2.489   1.355  14.343 -0.4754 -0.1315  0.3525
14998TIP3    H166409   2.544   1.365  14.266 -0.6043  0.6057  0.3524
14998TIP3    H266410   2.535   1.291  14.398  0.6284  0.8492  0.5717
14999TIP3   OH266411   2.140   5.568   3.621 -0.4095  0.1489 -0.1178
14999TIP3    H166412   2.089   5.616   3.686  0.4964 -0.9391  1.4100
14999TIP3    H266413   2.202   5.633   3.587 -1.3552  0.9061 -0.4392
15000TIP3   OH266414   3.494   4.514  15.252 -0.1870 -0.4420  0.0764
15000TIP3    H166415   3.549   4.592  15.262 -0.0864 -0.5125  0.0716
15000TIP3    H266416   3.406   4.549  15.239 -0.9489 -0.3542  4.6703
15001TIP3   OH266417   1.989   3.440  15.725 -0.4741  0.2050  0.0832
15001TIP3    H166418   1.928   3.513  15.712  2.3501  2.0316 -4.4477
15001TIP3    H266419   2.050   3.471  15.792 -0.1750  1.4418 -0.7394
15002TIP3   OH266420   6.485   6.235   5.036 -0.1349  0.1278  0.2695
15002TIP3    H166421   6.407   6.278   5.069 -1.0535 -0.9939 -0.3968
15002TIP3    H266422   6.455   6.148   5.009  1.8131 -1.2654  2.3454
15003TIP3   OH266423   6.286   6.307  11.082  0.3657 -0.1869  0.1158
15003TIP3    H166424   6.332   6.382  11.121 -2.1834  0.3807  2.2244
15003TIP3    H266425   6.330   6.230  11.118  0.9043  0.3276  0.5657
15004TIP3   OH266426   3.495   6.497  12.107  0.1225  0.1389 -0.4773
15004TIP3    H166427   3.539   6.571  12.148 -0.5921  0.0670  0.4470
15004TIP3    H266428   3.444   6.457  12.179  1.2798 -1.8208 -0.7085
15005TIP3   OH266429   1.496   2.699   4.429 -0.3816  0.3293  0.2309
15005TIP3    H166430   1.557   2.712   4.356  0.5664  1.1035  1.1408
15005TIP3    H266431   1.492   2.785   4.472  0.5569 -0.5947  2.2173
15006TIP3   OH266432   5.927   3.186   1.899  0.1646 -0.5263 -0.0684
15006TIP3    H166433   5.861   3.120   1.880 -2.3291  1.6651  0.7403
15006TIP3    H266434   5.957   3.164   1.987 -1.4871  0.0626  0.6621
15007TIP3   OH266435   3.523   4.106  16.435  0.0909  0.1430  0.1258
15007TIP3    H166436   3.563   4.044  16.374  0.7566  1.0732 -0.3990
15007TIP3    H266437   3.473   4.051  16.496  2.1380 -1.0160  0.7914
15008TIP3   OH266438   4.104   5.168  12.382  0.0247 -0.1211  0.3166
15008TIP3    H166439   4.102   5.108  12.457  1.2552  0.8733  1.1690
15008TIP3    H266440   4.126   5.113  12.307  0.5900 -0.8338  0.9988
15009TIP3   OH266441   6.245   1.230  13.595  0.2349  0.5965  0.3866
15009TIP3    H166442   6.309   1.204  13.661  0.2392 -0.3839  0.0050
15009TIP3    H266443   6.284   1.202  13.512 -0.5324  0.2944  0.1252
15010TIP3   OH266444   1.574   6.450   1.840 -0.5981 -0.3286  0.2211
15010TIP3    H166445   1.520   6.501   1.900 -1.8683  0.7585 -1.7628
15010TIP3    H266446   1.530   6.365   1.835 -0.3764 -0.4909  0.9622
15011TIP3   OH266447   4.723   0.065  16.693  0.0567 -0.8282  0.1496
15011TIP3    H166448   4.709   0.032  16.781  0.9103  0.6377  0.8563
15011TIP3    H266449   4.741   0.158  16.704  0.0674 -0.5990 -1.5781
15012TIP3   OH266450   6.204   6.354  13.578 -0.5123 -0.3627  0.0828
15012TIP3    H166451   6.204   6.427  13.640 -2.2719  0.2781 -0.6571
15012TIP3    H266452   6.170   6.280  13.629 -2.4626  0.2903 -0.2618
15013TIP3   OH266453   0.139   1.459   0.883  0.3391  0.0107  0.3449
15013TIP3    H166454   0.093   1.381   0.853  0.5098 -0.0893  0.3416
15013TIP3    H266455   0.229   1.447   0.853 -0.1970  1.4315 -1.8912
15014TIP3   OH266456   3.905   4.494  16.892 -0.1071 -0.2879 -0.4125
15014TIP3    H166457   3.967   4.470  16.822 -0.1634  0.5445 -0.7544
15014TIP3    H266458   3.819   4.475  16.855 -0.1185 -0.1889 -0.4367
15015TIP3   OH266459   1.703   2.917  13.959  0.5240  0.2061  0.3737
15015TIP3    H166460   1.695   2.975  14.035 -0.0905  0.6836 -0.0469
15015TIP3    H266461   1.752   2.968  13.895  0.4831  0.0424  0.2109
15016TIP3   OH266462   3.230   1.543  17.081  0.1699  0.7125  0.1271
15016TIP3    H166463   3.242   1.529  17.175  0.7849  1.1439  0.1062
15016TIP3    H266464   3.185   1.627  17.075  1.4899  1.4091 -0.0392
15017TIP3   OH266465   5.800   4.129  14.233  0.8308 -0.5165  0.0165
15017TIP3    H166466   5.887   4.148  14.268  1.3279  0.3054 -1.5722
15017TIP3    H266467   5.791   4.191  14.159 -0.9229 -0.8765 -0.0833
15018TIP3   OH266468   4.326   6.423  13.782  0.5366  0.1897 -0.4388
15018TIP3    H166469   4.232   6.423  13.763  0.0457  3.3112  1.6942
15018TIP3    H266470   4.339   6.346  13.836 -1.1034  0.5741  0.5446
15019TIP3   OH266471   5.642   5.711  10.251  0.4130  0.2796  0.1349
15019TIP3    H166472   5.716   5.651  10.246 -0.6930 -1.0194 -1.2528
15019TIP3    H266473   5.654   5.770  10.177  0.5644  0.6610  0.4631
15020TIP3   OH266474   3.928   3.191   6.253  0.0907  0.6052 -0.3554
15020TIP3    H166475   3.838   3.225   6.257 -0.9752 -1.9560 -1.5701
15020TIP3    H266476   3.924   3.121   6.188  3.0485  0.6304 -0.6076
15021TIP3   OH266477   4.021   4.869   3.992 -0.1891 -0.4138  0.1564
15021TIP3    H166478   4.028   4.936   4.060  0.2280  0.4536 -0.7276
15021TIP3    H266479   3.933   4.833   4.002  0.1544 -0.8642  1.6736
15022TIP3   OH266480   4.198   6.042  14.577  0.1307 -0.1495  0.1613
15022TIP3    H166481   4.279   6.005  14.541  0.5697  0.5904  0.3844
15022TIP3    H266482   4.204   6.136  14.557 -0.0657  0.1175  1.3227
15023TIP3   OH266483   2.482   6.703   2.363 -0.5712 -0.3400  0.1011
15023TIP3    H166484   2.491   6.794   2.392 -1.2509 -0.6221  1.2539
15023TIP3    H266485   2.525   6.700   2.278 -0.2581  0.9870  0.2032
15024TIP3   OH266486   0.830   6.402  17.050  0.1010  0.2063  0.5346
15024TIP3    H166487   0.792   6.361  17.128  1.9594 -0.5667  1.0479
15024TIP3    H266488   0.853   6.491  17.079 -0.6898  0.4605  0.4028
15025TIP3   OH266489   6.651   1.536   3.722  0.6002 -0.1244  0.2844
15025TIP3    H166490   6.705   1.484   3.781 -0.4521  0.1798  1.5324
15025TIP3    H266491   6.694   1.527   3.637  0.4470 -3.0241  0.4754
15026TIP3   OH266492   1.477   6.162  16.538 -0.1385  0.1100  0.0528
15026TIP3    H166493   1.548   6.160  16.474  1.1117  1.6953  1.3219
15026TIP3    H266494   1.462   6.255  16.555 -2.0374 -0.2302  0.3510
15027TIP3   OH266495   2.306   0.788   2.651  0.0929 -0.4806  0.2859
15027TIP3    H166496   2.321   0.706   2.603  1.6033  0.0840 -0.2505
15027TIP3    H266497   2.289   0.760   2.741 -0.2490 -1.4261 -0.0637
15028TIP3   OH266498   1.767   1.657  12.838 -0.3263  0.0736 -0.1974
15028TIP3    H166499   1.679   1.692  12.822  1.0674  3.4052 -0.8511
15028TIP3    H266500   1.757   1.606  12.919 -2.7060  1.0776  0.1996
15029TIP3   OH266501   0.676   3.542   5.299 -0.2828  0.1433 -0.1633
15029TIP3    H166502   0.690   3.635   5.321  0.9710 -0.0478 -0.1016
15029TIP3    H266503   0.667   3.541   5.204  0.0434  0.2842 -0.1952
15030TIP3   OH266504   1.445   4.967   6.605  0.5993 -0.1540  0.2014
15030TIP3    H166505   1.461   4.889   6.553  0.9388 -0.6584  1.0537
15030TIP3    H266506   1.400   5.027   6.546 -1.9117 -1.9215  0.2460
15031TIP3   OH266507   0.991   5.773  12.354 -0.4869 -0.5772  0.2615
15031TIP3    H166508   1.044   5.759  12.276  0.4754  2.0066  0.3957
15031TIP3    H266509   1.035   5.721  12.422  1.2944  0.6598  0.1047
15032TIP3   OH266510   0.308   3.860  16.317  0.3412  0.1527 -0.4667
15032TIP3    H166511   0.246   3.810  16.370  1.1834 -1.8283 -1.2838
15032TIP3    H266512   0.256   3.893  16.244 -0.3573  1.0336  0.4097
15033TIP3   OH266513   2.206   2.276   4.786  0.1769 -0.6560  0.6657
15033TIP3    H166514   2.155   2.215   4.734 -0.8452 -1.0728  2.1264
15033TIP3    H266515   2.168   2.362   4.767  1.1707 -0.5432 -0.8621
15034TIP3   OH266516   3.511   4.954   5.415  0.3492 -0.5502  0.8789
15034TIP3    H166517   3.522   4.860   5.402 -1.1350 -0.8119  1.3433
15034TIP3    H266518   3.506   4.990   5.327 -0.8593 -1.1582  0.6795
15035TIP3   OH266519   4.739   5.844   3.221 -0.2042 -0.1108 -0.6359
15035TIP3    H166520   4.706   5.772   3.275 -1.5047 -0.8080 -2.3346
15035TIP3    H266521   4.668   5.908   3.221  0.7567  0.9979  0.4671
15036TIP3   OH266522   5.937   3.038   1.263  0.0931  0.4552 -0.0021
15036TIP3    H166523   5.970   3.075   1.180  1.4911 -1.2080 -0.2110
15036TIP3    H266524   5.924   3.115   1.319 -2.9819  1.8389 -2.4548
15037TIP3   OH266525   4.496   3.546   3.000  0.7710 -0.3188 -0.4420
15037TIP3    H166526   4.553   3.469   3.004  1.3968  0.0481 -2.0424
15037TIP3    H266527   4.429   3.529   3.066  2.3972 -1.0212  1.0879
15038TIP3   OH266528   0.713   4.490  11.838 -0.4321 -0.0267 -0.0853
15038TIP3    H166529   0.620   4.504  11.859 -0.4926  0.7743 -0.8695
15038TIP3    H266530   0.718   4.398  11.815 -0.9874 -0.1425  0.2362
15039TIP3   OH266531   0.901   1.636   0.043  0.1390 -0.3336 -0.2873
15039TIP3    H166532   0.960   1.687   0.099 -0.2301  0.6831 -0.8051
15039TIP3    H266533   0.819   1.630   0.092  0.3819 -0.9536  0.0381
15040TIP3   OH266534   5.705   1.239  13.062  0.0620  0.3774  0.0302
15040TIP3    H166535   5.760   1.162  13.073 -0.0386  0.4285  0.9356
15040TIP3    H266536   5.617   1.205  13.050 -0.2074  0.3823  1.8965
15041TIP3   OH266537   4.172   6.183   1.144  0.2215 -0.3616  0.1761
15041TIP3    H166538   4.112   6.257   1.151  0.4926 -0.0680 -0.6001
15041TIP3    H266539   4.223   6.186   1.226  0.6706  0.6974 -0.1383
15042TIP3   OH266540   5.952   1.032   3.942  0.0497  0.2999  0.0972
15042TIP3    H166541   5.969   0.938   3.949  2.9961  0.7366 -0.2759
15042TIP3    H266542   5.966   1.051   3.849 -2.7332  0.7474 -0.2550
15043TIP3   OH266543   2.926   3.445  16.001  0.2893 -0.1871  0.1634
15043TIP3    H166544   2.904   3.515  15.940  0.6674 -1.1985 -1.1615
15043TIP3    H266545   2.861   3.377  15.984  0.6598 -0.6538  0.5781
15044TIP3   OH266546   0.829   4.775  16.609 -0.0610  0.0623  0.2477
15044TIP3    H166547   0.763   4.838  16.581  0.3088  0.3064 -0.0949
15044TIP3    H266548   0.889   4.770  16.534 -0.5678 -1.3465 -0.0670
15045TIP3   OH266549   1.704   6.054  11.600  0.2428 -0.0936 -0.4051
15045TIP3    H166550   1.694   6.090  11.688  0.3614  0.0043 -0.4330
15045TIP3    H266551   1.679   6.125  11.541  0.4816 -0.0562 -0.4605
15046TIP3   OH266552   6.192   4.689  14.562 -0.7928 -0.1971 -0.1627
15046TIP3    H166553   6.193   4.759  14.497 -1.1182 -0.8392 -0.8683
15046TIP3    H266554   6.121   4.714  14.622 -1.8013 -0.5820 -1.1636
15047TIP3   OH266555   6.721   0.105  15.970  0.1258 -0.0709 -0.3958
15047TIP3    H166556   6.700   0.189  15.929 -0.2448 -0.5044 -1.0829
15047TIP3    H266557   6.787   0.066  15.913  0.9403  0.1380  0.3884
15048TIP3   OH266558   4.136   0.858  11.939 -0.2897 -0.3661 -0.2955
15048TIP3    H166559   4.084   0.834  12.015 -0.7645  0.4447 -0.3535
15048TIP3    H266560   4.073   0.861  11.866 -0.1770  0.5854 -0.3698
15049TIP3   OH266561   4.064   2.904  15.778  0.6654 -0.4833  0.8310
15049TIP3    H166562   4.019   2.862  15.705  0.8813 -0.8702  0.9177
15049TIP3    H266563   4.017   2.986  15.791 -0.0439 -0.9039  0.9555
15050TIP3   OH266564   3.099   0.495   0.995 -0.1783  0.0592  0.3934
15050TIP3    H166565   3.095   0.590   0.984  0.1498  0.3370  2.4368
15050TIP3    H266566   3.014   0.472   1.033 -0.9010 -0.7142 -1.6137
15051TIP3   OH266567   6.654   4.002   6.004 -0.1365 -0.5968 -0.3304
15051TIP3    H166568   6.575   4.055   6.003 -0.5348 -1.1890 -0.7473
15051TIP3    H266569   6.701   4.025   5.924 -0.0080 -0.4247 -0.2060
15052TIP3   OH266570   2.185   3.526  13.314 -0.8320 -0.0372  0.0474
15052TIP3    H166571   2.235   3.464  13.262 -0.7559  0.0446  0.0233
15052TIP3    H266572   2.201   3.499  13.405 -0.0098  0.5395  0.0825
15053TIP3   OH266573   3.007   1.075  15.437  0.6309  0.2150 -0.4538
15053TIP3    H166574   2.976   1.088  15.347  2.1143  1.9109 -0.7389
15053TIP3    H266575   3.091   1.121  15.440 -0.6588  2.4797  2.5553
15054TIP3   OH266576   5.326   2.943  16.523  0.0269 -0.0114  0.1889
15054TIP3    H166577   5.269   2.989  16.585 -0.6701 -0.3089 -0.2280
15054TIP3    H266578   5.411   2.985  16.533 -0.5966  1.3802 -0.1652
15055TIP3   OH266579   3.769   4.064   3.315  0.1880  0.3738 -0.4019
15055TIP3    H166580   3.709   4.132   3.284 -0.1541  0.7393  1.0348
15055TIP3    H266581   3.856   4.102   3.303  0.0582  0.5821 -0.7189
15056TIP3   OH266582   6.633   5.353   0.122 -0.0926  0.2658 -0.5459
15056TIP3    H166583   6.599   5.271   0.158  0.0128  1.2516  1.8207
15056TIP3    H266584   6.568   5.419   0.147  3.2053  2.1184  3.6700
15057TIP3   OH266585   3.233   6.633  14.868 -0.5529  0.2490 -0.3610
15057TIP3    H166586   3.225   6.655  14.775 -0.1827  0.6771 -0.2913
15057TIP3    H266587   3.327   6.619  14.882 -0.6692 -0.3795 -0.1784
15058TIP3   OH266588   0.653   0.138  13.214 -0.2596 -0.4795 -0.4274
15058TIP3    H166589   0.600   0.064  13.243  1.0328 -0.6837  1.5315
15058TIP3    H266590   0.686   0.176  13.295 -0.4947  1.9487 -1.4283
15059TIP3   OH266591   5.442   0.259  14.420  0.0237 -0.7394  0.0752
15059TIP3    H166592   5.426   0.202  14.345  0.5430 -0.2112 -0.4431
15059TIP3    H266593   5.486   0.204  14.484  1.4338 -0.6619 -0.8167
15060TIP3   OH266594   1.890   4.118  11.387 -0.0539 -0.4760 -0.0314
15060TIP3    H166595   1.866   4.185  11.323  0.0010 -0.6408 -0.2262
15060TIP3    H266596   1.809   4.067  11.398  0.1772 -0.9760 -0.6159
15061TIP3   OH266597   2.370   5.233   3.358 -0.6467  0.1252 -0.0003
15061TIP3    H166598   2.439   5.180   3.318 -0.9711 -1.3618  1.3479
15061TIP3    H266599   2.290   5.182   3.344 -0.9606  0.2236  1.3677
15062TIP3   OH266600   1.294   0.029   4.619 -0.0288 -0.4393  0.4202
15062TIP3    H166601   1.318  -0.041   4.557 -1.1719  0.4344 -1.0542
15062TIP3    H266602   1.212  -0.001   4.658  1.5043 -1.7207  2.7173
15063TIP3   OH266603   4.357   5.087   1.384  0.4040 -0.3272 -0.1441
15063TIP3    H166604   4.313   5.112   1.465  1.0248  1.9138 -0.4791
15063TIP3    H266605   4.378   4.994   1.396 -1.7402 -0.6801  1.2227
15064TIP3   OH266606   1.199   5.547  11.039  0.4171 -0.0993  0.1241
15064TIP3    H166607   1.153   5.515  10.962 -0.9468  0.3042  0.7612
15064TIP3    H266608   1.160   5.632  11.058  0.6570 -0.2402  1.3300
15065TIP3   OH266609   3.639   5.489  15.973  0.2574 -0.1974 -0.5977
15065TIP3    H166610   3.673   5.433  15.903  1.1302 -2.7117  1.8021
15065TIP3    H266611   3.706   5.487  16.041 -0.9336  1.6249  0.6802
15066TIP3   OH266612   3.465   6.786  11.750 -0.2740  0.4008  0.2521
15066TIP3    H166613   3.434   6.872  11.778 -0.8868 -0.5873  2.6983
15066TIP3    H266614   3.425   6.724  11.811  1.4650 -1.4904 -0.4491
15067TIP3   OH266615   4.667   2.339  16.377 -0.4507 -0.0512  0.3731
15067TIP3    H166616   4.600   2.299  16.322  0.1180 -1.8983  0.9544
15067TIP3    H266617   4.731   2.374  16.316  0.0166 -1.8038 -0.1817
15068TIP3   OH266618   3.457   3.516  14.786  0.4984 -0.2511  0.6014
15068TIP3    H166619   3.368   3.485  14.770  0.3249  0.7352 -0.3819
15068TIP3    H266620   3.469   3.588  14.724  2.4972 -1.3589 -0.3573
15069TIP3   OH266621   2.436   6.780   5.185  0.0912 -0.1039  0.7888
15069TIP3    H166622   2.372   6.747   5.249 -0.5940  4.0117  2.3389
15069TIP3    H266623   2.385   6.796   5.106 -0.5342  1.6543  1.5256
15070TIP3   OH266624   3.213   5.902  14.433 -0.0610  0.1127 -0.7439
15070TIP3    H166625   3.301   5.937  14.447 -0.3502  0.4458  0.3164
15070TIP3    H266626   3.168   5.969  14.383 -0.0103  0.3790 -0.4338
15071TIP3   OH266627   4.445   0.917   4.326 -0.4797 -0.4046  1.2991
15071TIP3    H166628   4.429   0.996   4.379 -2.6144 -0.1868  0.3721
15071TIP3    H266629   4.421   0.844   4.384  2.9622 -0.5001  2.6992
15072TIP3   OH266630   4.002   1.510  14.563 -0.3848  0.1253  0.4458
15072TIP3    H166631   4.031   1.488  14.475 -0.4180 -1.3766  0.8082
15072TIP3    H266632   3.950   1.590  14.552 -2.9458 -1.6988 -1.3270
15073TIP3   OH266633   4.468   4.823   1.808  0.4212  0.1553 -0.5003
15073TIP3    H166634   4.416   4.850   1.732  0.2859  0.3731 -0.3313
15073TIP3    H266635   4.529   4.896   1.823  0.6927 -0.0466 -0.6237
15074TIP3   OH266636   0.489   1.062  16.858  0.4028  0.1085  0.2666
15074TIP3    H166637   0.477   1.155  16.877  0.7711  0.2266 -0.0739
15074TIP3    H266638   0.583   1.048  16.866  0.4584 -0.0274 -0.6112
15075TIP3   OH266639   1.899   6.441  14.006  0.6493  0.2251  0.2887
15075TIP3    H166640   1.885   6.488  13.924 -0.9571 -0.7169  0.0027
15075TIP3    H266641   1.885   6.505  14.075 -1.0376  0.2868 -0.1089
15076TIP3   OH266642   1.007   1.808   5.062 -0.0770 -0.1937 -0.1433
15076TIP3    H166643   1.024   1.864   5.138 -1.7872 -0.9786  0.8269
15076TIP3    H266644   1.087   1.756   5.052  0.7873  1.0501  0.0954
15077TIP3   OH266645   0.587   5.517  14.135  0.0099  0.2613 -0.3304
15077TIP3    H166646   0.675   5.530  14.171 -0.1464 -1.8839  0.8857
15077TIP3    H266647   0.603   5.484  14.046  0.4756 -1.1836  0.2659
15078TIP3   OH266648   6.392   5.998   2.072 -0.3405  0.2504 -0.1293
15078TIP3    H166649   6.342   6.069   2.113 -0.8914 -0.1227 -0.1492
15078TIP3    H266650   6.326   5.946   2.025  0.1636  0.1892 -0.7864
15079TIP3   OH266651   6.521   1.531  12.977 -0.1341 -0.0890  0.1658
15079TIP3    H166652   6.611   1.522  12.946 -0.6635  0.0789 -1.4675
15079TIP3    H266653   6.515   1.622  13.005 -0.0808  0.1797 -0.6801
15080TIP3   OH266654   3.625   2.354   2.296 -0.6103 -0.3172 -0.1554
15080TIP3    H166655   3.616   2.260   2.307  0.3343 -0.6241 -1.7802
15080TIP3    H266656   3.536   2.386   2.284 -1.1876 -0.6124  3.0705
15081TIP3   OH266657   0.164   6.669  17.124 -0.3165  0.0874 -0.2830
15081TIP3    H166658   0.146   6.647  17.033  2.9371 -1.3059 -0.6590
15081TIP3    H266659   0.232   6.736  17.120 -0.2337  0.1108  1.0998
15082TIP3   OH266660   1.694   4.703  17.122  0.3747  0.1016  0.3872
15082TIP3    H166661   1.719   4.636  17.186  1.4407 -0.2417 -0.3926
15082TIP3    H266662   1.682   4.782  17.175 -2.1771 -0.9550  1.5168
15083TIP3   OH266663   6.491   4.449   3.089 -0.1183 -0.8820 -0.1994
15083TIP3    H166664   6.418   4.501   3.053  0.5436  0.5773  0.5117
15083TIP3    H266665   6.553   4.442   3.017  0.7338  1.1327  0.3215
15084TIP3   OH266666   0.103   5.398  16.596 -0.2589 -0.0972  0.2448
15084TIP3    H166667   0.016   5.363  16.617  0.0484 -1.6089 -0.8617
15084TIP3    H266668   0.119   5.464  16.663 -1.7095 -0.7199  1.2500
15085TIP3   OH266669   5.402   3.824   3.847  0.2821  0.2840  0.5887
15085TIP3    H166670   5.402   3.729   3.851 -1.0233  0.2096 -0.7274
15085TIP3    H266671   5.315   3.850   3.876 -0.2789  0.9109 -1.5195
15086TIP3   OH266672   0.965   5.649   1.724  0.0934  0.1321  0.0709
15086TIP3    H166673   0.943   5.742   1.726  1.0224  0.3485  2.2413
15086TIP3    H266674   0.916   5.611   1.797  2.9344 -0.2712  1.8723
15087TIP3   OH266675   5.231   3.486   1.553  0.2877 -0.2027  0.0058
15087TIP3    H166676   5.196   3.420   1.494  1.2083 -1.3546  0.7288
15087TIP3    H266677   5.174   3.482   1.630  0.6880 -0.5753  0.2889
15088TIP3   OH266678   3.989   6.269   3.256 -0.2442  0.1825  0.2139
15088TIP3    H166679   4.045   6.265   3.179 -0.6423  0.4973 -0.0977
15088TIP3    H266680   3.941   6.186   3.256 -0.7843  0.4906 -0.2962
15089TIP3   OH266681   1.645   2.746  16.472 -0.4528  0.4325 -0.7200
15089TIP3    H166682   1.587   2.731  16.547 -0.0757  0.4177 -0.4273
15089TIP3    H266683   1.603   2.816  16.423 -0.5531  0.6443 -0.3353
15090TIP3   OH266684   5.589   1.896   0.632 -0.2372 -0.6804 -0.1407
15090TIP3    H166685   5.606   1.962   0.565 -0.9146 -0.5362 -0.1702
15090TIP3    H266686   5.544   1.826   0.585 -1.5695 -0.1679  0.3450
15091TIP3   OH266687   5.490   0.311  13.426 -0.4227 -0.0958 -0.2411
15091TIP3    H166688   5.544   0.250  13.477  0.9567  0.1159 -1.4345
15091TIP3    H266689   5.403   0.303  13.465  0.2263 -1.2152  1.0336
15092TIP3   OH266690   2.258   5.588  14.718  0.8441 -0.2810  0.1618
15092TIP3    H166691   2.180   5.640  14.700 -0.6347 -1.2808  3.3731
15092TIP3    H266692   2.246   5.509  14.665  1.4057  1.0652 -2.0254
15093TIP3   OH266693   0.733   5.851   5.329 -0.2668  0.5307  0.4862
15093TIP3    H166694   0.735   5.858   5.234 -1.3527  0.0463  0.4169
15093TIP3    H266695   0.675   5.922   5.357 -0.9082 -0.0664  0.6977
15094TIP3   OH266696   6.276   0.336  13.202  0.5491  0.2269  0.0461
15094TIP3    H166697   6.320   0.399  13.259 -0.1607 -0.0818  0.9640
15094TIP3    H266698   6.210   0.386  13.155  1.1295  0.4815 -0.5060
15095TIP3   OH266699   2.681   0.130  12.498 -0.3681 -0.3276 -0.3853
15095TIP3    H166700   2.670   0.077  12.577  1.1228  1.1221  0.8251
15095TIP3    H266701   2.624   0.088  12.433 -2.3372 -0.9688  1.7071
15096TIP3   OH266702   6.406   0.447   0.167  0.1221 -0.3970  0.1798
15096TIP3    H166703   6.315   0.419   0.161  0.3498 -0.9468 -0.9425
15096TIP3    H266704   6.418   0.471   0.259 -1.7372  1.7710 -0.1002
15097TIP3   OH266705   2.019   3.688   2.680 -0.0480 -0.5561 -0.0906
15097TIP3    H166706   2.011   3.635   2.600 -1.4216 -0.4732 -0.0164
15097TIP3    H266707   1.930   3.694   2.714  0.5955 -1.0376  1.7590
15098TIP3   OH266708   0.350   1.649  16.102  0.1086  0.0893  0.0522
15098TIP3    H166709   0.342   1.714  16.032 -2.8049  0.1939  0.4321
15098TIP3    H266710   0.296   1.576  16.074 -1.3782  0.2765  2.3119
15099TIP3   OH266711   6.209   2.001   4.520 -0.0996  0.0316  0.2639
15099TIP3    H166712   6.155   1.923   4.503  0.9503 -0.1917 -2.2539
15099TIP3    H266713   6.167   2.070   4.469  0.4383  0.5200  0.4809
15100TIP3   OH266714   5.354   2.325  15.239 -0.2212 -0.2335 -0.2294
15100TIP3    H166715   5.412   2.388  15.198 -0.8810  1.0313  0.7343
15100TIP3    H266716   5.398   2.300  15.320 -1.2555  1.1845  0.8031
15101TIP3   OH266717   0.127   6.595  16.646 -0.3683 -0.2565 -0.6867
15101TIP3    H166718   0.063   6.584  16.575 -1.6971 -0.7090  0.5449
15101TIP3    H266719   0.192   6.527  16.631 -1.9897 -1.9858 -0.0599
15102TIP3   OH266720   5.563   2.707  13.218 -0.8450  0.1856  0.0771
15102TIP3    H166721   5.511   2.766  13.273 -0.2048 -0.6274  1.5730
15102TIP3    H266722   5.502   2.679  13.150 -2.3865 -0.6376  1.7295
15103TIP3   OH266723   5.317   6.204   2.649 -0.1537 -0.3588  1.1106
15103TIP3    H166724   5.363   6.120   2.657  1.5338  0.4976  0.5540
15103TIP3    H266725   5.386   6.268   2.633 -1.6676  0.7703 -1.1191
15104TIP3   OH266726   5.842   0.306  13.128  0.0593  0.2232  0.2085
15104TIP3    H166727   5.785   0.297  13.205  0.4900 -0.7390  0.4306
15104TIP3    H266728   5.849   0.217  13.094  1.1811  0.3898  0.0024
15105TIP3   OH266729   6.623   6.483   4.295 -0.0304  0.1149  0.5176
15105TIP3    H166730   6.693   6.549   4.299  0.6405 -0.4871 -0.7249
15105TIP3    H266731   6.636   6.430   4.373  1.1901 -0.2468  0.0928
15106TIP3   OH266732   5.724   6.019   5.592 -0.6623 -0.3462 -0.7957
15106TIP3    H166733   5.730   5.971   5.510 -0.6760  0.5502 -1.3236
15106TIP3    H266734   5.811   6.010   5.631 -0.1844  0.5329 -1.6482
15107TIP3   OH266735   0.535   2.648  11.612 -0.4879  0.0309 -0.3415
15107TIP3    H166736   0.630   2.660  11.614 -0.4807 -0.0321 -0.2784
15107TIP3    H266737   0.500   2.734  11.592 -0.4455  0.1868  0.2366
15108TIP3   OH266738   5.201   6.668   5.866 -0.1718 -0.2236 -0.3900
15108TIP3    H166739   5.273   6.636   5.811 -0.8732 -2.2977 -0.1305
15108TIP3    H266740   5.194   6.604   5.937 -0.6542  1.3054  0.9935
15109TIP3   OH266741   1.833   5.720   4.899  0.1380 -0.1396 -0.3847
15109TIP3    H166742   1.826   5.634   4.941  1.5228 -0.3541 -0.5686
15109TIP3    H266743   1.888   5.705   4.822 -1.6250  0.4356 -1.8024
15110TIP3   OH266744   3.132   6.683   4.526  0.0100  0.2266 -0.4679
15110TIP3    H166745   3.115   6.666   4.619  0.6204 -0.3246 -0.4530
15110TIP3    H266746   3.190   6.759   4.525  0.3412 -0.0273 -0.3841
15111TIP3   OH266747   4.470   5.647   5.399  0.0370  0.5963  0.3306
15111TIP3    H166748   4.382   5.608   5.393  0.8883 -1.0235 -2.0703
15111TIP3    H266749   4.514   5.594   5.466 -0.7356  1.2961  1.4105
15112TIP3   OH266750   3.304   4.739  12.444  0.3849  0.5202  0.4650
15112TIP3    H166751   3.329   4.810  12.384 -0.8998 -0.0281 -0.7581
15112TIP3    H266752   3.283   4.784  12.526  3.8707  1.1097  1.0887
15113TIP3   OH266753   4.108   2.197   2.521  0.0492 -0.4654  0.3213
15113TIP3    H166754   4.179   2.192   2.585  0.6147  1.6965 -0.1217
15113TIP3    H266755   4.151   2.216   2.438 -1.1051  1.7491  0.2007
15114TIP3   OH266756   5.453   3.011   0.546 -0.2058  0.3672 -0.4829
15114TIP3    H166757   5.512   3.036   0.616  0.2630  0.7670 -1.0203
15114TIP3    H266758   5.367   3.040   0.576 -0.1221 -0.1201  0.2501
15115TIP3   OH266759   3.837   1.374   3.725 -0.5365 -0.2140  0.0611
15115TIP3    H166760   3.902   1.444   3.724 -1.6215  0.9115 -4.0027
15115TIP3    H266761   3.789   1.386   3.806  0.5441  2.5734  0.3220
15116TIP3   OH266762   3.969   2.227  12.081 -0.3328  0.8018  0.0541
15116TIP3    H166763   4.010   2.288  12.020  2.1865 -0.1568  0.7367
15116TIP3    H266764   3.903   2.182  12.028  0.1035  1.7212 -1.3082
15117TIP3   OH266765   1.278   1.467   5.580 -0.1351 -0.1535  0.2975
15117TIP3    H166766   1.292   1.446   5.672 -0.1921  0.4847  0.4574
15117TIP3    H266767   1.282   1.383   5.535  0.3645 -0.4108  0.8214
15118TIP3   OH266768   0.232   4.935  15.684  0.2578 -0.0966 -0.0862
15118TIP3    H166769   0.283   4.993  15.740 -0.6198  0.5956  0.0008
15118TIP3    H266770   0.144   4.973  15.684  0.5877  0.7683 -3.1034
15119TIP3   OH266771   3.004   4.938  16.516  0.5623 -0.0618 -0.5369
15119TIP3    H166772   2.983   5.022  16.474 -1.1304 -0.5670 -0.7480
15119TIP3    H266773   2.986   4.872  16.449  0.1453 -0.7069  0.1975
15120TIP3   OH266774   5.876   1.204  15.562 -0.3274  0.1080  0.5521
15120TIP3    H166775   5.788   1.241  15.574 -0.4533  0.3763 -1.0673
15120TIP3    H266776   5.874   1.122  15.610 -1.5224  0.0382  0.4141
15121TIP3   OH266777   4.000   1.566   6.250  0.0569  0.3764 -0.0286
15121TIP3    H166778   3.928   1.610   6.295 -0.6601  0.6827 -1.4463
15121TIP3    H266779   4.056   1.637   6.218  1.2350  0.1295  1.4410
15122TIP3   OH266780   2.011   1.970  12.137 -0.1621 -0.3607  0.1021
15122TIP3    H166781   1.995   1.884  12.098 -0.3243 -0.4231  0.3041
15122TIP3    H266782   2.067   2.015  12.074  1.8188 -1.4339  1.0420
15123TIP3   OH266783   4.150   0.275  15.020 -0.0270 -0.4146  0.0075
15123TIP3    H166784   4.225   0.334  15.034 -1.3638  0.9698  1.5426
15123TIP3    H266785   4.127   0.245  15.108 -1.2808 -0.8350 -0.4652
15124TIP3   OH266786   3.641   4.300   0.481 -0.5468 -0.1113  0.0832
15124TIP3    H166787   3.561   4.248   0.473  0.1643 -1.2252  0.1358
15124TIP3    H266788   3.614   4.376   0.533 -1.4685 -0.7076  0.5030
15125TIP3   OH266789   1.095   3.802  13.019  0.2012 -0.0744 -0.7738
15125TIP3    H166790   1.104   3.756  13.102  0.6873  0.4113 -0.5483
15125TIP3    H266791   1.141   3.748  12.956  2.6402  1.1459 -0.1023
15126TIP3   OH266792   1.677   1.287  12.596  0.3847 -0.0303 -0.3990
15126TIP3    H166793   1.611   1.221  12.620  0.5178 -0.6958 -1.8492
15126TIP3    H266794   1.653   1.314  12.507  1.3417  0.6388 -0.4613
15127TIP3   OH266795   1.146   0.953  16.741 -0.6870 -0.2476  0.3081
15127TIP3    H166796   1.087   0.894  16.692 -1.0099 -1.1944  1.7876
15127TIP3    H266797   1.227   0.954  16.690 -1.2923 -0.5638 -0.6749
15128TIP3   OH266798   3.018   2.941   3.910 -0.0642 -0.0956 -0.3074
15128TIP3    H166799   3.066   2.961   3.990  0.5217 -0.3062 -0.6081
15128TIP3    H266800   2.968   3.021   3.892  0.3920  0.2281 -0.1565
15129TIP3   OH266801   1.764   1.162   1.698  0.2855 -0.2938 -0.0828
15129TIP3    H166802   1.793   1.091   1.641  0.4475 -0.5646  0.3356
15129TIP3    H266803   1.789   1.242   1.651  1.1794 -0.5210 -0.0053
15130TIP3   OH266804   0.707   4.971  16.091  0.0016 -0.4167 -0.0450
15130TIP3    H166805   0.708   4.928  16.005  0.6028 -0.8776  0.1871
15130TIP3    H266806   0.763   5.047  16.081  1.4175 -1.3908  0.4028
15131TIP3   OH266807   4.947   1.226   5.199  0.0841 -0.4755  0.2789
15131TIP3    H166808   5.004   1.215   5.275  0.9247 -0.9697 -0.4155
15131TIP3    H266809   5.001   1.201   5.124 -0.7453 -0.0332 -0.4841
15132TIP3   OH266810   6.247   6.205   5.623  0.0659  0.4044 -0.5565
15132TIP3    H166811   6.306   6.180   5.552 -1.6017 -0.1948 -1.7664
15132TIP3    H266812   6.285   6.164   5.701  0.7088 -0.8099 -1.4852
15133TIP3   OH266813   3.839   6.337  11.585 -0.1493 -0.1012 -0.1610
15133TIP3    H166814   3.899   6.410  11.597 -0.9616  0.3110  1.4944
15133TIP3    H266815   3.892   6.259  11.602  0.2508  0.2003 -0.0304
15134TIP3   OH266816   0.384   3.395   2.125  0.5709 -0.1964  0.3594
15134TIP3    H166817   0.475   3.387   2.153 -0.2107 -1.2991  2.7512
15134TIP3    H266818   0.348   3.462   2.183 -0.8496 -1.8134  1.3744
15135TIP3   OH266819   6.139   0.966   0.359  0.1317  0.1198  0.3505
15135TIP3    H166820   6.065   1.021   0.332  0.2700 -0.9157 -2.3747
15135TIP3    H266821   6.209   1.027   0.378 -0.4976  1.0086 -0.1286
15136TIP3   OH266822   3.177   6.776   4.190 -0.1566 -0.1305 -0.2002
15136TIP3    H166823   3.191   6.712   4.260  0.2162 -0.5616 -0.6662
15136TIP3    H266824   3.084   6.798   4.196 -0.4842 -1.3480 -0.5740
15137TIP3   OH266825   4.417   3.700   1.389  0.4311  0.0185 -0.3278
15137TIP3    H166826   4.334   3.665   1.355  0.1840 -1.5503  1.7481
15137TIP3    H266827   4.391   3.753   1.464  1.2291  0.2146 -0.1867
15138TIP3   OH266828   4.788   6.547   5.145 -0.1979  0.4704  0.4576
15138TIP3    H166829   4.880   6.571   5.153 -0.2452  0.2966  1.6177
15138TIP3    H266830   4.746   6.588   5.221 -0.9229 -0.1356  0.3919
15139TIP3   OH266831   0.389   5.735   4.976 -0.0549  0.0823 -0.1582
15139TIP3    H166832   0.398   5.806   4.913 -0.3040 -1.1580 -1.6394
15139TIP3    H266833   0.331   5.672   4.933  0.1045 -0.9784  1.1403
15140TIP3   OH266834   1.900   2.837   1.873  0.2613 -0.3395 -0.3897
15140TIP3    H166835   1.921   2.877   1.957  0.5648 -0.4526 -0.4131
15140TIP3    H266836   1.863   2.909   1.821 -0.5922 -0.4234  0.0785
15141TIP3   OH266837   1.908   0.867   5.169  0.0737 -0.3778 -0.3629
15141TIP3    H166838   1.923   0.818   5.089 -1.2418 -2.7336  0.7626
15141TIP3    H266839   1.833   0.923   5.149 -0.2748 -0.9833 -0.7764
15142TIP3   OH266840   3.264   0.154  15.988  1.2226 -0.2373 -0.0902
15142TIP3    H166841   3.171   0.152  16.010  1.3703  0.0897  0.5608
15142TIP3    H266842   3.295   0.065  16.006  0.8334 -0.6189 -1.2227
15143TIP3   OH266843   0.074   0.237  14.542  0.1002 -0.2589 -0.4726
15143TIP3    H166844   0.042   0.148  14.528 -2.5358  0.7848 -1.5071
15143TIP3    H266845   0.016   0.292  14.489  0.9819  2.1745  0.9845
15144TIP3   OH266846   2.912   3.911   4.056  0.3016 -0.5208 -0.1356
15144TIP3    H166847   2.894   3.817   4.049 -1.2580 -0.2902  0.6650
15144TIP3    H266848   2.908   3.929   4.150 -0.7608  0.6118 -0.3953
15145TIP3   OH266849   0.226   5.641   3.810  0.0054  0.3406  0.1644
15145TIP3    H166850   0.173   5.700   3.864  0.3586  0.1098  0.7711
15145TIP3    H266851   0.308   5.631   3.859  0.0675 -0.4131 -0.0896
15146TIP3   OH266852   5.981   0.028   3.486 -0.1520 -0.8023  0.3371
15146TIP3    H166853   6.013  -0.061   3.469 -0.5594 -1.0159  0.7053
15146TIP3    H266854   6.029   0.056   3.564  0.8432 -0.2590 -0.4552
15147TIP3   OH266855   2.377   3.595   2.529 -1.0103 -0.0067  0.0653
15147TIP3    H166856   2.320   3.662   2.493 -0.3783  1.0763  1.0754
15147TIP3    H266857   2.407   3.630   2.613 -1.5166 -1.9969  1.1062
15148TIP3   OH266858   0.719   5.307  16.328  0.1743  0.0964 -0.1827
15148TIP3    H166859   0.790   5.243  16.337 -1.2186 -1.3331  0.9902
15148TIP3    H266860   0.646   5.256  16.292 -1.6965  0.4396  2.9172
15149TIP3   OH266861   3.625   6.232  15.749  0.0517 -0.4144  0.1419
15149TIP3    H166862   3.535   6.260  15.730  0.3867  0.0814 -0.7388
15149TIP3    H266863   3.615   6.150  15.797 -0.8697 -0.4887 -0.1722
15150TIP3   OH266864   3.762   2.729  12.702  0.5440 -0.2725  0.8835
15150TIP3    H166865   3.677   2.754  12.665  0.4286 -1.3694  0.4025
15150TIP3    H266866   3.823   2.794  12.666  0.0019  0.2198  0.8366
15151TIP3   OH266867   2.067   1.397   1.859 -0.2526  0.8437  0.1033
15151TIP3    H166868   2.101   1.421   1.773 -1.4469  0.2863 -0.5423
15151TIP3    H266869   2.120   1.447   1.921  2.0924 -0.3775 -0.8223
15152TIP3   OH266870   4.375   3.627  11.152 -0.2522  0.0359  0.4162
15152TIP3    H166871   4.304   3.654  11.093 -0.3685 -0.8023  0.1586
15152TIP3    H266872   4.454   3.633  11.098 -0.0667  1.3724  0.8272
15153TIP3   OH266873   5.382   3.138   2.434 -0.7995 -0.5770  0.3037
15153TIP3    H166874   5.319   3.209   2.446  1.2952  1.6205 -1.4060
15153TIP3    H266875   5.351   3.091   2.357 -0.0595  0.8541 -0.8846
15154TIP3   OH266876   5.137   1.255   3.881 -0.2356 -0.8059  0.0590
15154TIP3    H166877   5.064   1.238   3.821  0.3286  1.0562 -1.1823
15154TIP3    H266878   5.106   1.326   3.937 -0.3710 -1.8505  1.3478
15155TIP3   OH266879   6.268   2.060  15.877 -0.7029  0.5604 -0.0760
15155TIP3    H166880   6.283   2.154  15.878  0.9618  0.3186 -0.5883
15155TIP3    H266881   6.334   2.024  15.936 -0.5637 -0.3854 -0.7900
15156TIP3   OH266882   2.859   4.220   4.487  0.0393 -0.1717  0.6555
15156TIP3    H166883   2.904   4.273   4.553  1.5687 -0.5902 -0.0310
15156TIP3    H266884   2.826   4.284   4.424 -1.6216  0.2490  1.9180
15157TIP3   OH266885   6.642   0.509   1.481 -0.4937  0.1777  0.3161
15157TIP3    H166886   6.666   0.416   1.482 -0.1400  0.2767  2.2074
15157TIP3    H266887   6.725   0.555   1.472 -0.5451  0.3419  0.6646
15158TIP3   OH266888   4.335   1.436   2.746  0.2198 -0.0849 -1.1868
15158TIP3    H166889   4.417   1.436   2.697  1.9037  1.7901  1.5357
15158TIP3    H266890   4.337   1.354   2.795  0.3863 -0.1186 -1.2490
15159TIP3   OH266891   4.451   2.728  16.949 -0.3619  0.3040  0.6410
15159TIP3    H166892   4.514   2.739  16.877  0.4916 -0.7909  1.1988
15159TIP3    H266893   4.423   2.816  16.970 -0.4723  0.6673 -0.9151
15160TIP3   OH266894   5.547   5.886  14.438 -0.0847 -0.5677 -0.3788
15160TIP3    H166895   5.517   5.863  14.526  0.0267 -0.8086 -0.4027
15160TIP3    H266896   5.477   5.940  14.402  0.2193  0.1900  0.1472
15161TIP3   OH266897   4.394   0.235  14.415  0.2314  0.0644 -0.2033
15161TIP3    H166898   4.487   0.234  14.394 -0.1969  0.1829 -2.2166
15161TIP3    H266899   4.377   0.323  14.449  0.6939  0.3004 -0.5892
15162TIP3   OH266900   1.080   1.153   3.782  0.3471  0.4215  0.0432
15162TIP3    H166901   0.994   1.148   3.822  0.3230 -0.3130 -0.0851
15162TIP3    H266902   1.084   1.076   3.725  0.9481  0.6440 -0.2161
15163TIP3   OH266903   2.508   2.508   0.979  0.7061 -0.3238  0.9171
15163TIP3    H166904   2.602   2.516   0.961  0.7706 -0.1247  1.3324
15163TIP3    H266905   2.470   2.478   0.896  1.0404  0.2649  0.5458
15164TIP3   OH266906   5.198   4.801  17.192 -0.0448 -0.1342 -0.5021
15164TIP3    H166907   5.193   4.896  17.205  0.6776 -0.2723  0.9182
15164TIP3    H266908   5.265   4.790  17.124 -0.3214  0.3857 -0.8604
15165TIP3   OH266909   5.686   4.091   3.111 -0.6918 -0.6916 -0.1545
15165TIP3    H166910   5.727   4.106   3.196 -1.7293  0.3133  0.1923
15165TIP3    H266911   5.594   4.075   3.131 -0.9971 -0.1846 -1.1015
15166TIP3   OH266912   4.052   2.963   5.352 -0.0772 -0.2687  0.1864
15166TIP3    H166913   4.080   2.880   5.390 -0.2607 -1.1314 -1.4939
15166TIP3    H266914   3.970   2.983   5.396 -0.0217 -0.9781  0.6191
15167TIP3   OH266915   6.420   1.849  12.065 -0.0127  0.0836 -0.0166
15167TIP3    H166916   6.370   1.796  12.002 -0.9051 -0.9014  1.5032
15167TIP3    H266917   6.379   1.831  12.149  1.7746  0.6647  0.9972
15168TIP3   OH266918   4.680   1.538  11.409 -0.1801 -0.0291 -0.4739
15168TIP3    H166919   4.607   1.600  11.399  2.6944  3.3839 -1.1771
15168TIP3    H266920   4.658   1.465  11.351 -3.0511  0.8586 -0.5835
15169TIP3   OH266921   6.398   5.358  16.016 -0.1478  0.6513 -0.2429
15169TIP3    H166922   6.330   5.352  16.083 -1.7855  1.1107 -1.8134
15169TIP3    H266923   6.427   5.268  16.003 -0.7851  0.3948  0.1121
15170TIP3   OH266924   6.680   0.721   5.879 -0.2301 -0.2836 -0.0913
15170TIP3    H166925   6.614   0.789   5.894  0.1083 -0.0891  0.5317
15170TIP3    H266926   6.740   0.761   5.817  0.6634  0.4676  1.2305
15171TIP3   OH266927   0.009   4.188   1.404 -0.1726  0.8812 -0.2439
15171TIP3    H166928   0.077   4.255   1.392  2.2896 -1.3804  0.7848
15171TIP3    H266929  -0.003   4.150   1.317  1.9343 -0.6098  0.0818
15172TIP3   OH266930   6.157   4.739   1.922  0.1187 -0.4516  0.0763
15172TIP3    H166931   6.130   4.813   1.867 -0.7946 -1.2160 -0.5082
15172TIP3    H266932   6.247   4.760   1.946 -0.0870  0.8000 -0.1763
15173TIP3   OH266933   6.656   3.394   2.316  0.1493  0.0496  0.2913
15173TIP3    H166934   6.722   3.461   2.332  0.9003 -1.1612  2.5386
15173TIP3    H266935   6.588   3.411   2.381 -0.4464 -0.3281 -0.2316
15174TIP3   OH266936   4.276   3.608  12.057 -0.1919 -0.2526  0.4687
15174TIP3    H166937   4.206   3.669  12.081 -1.3677 -1.3618 -0.0893
15174TIP3    H266938   4.344   3.623  12.122 -0.8782  0.9568  0.9297
15175TIP3   OH266939   6.193   2.665   3.346  0.2182  0.2270  0.4307
15175TIP3    H166940   6.120   2.727   3.340  0.3130  0.5371  2.0080
15175TIP3    H266941   6.270   2.717   3.320 -0.1244 -0.1292 -1.3279
15176TIP3   OH266942   5.098   4.448  12.826  0.1920  0.5709 -0.1033
15176TIP3    H166943   5.131   4.413  12.909 -0.3448  0.9046  0.2491
15176TIP3    H266944   5.135   4.390  12.759 -0.3009 -0.3836  0.4447
15177TIP3   OH266945   5.470   0.905   4.568  0.0032 -0.5438  0.2140
15177TIP3    H166946   5.484   0.822   4.523  2.3881  0.7361 -1.5062
15177TIP3    H266947   5.469   0.970   4.498 -0.3585  1.0581  1.6802
15178TIP3   OH266948   2.114   1.481  13.804  0.5712 -0.5327  0.2763
15178TIP3    H166949   2.181   1.421  13.838 -0.2042 -1.7426 -0.2826
15178TIP3    H266950   2.119   1.472  13.709  0.2473  0.0673  0.2027
15179TIP3   OH266951   2.469   5.725  12.381 -0.0761  0.0868 -0.2793
15179TIP3    H166952   2.531   5.652  12.378 -0.7505 -0.5583  0.8232
15179TIP3    H266953   2.471   5.754  12.472 -0.1359  1.1736 -0.6172
15180TIP3   OH266954   6.585   0.389  13.599 -0.4185  0.3098  0.3842
15180TIP3    H166955   6.489   0.395  13.591 -0.4560  0.4030  0.9236
15180TIP3    H266956   6.615   0.381  13.508 -0.9918 -0.5015  0.2571
15181TIP3   OH266957   0.541   4.953   4.756  0.0586  0.8244 -0.4417
15181TIP3    H166958   0.501   5.036   4.783 -0.7018 -0.1346  1.4849
15181TIP3    H266959   0.630   4.957   4.791 -1.6038 -1.3805  4.5769
15182TIP3   OH266960   0.560   0.484   2.573 -0.3067  0.5030  0.3357
15182TIP3    H166961   0.471   0.461   2.599 -0.1893  0.5036  0.7329
15182TIP3    H266962   0.608   0.401   2.579  0.0357  0.7744  1.4290
15183TIP3   OH266963   6.393   1.630   4.230  0.2352 -0.6182  0.7068
15183TIP3    H166964   6.311   1.591   4.200 -0.3079  0.8619  0.2312
15183TIP3    H266965   6.453   1.556   4.238 -0.3818 -1.4099 -1.5055
15184TIP3   OH266966   1.043   4.318  14.276 -0.1627 -0.5407 -0.5438
15184TIP3    H166967   1.077   4.228  14.275 -3.1490 -1.7311 -0.2336
15184TIP3    H266968   0.976   4.319  14.209 -0.9714  1.1514  0.2550
15185TIP3   OH266969   3.000   3.790  11.185  0.1491  0.5289 -0.3548
15185TIP3    H166970   2.920   3.778  11.236  2.1894  0.4730  2.9666
15185TIP3    H266971   3.018   3.703  11.148 -0.0202 -0.0466  0.9007
15186TIP3   OH266972   6.110   5.590  13.317 -0.1430  0.1177 -0.0947
15186TIP3    H166973   6.082   5.501  13.341 -1.4689  0.6985  0.5254
15186TIP3    H266974   6.163   5.577  13.238  1.4758 -1.4543  1.1752
15187TIP3   OH266975   5.141   2.335   1.669  0.4162 -0.7714 -0.3044
15187TIP3    H166976   5.169   2.408   1.724  1.7633  0.0686 -2.0354
15187TIP3    H266977   5.094   2.377   1.597  0.5453 -1.6602 -0.9074
15188TIP3   OH266978   0.475   6.062   1.731  0.3402 -0.0821 -0.1502
15188TIP3    H166979   0.511   5.975   1.716  0.3885  0.0220 -0.6701
15188TIP3    H266980   0.383   6.055   1.704  0.5533  0.2386 -0.9952
15189TIP3   OH266981   1.913   4.583   4.715  0.1350  0.1110  0.1667
15189TIP3    H166982   1.944   4.506   4.763  1.1266  1.3279  1.5239
15189TIP3    H266983   1.989   4.613   4.666 -0.2601  0.2226 -0.3839
15190TIP3   OH266984   2.201   3.032   5.862 -0.3762 -0.4615  0.2772
15190TIP3    H166985   2.139   2.992   5.923 -0.2365 -0.7354  0.2424
15190TIP3    H266986   2.190   2.981   5.781 -0.4269 -0.2204  0.1319
15191TIP3   OH266987   2.038   0.880  17.200  0.2047 -0.1785 -0.0425
15191TIP3    H166988   1.980   0.804  17.208 -0.8984  0.6983  0.4364
15191TIP3    H266989   2.114   0.858  17.254 -0.5222 -0.5669  0.8474
15192TIP3   OH266990   1.114   2.691  14.774  0.5769  0.3378 -0.6736
15192TIP3    H166991   1.194   2.685  14.721  0.3978  0.8585 -1.0139
15192TIP3    H266992   1.140   2.743  14.850  0.6693  0.1546 -0.5817
15193TIP3   OH266993   5.948   3.748   4.756  0.0226  0.1529 -0.2538
15193TIP3    H166994   5.958   3.735   4.850  1.4253 -0.9761 -0.5442
15193TIP3    H266995   5.968   3.841   4.743  0.1242  0.2442  0.5181
15194TIP3   OH266996   5.678   3.078  16.288  0.0680  0.7191  0.2947
15194TIP3    H166997   5.653   3.158  16.241  2.0547 -0.0659 -2.2204
15194TIP3    H266998   5.663   3.007  16.226  0.2759 -0.6500  1.7678
15195TIP3   OH266999   2.778   6.099  10.891  0.5263  0.0989 -0.8985
15195TIP3    H167000   2.792   6.039  10.964  4.8663 -0.0585 -1.7711
15195TIP3    H267001   2.782   6.045  10.813  1.3847  1.0430 -1.5253
15196TIP3   OH267002   0.339   5.943  15.376 -0.4666 -1.0744  0.0505
15196TIP3    H167003   0.434   5.951  15.387 -0.5075 -0.0961 -0.2122
15196TIP3    H267004   0.306   5.927  15.464 -0.3257  1.5659  0.6259
15197TIP3   OH267005   2.217   1.354   3.088 -0.5614 -0.0501  0.0310
15197TIP3    H167006   2.193   1.400   3.008 -1.3042 -0.8810 -0.2467
15197TIP3    H267007   2.267   1.278   3.058  0.4754  0.4587  0.4644
15198TIP3   OH267008   1.330   3.861   0.282 -0.4711  0.2291 -0.1481
15198TIP3    H167009   1.413   3.892   0.247  0.1159 -1.1235  0.0430
15198TIP3    H267010   1.347   3.772   0.311 -1.6342  0.3944  1.1402
15199TIP3   OH267011   4.190   0.028   1.674  0.1009 -0.2362  0.2221
15199TIP3    H167012   4.143  -0.052   1.650 -0.8927  0.3338  0.2296
15199TIP3    H267013   4.282   0.001   1.682 -0.2025 -1.3337  0.0581
15200TIP3   OH267014   1.421   0.203   5.524 -0.6809 -0.1721 -0.0575
15200TIP3    H167015   1.448   0.198   5.616 -0.7970 -1.2312 -0.0765
15200TIP3    H267016   1.503   0.212   5.476 -0.5202 -1.0482  0.0495
15201TIP3   OH267017   0.126   4.250   2.228 -0.2335 -0.3086  0.0920
15201TIP3    H167018   0.154   4.339   2.252  1.6942 -0.6064 -0.9365
15201TIP3    H267019   0.061   4.227   2.294 -0.8154  1.8935  0.3383
15202TIP3   OH267020   2.308   0.010  11.165 -0.6954 -0.1812 -0.0703
15202TIP3    H167021   2.229   0.053  11.195 -0.6923 -0.6494  0.6107
15202TIP3    H267022   2.286  -0.083  11.162 -0.4916 -0.2135 -0.8878
15203TIP3   OH267023   3.822   1.914   6.123 -0.3156 -0.5514  0.4146
15203TIP3    H167024   3.815   2.009   6.125  0.5274 -0.5099  1.6450
15203TIP3    H267025   3.741   1.885   6.082  0.1810  0.7824 -1.5849
15204TIP3   OH267026   1.287   3.610  17.027  0.0104  0.0210 -0.1794
15204TIP3    H167027   1.202   3.651  17.045  0.0573 -0.2578  0.7115
15204TIP3    H267028   1.265   3.530  16.980 -0.3606 -0.9587  1.6012
15205TIP3   OH267029   4.227   4.376  16.944  0.2374 -0.1239  0.8798
15205TIP3    H167030   4.178   4.334  17.014  0.7714 -1.1155  0.6791
15205TIP3    H267031   4.317   4.347  16.958  0.4656  0.2639  0.2209
15206TIP3   OH267032   5.013   4.804  10.962 -0.5113  0.4530 -0.3484
15206TIP3    H167033   5.009   4.807  10.867 -1.4589 -1.2418 -0.3914
15206TIP3    H267034   4.928   4.835  10.992 -1.2814 -1.7391 -0.1648
15207TIP3   OH267035   1.566   5.082   3.923  0.0122 -0.3354 -0.2740
15207TIP3    H167036   1.654   5.114   3.942  0.4824  0.6352 -3.6579
15207TIP3    H267037   1.576   4.988   3.910  0.7562 -0.0830 -1.6060
15208TIP3   OH267038   1.983   1.446   4.170 -0.1419  0.2323 -0.0247
15208TIP3    H167039   2.014   1.477   4.255 -0.7796 -1.6607  0.9375
15208TIP3    H267040   1.891   1.471   4.167 -0.2662 -0.2033  0.0959
15209TIP3   OH267041   1.168   0.334   5.417  0.0400  0.0597 -0.3756
15209TIP3    H167042   1.086   0.284   5.422  0.2835 -0.4926 -1.6645
15209TIP3    H267043   1.235   0.274   5.449 -0.0461  0.4844  0.6038
15210TIP3   OH267044   4.520   1.893   2.382 -0.1043  0.2204  0.3037
15210TIP3    H167045   4.457   1.863   2.448 -0.4184 -1.1924 -0.6063
15210TIP3    H267046   4.469   1.897   2.300  0.3962  1.4716  0.0330
15211TIP3   OH267047   6.484   2.696   1.278 -0.1146 -0.6812 -0.3157
15211TIP3    H167048   6.506   2.603   1.279  0.4967 -0.5453  1.9114
15211TIP3    H267049   6.416   2.706   1.345  0.8565  0.6815  0.5009
15212TIP3   OH267050   2.873   0.593   2.278  0.2790 -0.0159 -0.0876
15212TIP3    H167051   2.861   0.539   2.356 -1.4834  1.6968  0.8707
15212TIP3    H267052   2.851   0.535   2.205 -1.4688 -0.6381  0.9168
15213TIP3   OH267053   2.252   5.704  14.040 -0.1326 -0.3986  0.1199
15213TIP3    H167054   2.247   5.686  13.946 -0.1925 -0.1767  0.0803
15213TIP3    H267055   2.265   5.619  14.080  0.8717 -0.3857 -0.1623
15214TIP3   OH267056   6.552   2.176  15.202 -0.3340  0.3491  0.2698
15214TIP3    H167057   6.463   2.163  15.233 -0.5532  0.8787 -0.1399
15214TIP3    H267058   6.543   2.192  15.108  0.3123 -1.0717 -0.0535
15215TIP3   OH267059   0.087   4.605   1.030 -0.5166 -0.6496 -0.3780
15215TIP3    H167060   0.154   4.541   1.006 -0.1887 -0.2453 -0.5572
15215TIP3    H267061   0.020   4.554   1.076 -0.5812 -1.2340 -1.1066
15216TIP3   OH267062   1.692   1.806  11.617 -0.3234  0.0958 -0.1155
15216TIP3    H167063   1.750   1.863  11.567  1.4360 -1.0607  0.5656
15216TIP3    H267064   1.604   1.839  11.598  0.3880  0.5325 -2.8708
15217TIP3   OH267065   2.409   3.567  15.078 -0.4777  0.0411  0.2506
15217TIP3    H167066   2.490   3.535  15.117  0.5669 -0.1602 -1.9729
15217TIP3    H267067   2.431   3.654  15.043 -1.2809  0.1010 -0.1402
15218TIP3   OH267068   1.572   5.037   4.569  0.4554 -0.0556  0.2454
15218TIP3    H167069   1.560   4.956   4.619 -1.9154  0.0758 -0.0820
15218TIP3    H267070   1.484   5.072   4.558  1.2403  1.4435 -1.5268
15219TIP3   OH267071   2.074   2.778   2.671  0.2978 -0.4314 -0.0048
15219TIP3    H167072   2.167   2.788   2.649  0.6920 -2.8606  0.4133
15219TIP3    H267073   2.030   2.776   2.586  0.2515  3.3643 -0.1802
15220TIP3   OH267074   0.661   0.352   4.635  0.2241  0.6771  0.2698
15220TIP3    H167075   0.702   0.328   4.552 -0.1551  2.3969 -0.4505
15220TIP3    H267076   0.711   0.306   4.702  0.4965 -0.7755 -0.9217
15221TIP3   OH267077   5.521   4.555  15.691 -0.3387  0.1379  0.2357
15221TIP3    H167078   5.597   4.497  15.691 -0.6229 -0.2523 -1.0587
15221TIP3    H267079   5.452   4.504  15.650 -0.8878  1.0168  0.0639
15222TIP3   OH267080   3.546   3.871   3.645 -0.3962 -0.2540  0.0036
15222TIP3    H167081   3.468   3.879   3.590 -0.8584 -2.4259  0.3131
15222TIP3    H267082   3.516   3.886   3.734 -0.2944 -0.1852  0.0265
15223TIP3   OH267083   5.436   5.686  13.271 -0.0785 -0.0201 -0.7211
15223TIP3    H167084   5.420   5.682  13.365  0.1657  1.1882 -0.6176
15223TIP3    H267085   5.349   5.686  13.231 -0.2024  0.1870 -0.4527
15224TIP3   OH267086   6.079   6.080   4.433 -0.5028  0.2623  0.4946
15224TIP3    H167087   6.090   6.003   4.489 -2.8572 -0.0909  0.5049
15224TIP3    H267088   6.133   6.147   4.475  1.9367 -1.4911  0.2235
15225TIP3   OH267089   2.766   1.020  11.638 -0.1701  0.2608  0.0682
15225TIP3    H167090   2.823   1.087  11.677  0.0668  1.6547 -2.5759
15225TIP3    H267091   2.825   0.965  11.587 -0.8901  0.4527 -0.9965
15226TIP3   OH267092   0.436   5.372  15.778 -0.0304  0.2318 -0.5845
15226TIP3    H167093   0.422   5.281  15.751  1.5063 -0.3557  0.5614
15226TIP3    H267094   0.502   5.405  15.718 -1.5070  1.0104 -1.8186
15227TIP3   OH267095   4.358   5.826   1.286 -0.1851  0.1685  0.3487
15227TIP3    H167096   4.285   5.841   1.226  0.3177 -0.3194 -0.3806
15227TIP3    H267097   4.315   5.804   1.370 -0.8796 -0.7681 -0.2339
15228TIP3   OH267098   2.208   1.407   2.242  0.1666  0.4052 -0.1715
15228TIP3    H167099   2.119   1.412   2.207 -0.6217  1.4303  1.8590
15228TIP3    H267100   2.226   1.313   2.249 -0.5239  0.1932 -1.1387
15229TIP3   OH267101   5.653   3.705  16.976 -0.5005 -0.0906  0.1872
15229TIP3    H167102   5.687   3.782  17.023 -1.5102  0.5898 -0.1666
15229TIP3    H267103   5.618   3.741  16.894  0.4265 -1.1458 -0.6893
15230TIP3   OH267104   5.198   3.960  15.094 -0.1368 -0.2987  0.7513
15230TIP3    H167105   5.194   3.891  15.027  1.2995  0.7295 -0.4331
15230TIP3    H267106   5.181   4.041  15.046  1.6934  0.5319  1.4551
15231TIP3   OH267107   3.155   0.766  13.592  0.2683 -0.0130 -0.0600
15231TIP3    H167108   3.243   0.787  13.560 -0.3853 -0.8891 -2.5720
15231TIP3    H267109   3.099   0.836  13.557 -0.2826 -0.3727  0.0894
15232TIP3   OH267110   2.183   3.796  12.240  0.1559  0.0574 -0.1589
15232TIP3    H167111   2.268   3.776  12.202  0.2057  0.4049 -0.2401
15232TIP3    H267112   2.126   3.725  12.211  0.1619  0.3792 -0.9845
15233TIP3   OH267113   4.150   5.763   0.727  0.3416  0.1332 -0.0237
15233TIP3    H167114   4.056   5.760   0.745  0.1418  2.4254 -0.4808
15233TIP3    H267115   4.161   5.715   0.645 -0.4616  0.0562 -0.0887
15234TIP3   OH267116   2.694   6.267   1.826  0.0112 -0.0238 -0.2136
15234TIP3    H167117   2.753   6.201   1.860  1.5220  1.1125 -0.5436
15234TIP3    H267118   2.696   6.338   1.891 -0.9015  0.0696 -0.2803
15235TIP3   OH267119   3.191   5.504  12.203 -0.0178  0.4091  0.5273
15235TIP3    H167120   3.254   5.501  12.274 -1.5019  1.3973  1.9293
15235TIP3    H267121   3.168   5.412  12.186  0.0848  0.1962  1.5575
15236TIP3   OH267122   2.269   1.139  13.117  0.0623  0.0513  0.7962
15236TIP3    H167123   2.247   1.191  13.040 -0.0957 -1.5384 -0.2703
15236TIP3    H267124   2.321   1.197  13.172 -1.0194  1.6560  0.1418
15237TIP3   OH267125   2.045   5.490  14.410 -0.0387 -0.3832  0.2746
15237TIP3    H167126   2.033   5.568  14.465 -0.1315 -0.7423  0.7714
15237TIP3    H267127   2.079   5.424  14.470  0.8013 -0.4957 -0.3125
15238TIP3   OH267128   5.207   3.432   6.061  0.6966  0.1396 -0.4388
15238TIP3    H167129   5.268   3.506   6.054  2.1534 -1.1070 -1.1509
15238TIP3    H267130   5.215   3.404   6.153 -1.5244  2.2330  0.4414
15239TIP3   OH267131   4.499   0.233   1.825 -0.2752 -0.6999 -0.2450
15239TIP3    H167132   4.493   0.217   1.919 -0.5017 -1.0958 -0.3277
15239TIP3    H267133   4.574   0.180   1.797  1.8814  1.9182  0.2683
15240TIP3   OH267134   5.938   2.178   3.128 -0.1122 -0.2025  0.2700
15240TIP3    H167135   6.014   2.121   3.120  0.3916  0.5543 -0.4388
15240TIP3    H267136   5.869   2.122   3.164  1.3270 -0.3882  2.8471
15241TIP3   OH267137   2.403   3.129   1.691 -0.1897 -0.5271  0.5865
15241TIP3    H167138   2.441   3.186   1.759  2.0052  0.8862 -1.7468
15241TIP3    H267139   2.329   3.087   1.734  0.3562  1.3276  3.4812
15242TIP3   OH267140   3.094   1.174   1.006  0.7332 -0.0069  0.6192
15242TIP3    H167141   3.041   1.230   1.062  0.8341  0.5129  0.1984
15242TIP3    H267142   3.084   1.087   1.043 -0.3167  0.1043  0.6119
15243TIP3   OH267143   5.536   3.086  12.844  0.2766 -1.0229 -0.1732
15243TIP3    H167144   5.576   3.107  12.759  2.3591  0.2811  1.0967
15243TIP3    H267145   5.608   3.052  12.896  0.0427  2.4110  2.5441
15244TIP3   OH267146   0.552   1.810  11.426 -0.2564 -0.4158 -0.3252
15244TIP3    H167147   0.589   1.821  11.338  1.2925 -0.5154  0.2971
15244TIP3    H267148   0.502   1.729  11.420 -0.4376 -0.2480 -1.2125
15245TIP3   OH267149   2.385   2.747  17.153  0.1420 -0.4661  0.3875
15245TIP3    H167150   2.423   2.766  17.068 -0.0606  1.7737  0.7654
15245TIP3    H267151   2.437   2.799  17.215 -1.5587  0.2234  1.2735
15246TIP3   OH267152   1.642   3.904  13.249 -0.2893  0.7045  0.0020
15246TIP3    H167153   1.572   3.849  13.213  0.9201 -0.7855 -0.0838
15246TIP3    H267154   1.713   3.899  13.185  1.3110 -0.7681  1.8408
15247TIP3   OH267155   4.944   0.355   5.691 -0.1240 -0.1666 -0.6856
15247TIP3    H167156   4.880   0.290   5.660  0.2130 -0.4020 -0.8966
15247TIP3    H267157   4.893   0.435   5.703 -0.6146 -0.5704 -0.0599
15248TIP3   OH267158   1.180   6.230  11.715  0.0478 -0.1757  0.2947
15248TIP3    H167159   1.168   6.226  11.810 -0.8338  0.3357  0.2017
15248TIP3    H267160   1.167   6.322  11.693 -0.3036 -0.3876 -0.3973
15249TIP3   OH267161   3.093   5.214   6.000 -0.3747 -0.3821 -0.3010
15249TIP3    H167162   3.039   5.285   6.036  0.1099  1.5588 -3.2417
15249TIP3    H267163   3.029   5.154   5.961 -0.5742  1.2220 -2.5679
15250TIP3   OH267164   2.231   1.332   1.292  0.5172 -1.3436 -0.3410
15250TIP3    H167165   2.171   1.258   1.300 -0.9524 -0.1326  0.1878
15250TIP3    H267166   2.218   1.364   1.203  0.6264 -1.2950 -0.3397
15251TIP3   OH267167   3.262   4.633   5.211 -0.1652 -0.1383 -0.4664
15251TIP3    H167168   3.215   4.559   5.251 -0.0870 -0.2537 -0.5921
15251TIP3    H267169   3.345   4.597   5.182 -0.5836 -0.2515 -1.5355
15252TIP3   OH267170   1.329   2.003  12.116 -0.4713 -0.7639 -0.1624
15252TIP3    H167171   1.245   2.050  12.113  0.1349  0.5758  2.4978
15252TIP3    H267172   1.305   1.911  12.125 -1.6735 -0.3470  1.1187
15253TIP3   OH267173   6.379   4.419   2.697  0.7238  0.0550  0.0775
15253TIP3    H167174   6.417   4.479   2.633  1.1162  0.1727  0.4199
15253TIP3    H267175   6.449   4.403   2.760  0.3231 -0.0166  0.5115
15254TIP3   OH267176   6.385   0.301   3.168 -0.0588  0.2597  0.3624
15254TIP3    H167177   6.348   0.213   3.173 -3.5974  1.6474  0.3031
15254TIP3    H267178   6.395   0.318   3.075 -0.5935  0.3727  0.3226
15255TIP3   OH267179   3.125   4.086   5.601 -0.6863 -0.1037 -0.4528
15255TIP3    H167180   3.039   4.091   5.558 -0.3858  1.9355 -0.8814
15255TIP3    H267181   3.177   4.154   5.558 -0.3983  2.1415  3.2160
15256TIP3   OH267182   0.122   0.129   5.292 -0.4705  0.2180  0.5140
15256TIP3    H167183   0.049   0.100   5.237  1.9027  0.9893 -3.1445
15256TIP3    H267184   0.108   0.223   5.304  0.6874  0.6584 -1.4502
15257TIP3   OH267185   1.198   4.776  15.937  0.0792  0.4548  0.3143
15257TIP3    H167186   1.231   4.691  15.966 -1.4404  0.4465  2.0888
15257TIP3    H267187   1.159   4.759  15.851 -0.0960 -0.6048  0.6008
15258TIP3   OH267188   1.791   4.851   3.407 -0.0092 -0.3493  0.0188
15258TIP3    H167189   1.718   4.889   3.360 -0.3274  0.7434  1.3687
15258TIP3    H267190   1.751   4.808   3.483  0.7157  0.1427  0.6919
15259TIP3   OH267191   4.304   3.610   0.955 -0.3212  0.6208  0.0085
15259TIP3    H167192   4.355   3.670   1.009 -1.0156  2.9101 -1.7670
15259TIP3    H267193   4.357   3.531   0.950  1.9895  2.1194  0.0799
15260TIP3   OH267194   6.223   0.385   5.145 -0.0473 -0.7865  0.3410
15260TIP3    H167195   6.211   0.480   5.153  1.7839 -0.5491  0.4410
15260TIP3    H267196   6.189   0.350   5.227 -3.2994 -0.4994 -0.8031
15261TIP3   OH267197   1.593   1.626   5.240 -0.1096 -0.1893 -0.1657
15261TIP3    H167198   1.563   1.602   5.152 -2.2013 -1.6255  0.8834
15261TIP3    H267199   1.551   1.710   5.258  1.2632  0.6921 -0.9600
15262TIP3   OH267200   0.243   3.014  13.328  0.1249 -0.0369  0.0098
15262TIP3    H167201   0.287   3.020  13.412 -0.2067  0.3009  0.1619
15262TIP3    H267202   0.155   3.047  13.345 -0.4571 -1.4706 -0.0925
15263TIP3   OH267203   3.511   1.998   5.463  0.1495 -0.0926 -0.1052
15263TIP3    H167204   3.454   2.017   5.389 -0.2251  2.3168  0.7584
15263TIP3    H267205   3.488   1.909   5.489 -0.4985 -0.5468 -2.1507
15264TIP3   OH267206   0.466   0.973  13.087 -0.3569 -0.4111  0.1347
15264TIP3    H167207   0.491   0.906  13.025  0.4287  0.6213 -0.6869
15264TIP3    H267208   0.529   0.965  13.159  1.7575  1.4988 -1.4411
15265TIP3   OH267209   5.953   5.063   2.063  0.2924  0.2174 -0.3822
15265TIP3    H167210   6.046   5.042   2.058  0.8185  1.9561  1.3534
15265TIP3    H267211   5.946   5.148   2.018 -0.6221 -0.3618 -1.3416
15266TIP3   OH267212   6.587   4.059   2.645  0.1293 -0.1432  0.2640
15266TIP3    H167213   6.504   4.054   2.692 -0.0669  1.3490  0.0999
15266TIP3    H267214   6.589   3.979   2.592 -0.4525 -0.9755  1.4751
15267TIP3   OH267215   1.774   3.369  13.888 -0.4917  0.0570  0.1414
15267TIP3    H167216   1.761   3.449  13.836 -1.1208 -0.0439  0.1392
15267TIP3    H267217   1.849   3.389  13.944  0.5983 -0.0606 -1.2461
15268TIP3   OH267218   1.650   6.502   2.479  0.3557 -0.4045 -0.6218
15268TIP3    H167219   1.734   6.494   2.525  0.3024 -2.7671 -0.8458
15268TIP3    H267220   1.667   6.562   2.407  2.0679 -1.4005 -1.0848
15269TIP3   OH267221   5.476   6.316  10.583 -0.3189  0.5397 -0.1783
15269TIP3    H167222   5.506   6.289  10.496  0.3473  0.7288 -0.0109
15269TIP3    H267223   5.554   6.312  10.638 -0.3843  1.9832  0.0405
15270TIP3   OH267224   2.676   2.340  13.521  0.1664  0.3314  0.2233
15270TIP3    H167225   2.717   2.319  13.437  1.2334 -1.0800  1.0604
15270TIP3    H267226   2.662   2.434  13.518  3.5023  0.8751 -0.1028
15271TIP3   OH267227   6.275   2.222  15.269  0.1064 -0.1799  0.2371
15271TIP3    H167228   6.272   2.270  15.352  1.3231 -1.0253  0.7968
15271TIP3    H267229   6.190   2.177  15.265  0.2801 -0.6387  1.3491
15272TIP3   OH267230   4.272   3.575  14.555 -0.5585  0.0333  0.0924
15272TIP3    H167231   4.254   3.496  14.605 -0.2728 -0.5256 -0.6875
15272TIP3    H267232   4.364   3.566  14.529 -0.6696  0.3867 -0.4198
15273TIP3   OH267233   1.885   1.342   4.545 -0.0786 -0.3885 -0.2700
15273TIP3    H167234   1.946   1.395   4.596  0.7878  0.1110 -1.8004
15273TIP3    H267235   1.940   1.278   4.501 -0.9313 -1.4581  0.1738
15274TIP3   OH267236   0.719   1.188  15.505  0.1261 -0.1149  0.5873
15274TIP3    H167237   0.794   1.216  15.558  0.0576  1.6688 -0.2217
15274TIP3    H267238   0.654   1.161  15.569  0.7437  0.2037  1.3618
15275TIP3   OH267239   1.000   0.196   6.632 -0.2157 -0.3438  0.4586
15275TIP3    H167240   1.014   0.290   6.621 -0.7067 -0.3633 -0.3944
15275TIP3    H267241   0.927   0.189   6.693  0.0925 -0.1812  0.8500
15276TIP3   OH267242   5.606   3.938  16.276 -0.2900 -0.1561 -0.4847
15276TIP3    H167243   5.538   3.879  16.309 -0.6719 -0.0204 -1.0293
15276TIP3    H267244   5.562   4.022  16.266 -0.0652 -0.0929 -0.9367
15277TIP3   OH267245   3.495   2.472   2.032  0.1214 -0.0674  0.4482
15277TIP3    H167246   3.504   2.378   2.020  1.2889  0.0856 -0.0113
15277TIP3    H267247   3.412   2.483   2.078 -0.2144 -1.2885  0.1517
15278TIP3   OH267248   3.042   2.941   1.531  0.4734  0.4751 -0.2925
15278TIP3    H167249   3.131   2.978   1.533 -0.2759  2.4257 -1.0893
15278TIP3    H267250   3.054   2.848   1.548  2.8757  0.3860 -2.1988
15279TIP3   OH267251   6.694   2.797  14.159 -0.4371 -0.1912 -0.3609
15279TIP3    H167252   6.611   2.770  14.198 -0.6600  0.0727 -0.6504
15279TIP3    H267253   6.708   2.735  14.087  0.0317 -0.7511  0.2020
15280TIP3   OH267254   2.918   4.745  12.451  0.8468 -0.0537 -0.0541
15280TIP3    H167255   2.878   4.739  12.365 -0.4636  1.6697  0.3943
15280TIP3    H267256   2.908   4.657  12.489  1.1298 -0.7199 -1.5110
15281TIP3   OH267257   2.338   4.995  12.992 -0.3803  0.1919 -0.0848
15281TIP3    H167258   2.407   5.054  13.021 -1.4979  1.1766  0.6186
15281TIP3    H267259   2.348   4.918  13.048  2.6814 -1.4225 -2.6957
15282TIP3   OH267260   0.051   1.003  16.024 -0.1980 -0.0692 -0.2196
15282TIP3    H167261   0.132   1.014  16.073 -0.5760 -1.2418  0.6916
15282TIP3    H267262  -0.001   1.081  16.046  0.4803  0.4430 -0.4248
15283TIP3   OH267263   5.605   4.003  10.884 -0.1795  0.3091  0.2763
15283TIP3    H167264   5.582   3.993  10.792 -0.3726  3.5764 -0.0859
15283TIP3    H267265   5.657   3.925  10.905  2.2043  0.8804 -3.3115
15284TIP3   OH267266   1.288   3.095  12.558 -0.3579 -0.2023  0.0698
15284TIP3    H167267   1.301   3.053  12.644  0.7148 -0.0794 -0.0331
15284TIP3    H267268   1.236   3.173  12.578 -0.1616 -0.2013  0.6001
15285TIP3   OH267269   3.282   6.255   0.462 -0.2900 -0.0696 -0.1254
15285TIP3    H167270   3.253   6.346   0.463  0.2003  0.0809  0.9704
15285TIP3    H267271   3.201   6.204   0.460 -0.5608  0.3814 -1.1376
15286TIP3   OH267272   4.243   5.214   4.330  0.2714  0.1440 -0.3952
15286TIP3    H167273   4.177   5.201   4.397  0.1987  0.5805 -0.3830
15286TIP3    H267274   4.280   5.301   4.347 -1.2224  1.1696 -2.1798
15287TIP3   OH267275   5.389   5.454   4.339 -0.2111 -0.2709 -0.2854
15287TIP3    H167276   5.375   5.431   4.431 -1.5931  1.9005  0.0990
15287TIP3    H267277   5.456   5.392   4.308  1.7298  0.1991  2.7331
15288TIP3   OH267278   3.935   2.657  11.506 -0.4671  0.6067  0.0986
15288TIP3    H167279   4.010   2.717  11.502 -1.4076  1.8014  0.1796
15288TIP3    H267280   3.919   2.634  11.415  0.0472  0.2814  0.0849
15289TIP3   OH267281   5.002   6.774  10.779 -0.0856 -0.4105 -0.5488
15289TIP3    H167282   5.081   6.816  10.743 -1.5940  1.6879 -1.5088
15289TIP3    H267283   4.995   6.808  10.868  0.3615 -0.9902 -0.2877
15290TIP3   OH267284   2.613   5.424  12.035 -0.6504  0.4567  0.2124
15290TIP3    H167285   2.636   5.493  11.973  0.1643  0.1131  0.1278
15290TIP3    H267286   2.523   5.400  12.012  0.3369 -1.1161 -2.1854
15291TIP3   OH267287   5.795   5.879   1.229  0.3861  0.6902  0.4055
15291TIP3    H167288   5.844   5.816   1.282 -0.5875 -1.1838 -0.8746
15291TIP3    H267289   5.723   5.908   1.285  0.4383  0.1336  0.7591
15292TIP3   OH267290   4.271   3.175   0.913  0.3182  0.3213 -0.4055
15292TIP3    H167291   4.299   3.083   0.905 -2.7696 -0.5431 -2.1231
15292TIP3    H267292   4.310   3.218   0.837  0.9911  0.2413 -0.1117
15293TIP3   OH267293   2.756   4.562  15.889  0.1572 -0.4204  0.3717
15293TIP3    H167294   2.827   4.625  15.904 -0.2197 -0.2745  1.5549
15293TIP3    H267295   2.713   4.594  15.809 -0.2043  1.0086  1.1149
15294TIP3   OH267296   4.514   0.789   2.185 -0.1238  0.1248  0.2180
15294TIP3    H167297   4.508   0.862   2.123  2.9003  0.2476 -0.0131
15294TIP3    H267298   4.507   0.711   2.130 -1.6916  0.2160  0.2645
15295TIP3   OH267299   0.160   1.312  12.430 -0.6899  0.0857 -0.0918
15295TIP3    H167300   0.204   1.229  12.448  1.4730  1.4203  0.9832
15295TIP3    H267301   0.142   1.349  12.516 -0.9860  1.0510 -0.5619
15296TIP3   OH267302   2.179   2.611   0.103 -0.4747  0.4663 -0.3155
15296TIP3    H167303   2.263   2.571   0.127 -0.5675  0.2821 -0.2953
15296TIP3    H267304   2.202   2.679   0.039 -0.4077 -0.2020 -1.0050
15297TIP3   OH267305   6.012   4.728  16.738  0.2676 -0.4086 -0.0921
15297TIP3    H167306   5.985   4.751  16.650  1.1975  1.6195  0.1303
15297TIP3    H267307   6.074   4.656  16.726 -0.1295 -0.6003 -1.0317
15298TIP3   OH267308   3.012   2.347   2.623  0.3056  0.0929  0.2239
15298TIP3    H167309   2.939   2.359   2.683 -0.2744  0.7938 -0.6143
15298TIP3    H267310   3.081   2.308   2.677 -0.1055  0.9659  1.4091
15299TIP3   OH267311   1.066   6.342   0.476  0.8221  0.3448  0.5285
15299TIP3    H167312   1.033   6.430   0.496 -0.8080 -0.5084  1.7341
15299TIP3    H267313   1.115   6.353   0.394 -0.5692  2.1110 -0.1091
15300TIP3   OH267314   3.183   3.333   5.128  0.3206  0.7280  0.5312
15300TIP3    H167315   3.212   3.407   5.075 -0.7882 -0.2712 -1.5540
15300TIP3    H267316   3.263   3.297   5.165  1.4510  0.0528 -2.4153
15301TIP3   OH267317   6.641   1.962  15.679 -0.1596 -0.0076 -0.3478
15301TIP3    H167318   6.658   2.053  15.655  0.0164 -0.1081 -0.6089
15301TIP3    H267319   6.712   1.939  15.739 -0.3370  0.1002 -0.0980
15302TIP3   OH267320   2.457   6.029  12.310 -0.2600 -0.0285  0.5959
15302TIP3    H167321   2.424   5.949  12.351 -2.0234  0.6293  0.4727
15302TIP3    H267322   2.485   6.000  12.223 -0.3854 -0.6037  0.7427
15303TIP3   OH267323   6.228   0.898  13.550 -0.1132  0.0657  0.2216
15303TIP3    H167324   6.234   0.828  13.485 -0.0615  0.0268  0.2676
15303TIP3    H267325   6.233   0.853  13.634 -2.1695 -0.0785  0.2780
15304TIP3   OH267326   4.545   4.089   1.387  0.1263 -0.3037 -0.7524
15304TIP3    H167327   4.458   4.121   1.410 -0.4047 -0.2600 -2.7130
15304TIP3    H267328   4.573   4.038   1.463 -2.5543 -2.2436 -1.0053
15305TIP3   OH267329   4.265   5.351  12.078  0.0995  0.2326 -0.2930
15305TIP3    H167330   4.234   5.261  12.070  0.9455 -0.1822  0.9360
15305TIP3    H267331   4.186   5.403  12.087 -0.3221 -0.6263  1.0660
15306TIP3   OH267332   1.377   1.134  14.723  0.5549 -0.1331 -0.1838
15306TIP3    H167333   1.405   1.124  14.814  0.2977  0.6148 -0.0206
15306TIP3    H267334   1.282   1.127  14.726  0.5744 -0.5562 -0.4615
15307TIP3   OH267335   3.486   6.563  14.831  0.0322 -0.0882  0.4056
15307TIP3    H167336   3.571   6.548  14.872  0.0329  1.6556  1.0728
15307TIP3    H267337   3.507   6.606  14.748 -0.0319 -2.6165 -0.9704
15308TIP3   OH267338   6.235   6.255  12.610 -0.6418  0.2319  0.0544
15308TIP3    H167339   6.279   6.240  12.526  0.1393 -0.3027  0.5516
15308TIP3    H267340   6.143   6.268  12.586 -0.7165 -1.5395 -0.7733
15309TIP3   OH267341   2.856   3.425   2.769  0.1166 -0.4419 -0.4010
15309TIP3    H167342   2.803   3.464   2.839 -1.5066  1.1942 -2.4596
15309TIP3    H267343   2.808   3.446   2.689  2.8617 -0.7194 -2.1644
15310TIP3   OH267344   6.317   2.765   1.910 -0.0953 -0.1197 -0.1157
15310TIP3    H167345   6.273   2.845   1.881 -0.2580 -0.3544 -0.5196
15310TIP3    H267346   6.405   2.795   1.935  0.3777 -0.0548 -1.7917
15311TIP3   OH267347   3.587   0.208   0.999 -0.4624  0.6662 -0.5112
15311TIP3    H167348   3.496   0.226   0.975 -0.8315 -0.2516  0.1417
15311TIP3    H267349   3.592   0.232   1.092 -0.5446 -1.0156 -0.0527
15312TIP3   OH267350   3.125   1.432  12.696  0.4492  0.0915 -0.3911
15312TIP3    H167351   3.154   1.356  12.647 -1.3732 -1.7070  1.2411
15312TIP3    H267352   3.201   1.457  12.749  1.0043 -0.6652 -0.8201
15313TIP3   OH267353   5.714   3.664   1.694 -0.2946  0.6895 -0.2149
15313TIP3    H167354   5.678   3.712   1.620 -1.3361  0.6444  0.2499
15313TIP3    H267355   5.790   3.715   1.722  0.6101  0.2575 -1.8391
15314TIP3   OH267356   4.565   2.980  15.697 -0.5078  0.2095  0.2562
15314TIP3    H167357   4.572   2.895  15.653  0.4141 -0.1855  1.1389
15314TIP3    H267358   4.624   2.973  15.772 -1.5873  1.0951  1.2047
15315TIP3   OH267359   5.013   4.324   2.256  0.1970 -0.0648  0.1205
15315TIP3    H167360   5.005   4.248   2.314  1.3528 -0.3558 -0.0911
15315TIP3    H267361   5.089   4.371   2.290 -0.7676  1.2374  0.5138
15316TIP3   OH267362   3.575   0.725  15.312  0.1377  0.0778 -0.8322
15316TIP3    H167363   3.512   0.653  15.304 -0.3610  0.4573 -0.3813
15316TIP3    H267364   3.621   0.726  15.228  0.0968 -0.7161 -0.8697
15317TIP3   OH267365   1.195   0.245   1.393  0.1527 -0.4269  0.4989
15317TIP3    H167366   1.198   0.328   1.439  0.5479  0.7823 -1.6322
15317TIP3    H267367   1.262   0.192   1.436 -0.2913  0.2393  2.0515
15318TIP3   OH267368   0.673   4.718  14.293 -0.1883 -0.1602  0.8719
15318TIP3    H167369   0.637   4.664  14.363 -0.5639  2.5910  2.8640
15318TIP3    H267370   0.597   4.763  14.256  0.3280  0.2876  0.3396
15319TIP3   OH267371   1.510   6.255  15.139  0.9139 -0.5363  0.1453
15319TIP3    H167372   1.457   6.198  15.084 -1.5780  1.7712  0.0830
15319TIP3    H267373   1.515   6.209  15.223 -1.8579 -0.4527  0.3939
15320TIP3   OH267374   1.443   2.943  16.396  0.2060 -0.3644  0.7929
15320TIP3    H167375   1.415   2.948  16.304 -1.8712  2.2155  1.5254
15320TIP3    H267376   1.366   2.908  16.442  1.0184 -1.0254  1.6543
15321TIP3   OH267377   4.071   4.838  14.363  0.0863  0.4032  0.1169
15321TIP3    H167378   4.123   4.911  14.328  0.6430  0.6470  1.4015
15321TIP3    H267379   4.104   4.761  14.317  0.0416  0.8638 -0.6864
15322TIP3   OH267380   0.675   5.233   5.345 -0.1170  0.5495  0.6643
15322TIP3    H167381   0.646   5.321   5.320 -0.5794  0.2555  0.1483
15322TIP3    H267382   0.595   5.191   5.378  0.0838  0.2960  0.8229
15323TIP3   OH267383   4.892   0.410   2.803 -0.0683  0.2546 -0.2926
15323TIP3    H167384   4.970   0.355   2.800 -1.1414 -1.4285  1.3599
15323TIP3    H267385   4.832   0.371   2.740  0.8350  2.2824 -2.4800
15324TIP3   OH267386   1.254   2.222  12.571  0.3004 -0.0881  0.1848
15324TIP3    H167387   1.251   2.243  12.664  2.2046 -0.0705  0.2691
15324TIP3    H267388   1.258   2.307  12.527 -0.8107 -0.0899  0.0598
15325TIP3   OH267389   2.477   3.783  14.790  0.0970  0.0096 -0.2549
15325TIP3    H167390   2.401   3.811  14.841  0.4961  0.0809  0.3051
15325TIP3    H267391   2.445   3.710  14.737 -0.7152  0.9187 -1.0407
15326TIP3   OH267392   5.137   2.020  12.991  0.5519 -0.0373 -0.6411
15326TIP3    H167393   5.184   2.095  12.954  2.2997 -2.0176 -2.6217
15326TIP3    H267394   5.130   2.040  13.084  1.5119  2.2986 -1.0165
15327TIP3   OH267395   4.678   5.988  16.243  0.0451  0.1310 -0.4017
15327TIP3    H167396   4.662   5.894  16.253 -3.0239  0.7067  0.8446
15327TIP3    H267397   4.704   6.017  16.330 -0.9762  0.7510 -0.2906
15328TIP3   OH267398   3.992   5.796   6.471  0.2597 -0.5760  0.4684
15328TIP3    H167399   4.049   5.790   6.395 -0.5709 -0.3934 -0.1748
15328TIP3    H267400   3.973   5.705   6.494  0.9534 -0.6380  0.7921
15329TIP3   OH267401   0.099   4.628   3.177 -0.0147  0.5376  0.2762
15329TIP3    H167402   0.183   4.650   3.138 -0.1169 -0.3863 -0.4826
15329TIP3    H267403   0.035   4.647   3.109 -0.4641  1.5144  0.9499
15330TIP3   OH267404   2.272   3.337  11.679  0.0288 -0.1226  0.1059
15330TIP3    H167405   2.262   3.276  11.752 -0.8853 -0.4904 -0.3308
15330TIP3    H267406   2.218   3.301  11.609  2.1353 -0.6196 -1.3021
15331TIP3   OH267407   3.169   0.542   1.649  0.5172  0.0816 -0.3392
15331TIP3    H167408   3.260   0.549   1.622  0.7553 -0.9971  0.1633
15331TIP3    H267409   3.148   0.628   1.687  1.2069  0.4434 -0.7686
15332TIP3   OH267410   4.664   6.402  15.699 -0.1285  0.6755 -0.2653
15332TIP3    H167411   4.682   6.495  15.681  1.2840  1.0967  3.0285
15332TIP3    H267412   4.599   6.404  15.769  1.0109 -0.7942  0.8598
15333TIP3   OH267413   2.325   0.879  13.556 -0.0187 -0.0820  0.4394
15333TIP3    H167414   2.310   0.969  13.586  1.7072  1.1276 -2.1715
15333TIP3    H267415   2.237   0.843  13.546 -0.7338  1.2219  1.7449
15334TIP3   OH267416   3.561   2.834  15.976  0.1056 -0.0737  0.2340
15334TIP3    H167417   3.472   2.867  15.969 -0.4955 -1.5937  0.6507
15334TIP3    H267418   3.592   2.827  15.886 -0.4104 -0.1283  0.0630
15335TIP3   OH267419   4.157   5.502   4.695 -0.0794 -0.5035 -0.6200
15335TIP3    H167420   4.158   5.412   4.661 -1.3661 -1.1671  1.0535
15335TIP3    H267421   4.122   5.494   4.783  1.7844  1.4040  0.3282
15336TIP3   OH267422   4.438   1.739  12.480 -0.0572 -0.7812 -0.3166
15336TIP3    H167423   4.427   1.833  12.470 -0.4935 -1.0194 -2.1537
15336TIP3    H267424   4.370   1.713  12.542 -0.5024 -0.0137 -0.4773
15337TIP3   OH267425   3.041   1.183   0.590 -0.3234 -0.1009 -0.5455
15337TIP3    H167426   3.086   1.152   0.511  0.2979 -0.7980  0.0588
15337TIP3    H267427   2.949   1.187   0.566 -0.1496 -0.4123 -1.2796
15338TIP3   OH267428   0.240   1.828   4.799 -0.3618  0.6021  0.3033
15338TIP3    H167429   0.150   1.857   4.788 -0.3903  0.7656  0.9201
15338TIP3    H267430   0.293   1.904   4.774 -0.4272  1.0065  1.3473
15339TIP3   OH267431   2.048   5.060   5.813 -0.2356 -0.1768 -0.0370
15339TIP3    H167432   2.072   5.059   5.906 -1.2441 -0.9678  0.2298
15339TIP3    H267433   2.081   5.144   5.781  1.8071 -0.7311  0.5696
15340TIP3   OH267434   4.371   5.972  14.874  0.0541  0.3665  0.1766
15340TIP3    H167435   4.374   5.933  14.961 -1.0057 -2.9415 -1.2117
15340TIP3    H267436   4.277   5.981  14.854  0.2499 -0.7897 -1.4006
15341TIP3   OH267437   5.151   6.305  10.963 -0.0521  0.4243  0.4040
15341TIP3    H167438   5.107   6.384  10.995 -0.4608  0.1789  0.4475
15341TIP3    H267439   5.147   6.244  11.036  1.4414  0.8270  0.8299
15342TIP3   OH267440   0.214   1.766  14.103  0.2397 -0.0268 -0.4558
15342TIP3    H167441   0.301   1.802  14.085 -0.2232  1.3153 -0.0703
15342TIP3    H267442   0.204   1.696  14.039  0.7578  1.1856 -1.8940
15343TIP3   OH267443   1.969   1.220   2.085  0.2795  0.6811  0.0698
15343TIP3    H167444   1.973   1.291   2.021 -0.8740  0.9371  0.2644
15343TIP3    H267445   1.882   1.181   2.071  1.5802 -1.8592 -1.2741
15344TIP3   OH267446   4.852   6.497  10.666  0.2159  0.2434 -0.8978
15344TIP3    H167447   4.804   6.528  10.743  1.4506  0.1875 -0.0908
15344TIP3    H267448   4.805   6.418  10.639 -0.7140  0.7254 -0.7025
15345TIP3   OH267449   1.628   2.014  14.847 -0.1194  0.3681  0.3924
15345TIP3    H167450   1.680   1.943  14.808  0.5921  0.5237  1.0409
15345TIP3    H267451   1.543   1.974  14.865 -0.9030  0.6192 -2.4796
15346TIP3   OH267452   5.325   2.512  12.848  0.3497  0.1128  0.1101
15346TIP3    H167453   5.336   2.502  12.753  0.4480  1.9334 -0.0753
15346TIP3    H267454   5.360   2.598  12.868 -0.1525 -0.0409  1.7350
15347TIP3   OH267455   0.526   6.288  16.362 -0.1677  0.1806  0.2571
15347TIP3    H167456   0.562   6.205  16.390 -0.5776  0.0241  0.3246
15347TIP3    H267457   0.447   6.265  16.313 -1.4929  0.6265  2.1371
15348TIP3   OH267458   5.171   2.123  13.311 -0.2650  0.1904 -0.0212
15348TIP3    H167459   5.254   2.079  13.292 -1.8771 -2.3930 -1.2754
15348TIP3    H267460   5.191   2.216  13.303  2.3758 -0.4180 -0.8923
15349TIP3   OH267461   4.789   6.527   6.550  0.4264 -0.0316 -0.0374
15349TIP3    H167462   4.816   6.443   6.586 -2.6346 -1.3810 -0.7655
15349TIP3    H267463   4.866   6.583   6.559  1.9553 -2.3918  2.0576
15350TIP3   OH267464   4.915   1.680   0.818 -0.4817  0.3211  0.6921
15350TIP3    H167465   4.960   1.717   0.894  0.1556 -0.1443  0.5340
15350TIP3    H267466   4.984   1.653   0.759 -0.9879  1.4884 -0.4488
15351TIP3   OH267467   4.187   3.077   5.614  0.3894 -0.0994  0.2852
15351TIP3    H167468   4.204   3.150   5.674 -0.7846  0.1260  0.3609
15351TIP3    H267469   4.238   3.004   5.649 -0.6289 -0.1056  1.8425
15352TIP3   OH267470   1.028   2.075   3.786  0.1193  0.5716  0.1792
15352TIP3    H167471   1.123   2.076   3.777  0.2928  0.7118  1.9165
15352TIP3    H267472   0.995   2.084   3.696  1.7334  0.3631 -0.4442
15353TIP3   OH267473   2.404   5.343   1.660 -0.0082  0.1619  0.1308
15353TIP3    H167474   2.453   5.325   1.741 -0.5520 -1.3145  0.1369
15353TIP3    H267475   2.315   5.361   1.690 -0.1169  0.0183 -0.1100
15354TIP3   OH267476   5.938   6.476  13.172  0.5085  0.8900  0.4231
15354TIP3    H167477   5.980   6.396  13.139  1.0502  1.8140 -1.1564
15354TIP3    H267478   5.975   6.488  13.259 -0.1283 -0.9827  0.9792
15355TIP3   OH267479   5.030   1.487   3.561 -0.3431  0.3000 -0.6657
15355TIP3    H167480   4.981   1.408   3.585 -0.6874  0.7972  0.2938
15355TIP3    H267481   5.007   1.551   3.628  1.0794  0.7626 -0.5932
15356TIP3   OH267482   2.569   1.490  13.050  0.2516 -0.1175 -0.4361
15356TIP3    H167483   2.506   1.562  13.056 -0.0418 -0.2599 -1.7191
15356TIP3    H267484   2.654   1.533  13.040  0.2211  0.0633  0.0735
15357TIP3   OH267485   3.122   6.372  15.481  0.0658 -0.3066  0.2927
15357TIP3    H167486   3.183   6.299  15.488 -0.6897 -1.0707 -0.7622
15357TIP3    H267487   3.131   6.402  15.390 -0.4040  0.1996  0.4087
15358TIP3   OH267488   1.266   3.730  11.270  0.0769  0.3287  0.4809
15358TIP3    H167489   1.208   3.681  11.212  2.8776 -0.9005 -1.4354
15358TIP3    H267490   1.271   3.817  11.231  0.0395  0.2267  0.2444
15359TIP3   OH267491   4.756   1.138   0.164  0.0697  0.4656 -0.2022
15359TIP3    H167492   4.808   1.125   0.085  2.3715  0.2020  1.3227
15359TIP3    H267493   4.697   1.062   0.166  1.2210 -0.4475 -0.7189
15360TIP3   OH267494   6.045   1.707  12.391  0.5270  0.0347  0.4664
15360TIP3    H167495   6.049   1.613  12.375 -1.9726 -0.1255  0.6144
15360TIP3    H267496   6.069   1.717  12.483  1.2137 -0.4047  0.3386
15361TIP3   OH267497   4.750   0.202   2.670  0.0549  0.3269 -0.3123
15361TIP3    H167498   4.669   0.250   2.655  0.1997  1.2193  1.6166
15361TIP3    H267499   4.732   0.147   2.747  0.6353 -0.9712 -1.0796
15362TIP3   OH267500   5.777   4.073   6.453 -0.1289 -0.9745  0.4445
15362TIP3    H167501   5.845   4.124   6.410  0.5533 -1.5118  0.8581
15362TIP3    H267502   5.825   4.000   6.494 -0.8428 -0.8665  1.4920
15363TIP3   OH267503   1.834   4.574   6.223 -0.4529  0.4779  0.3201
15363TIP3    H167504   1.796   4.507   6.166  3.4542  0.0287 -1.9310
15363TIP3    H267505   1.801   4.656   6.188 -0.4353  0.0460 -0.7306
15364TIP3   OH267506   4.006   5.793  11.990  0.2251  0.4617 -0.0336
15364TIP3    H167507   4.065   5.865  11.965 -3.5365  3.2119 -1.4708
15364TIP3    H267508   4.032   5.720  11.935  1.6458  1.9279 -1.3684
15365TIP3   OH267509   0.768   2.011   1.433  0.6444 -0.2307  0.0988
15365TIP3    H167510   0.768   1.922   1.397  2.8971  0.4348 -1.6558
15365TIP3    H267511   0.798   2.000   1.524  0.3872 -1.3092  0.0616
15366TIP3   OH267512   5.640   6.588   1.252  0.3003  0.3179 -0.0678
15366TIP3    H167513   5.640   6.669   1.303 -0.0199 -1.0520  2.1346
15366TIP3    H267514   5.560   6.543   1.277 -0.7117  0.3374 -3.0210
15367TIP3   OH267515   4.640   2.234   4.527  0.4148  0.3380 -0.4259
15367TIP3    H167516   4.700   2.182   4.580  0.9965 -0.6721 -2.0372
15367TIP3    H267517   4.691   2.311   4.501  0.9423 -0.3665 -1.5316
15368TIP3   OH267518   3.564   0.803  11.106  0.4478  0.2556 -0.5454
15368TIP3    H167519   3.591   0.882  11.060  0.0069 -0.1339 -1.4956
15368TIP3    H267520   3.636   0.783  11.165 -0.5957  2.8881  1.7105
15369TIP3   OH267521   0.336   3.672  12.769  0.2864 -0.3415  0.0299
15369TIP3    H167522   0.420   3.680  12.724  0.0662  0.6228 -0.2156
15369TIP3    H267523   0.331   3.749  12.826  0.1798 -1.1052  1.0816
15370TIP3   OH267524   2.902   0.917  12.696 -0.0952  0.5333 -0.2194
15370TIP3    H167525   2.892   0.945  12.787  0.6077  0.9967 -0.2882
15370TIP3    H267526   2.812   0.896  12.669 -0.3497  0.6694  0.4859
15371TIP3   OH267527   1.154   0.831  14.835  0.4478 -0.2907  0.8418
15371TIP3    H167528   1.211   0.827  14.912 -0.9223  1.9271  2.0386
15371TIP3    H267529   1.080   0.774  14.857 -1.5174  2.7770  2.6234
15372TIP3   OH267530   5.366   6.552   5.360 -0.1324  0.3478  0.0238
15372TIP3    H167531   5.315   6.626   5.392  2.6808  2.6466 -0.6817
15372TIP3    H267532   5.423   6.528   5.432  0.0469 -0.1730 -0.2842
15373TIP3   OH267533   4.343   3.017  16.121 -0.2988  0.4254  0.3130
15373TIP3    H167534   4.290   3.054  16.192 -0.5596 -2.4653  1.7274
15373TIP3    H267535   4.297   2.937  16.096  1.9998 -0.7718 -0.2554
15374TIP3   OH267536   3.600   5.367   0.035 -0.1250  0.3106 -0.1405
15374TIP3    H167537   3.583   5.361  -0.059  2.9222  0.9191 -0.7697
15374TIP3    H267538   3.554   5.447   0.062  0.6653  1.2601 -1.5392
15375TIP3   OH267539   4.617   4.176   0.040  0.1722 -0.1521  0.2831
15375TIP3    H167540   4.590   4.263   0.069  0.6121  0.0998 -0.0601
15375TIP3    H267541   4.702   4.189  -0.002  0.4540 -0.8240  0.6413
15376TIP3   OH267542   0.210   5.925   3.107  0.4026  0.8218 -0.4709
15376TIP3    H167543   0.123   5.929   3.068  1.2053  0.2798 -2.3807
15376TIP3    H267544   0.261   5.870   3.048  2.5018  2.4875 -0.3050
15377TIP3   OH267545   0.681   5.601  16.893  0.2150 -0.5207 -0.4636
15377TIP3    H167546   0.680   5.532  16.960 -0.7558 -0.5887 -0.5385
15377TIP3    H267547   0.720   5.559  16.817  1.4602 -0.4029  0.0911
15378TIP3   OH267548   4.839   0.884  14.151 -0.8847  0.3296 -0.2820
15378TIP3    H167549   4.883   0.959  14.111 -1.2384  1.1681  0.8766
15378TIP3    H267550   4.797   0.919  14.229  0.5896 -1.4484  1.3693
15379TIP3   OH267551   2.845   0.830   0.132  0.3446  0.5231 -0.3984
15379TIP3    H167552   2.897   0.778   0.193 -0.8089 -0.8937 -0.6168
15379TIP3    H267553   2.896   0.830   0.051  1.3425  1.4850  0.2083
15380TIP3   OH267554   2.954   1.786   1.286  0.2936 -0.6365 -0.3372
15380TIP3    H167555   2.927   1.697   1.306 -0.2847 -0.3855  0.0158
15380TIP3    H267556   3.010   1.812   1.360 -0.8924 -0.1221  0.3894
15381TIP3   OH267557   3.027   6.231   2.306 -0.0319 -0.4643 -0.0858
15381TIP3    H167558   2.967   6.258   2.237  1.1093 -0.3998 -1.0781
15381TIP3    H267559   3.096   6.182   2.260 -0.2556 -2.0708  1.2486
15382TIP3   OH267560   2.877   3.052  11.984  0.0786  0.0665  0.5971
15382TIP3    H167561   2.887   3.084  11.894  2.7469  1.1312  1.2330
15382TIP3    H267562   2.955   3.083  12.029 -0.2237 -2.2328  2.7888
15383TIP3   OH267563   1.151   1.672   1.199 -0.5497 -0.1372  0.0714
15383TIP3    H167564   1.191   1.758   1.212  0.9557 -0.9411  0.9357
15383TIP3    H267565   1.107   1.653   1.282  0.4080 -0.8453  0.4264
15384TIP3   OH267566   1.736   2.889   0.025 -0.1438  0.5958 -0.3591
15384TIP3    H167567   1.658   2.881   0.081  0.1822  0.4020  0.0760
15384TIP3    H267568   1.704   2.928  -0.056 -1.0437 -1.2179 -0.9050
15385TIP3   OH267569   1.180   5.730  11.327 -0.1913 -0.0555  0.2760
15385TIP3    H167570   1.131   5.810  11.346  1.4440  0.2587  3.4139
15385TIP3    H267571   1.198   5.736  11.233  0.4630  3.6058  0.5541
15386TIP3   OH267572   3.744   2.860   0.414  0.4721 -0.3103  0.5112
15386TIP3    H167573   3.649   2.846   0.416  0.5745 -1.0072  3.1501
15386TIP3    H267574   3.754   2.955   0.413 -0.2442 -0.2341 -0.1617
15387TIP3   OH267575   1.397   1.604  11.634  0.4238 -0.3877 -0.3812
15387TIP3    H167576   1.473   1.575  11.683 -0.3408 -1.1738  0.3571
15387TIP3    H267577   1.363   1.678  11.684  0.6430 -0.1004 -0.6544
15388TIP3   OH267578   2.598   0.866  12.706  0.1107 -0.1991  0.3203
15388TIP3    H167579   2.538   0.924  12.754  0.2069  0.2027 -0.0441
15388TIP3    H267580   2.589   0.781  12.750  0.3142  0.2043  1.1458
15389TIP3   OH267581   6.700   6.300   1.157  0.1406 -0.5010 -0.4163
15389TIP3    H167582   6.761   6.291   1.084 -0.0967 -0.0262 -0.6726
15389TIP3    H267583   6.753   6.334   1.229 -0.3028  2.2620 -1.3333
15390TIP3   OH267584   1.859   5.354   0.454 -0.3502 -0.1810 -0.3815
15390TIP3    H167585   1.843   5.445   0.480 -1.6023  0.2007 -2.4017
15390TIP3    H267586   1.931   5.359   0.391 -0.8276 -0.5329 -0.9531
15391TIP3   OH267587   6.546   5.178   3.149 -0.4990 -0.4607  0.5376
15391TIP3    H167588   6.567   5.099   3.098  2.9744  0.0561  1.0464
15391TIP3    H267589   6.480   5.223   3.096  1.2198 -1.1618 -2.3359
15392TIP3   OH267590   1.421   2.798   4.153 -0.0389  0.0547 -0.2158
15392TIP3    H167591   1.457   2.848   4.081 -3.1655  0.9422 -1.2447
15392TIP3    H267592   1.399   2.712   4.115  0.9720 -0.4886  0.4015
15393TIP3   OH267593   5.968   3.442   6.274 -0.1402 -0.1140  0.0882
15393TIP3    H167594   5.902   3.505   6.244 -1.3490 -1.3075  0.2191
15393TIP3    H267595   5.943   3.421   6.364  0.1808 -0.8696  0.0093
15394TIP3   OH267596   4.165   1.380   0.625 -0.4413 -0.4015  0.3521
15394TIP3    H167597   4.080   1.409   0.658  0.1903  2.8475 -0.6681
15394TIP3    H267598   4.153   1.374   0.530 -0.1560 -2.2173  0.4236
15395TIP3   OH267599   3.335   2.274   2.510  0.5956 -0.3156 -0.7387
15395TIP3    H167600   3.277   2.227   2.570  0.1614  0.8394 -0.2421
15395TIP3    H267601   3.418   2.281   2.558  1.5069 -2.7994 -1.8117
15396TIP3   OH267602   4.028   6.616  14.918  0.4325 -0.1383  0.0956
15396TIP3    H167603   4.031   6.599  15.012 -0.3169 -2.9007 -0.3158
15396TIP3    H267604   4.096   6.681  14.903 -0.0941  1.1121  2.6650
15397TIP3   OH267605   6.413   6.297  14.241 -0.0225 -0.3373 -0.0167
15397TIP3    H167606   6.377   6.210  14.255  1.7957 -1.3658 -1.4214
15397TIP3    H267607   6.379   6.323  14.155 -0.9713  0.5778  0.6195
15398TIP3   OH267608   4.884   4.280   1.005  0.8165  0.1364 -0.6317
15398TIP3    H167609   4.926   4.195   0.995  1.2042  0.2656 -0.1593
15398TIP3    H267610   4.799   4.271   0.962  1.2442 -0.1937 -1.4259
15399TIP3   OH267611   4.385   2.651  15.345  0.2533 -0.1960  0.0965
15399TIP3    H167612   4.376   2.561  15.377 -0.4518 -0.2054 -0.1296
15399TIP3    H267613   4.478   2.670  15.355  0.3653 -0.8663  0.3784
15400TIP3   OH267614   1.963   4.319  12.587  0.1778  0.4321  0.5442
15400TIP3    H167615   1.936   4.333  12.497  1.6471 -0.1031  0.0005
15400TIP3    H267616   1.888   4.278  12.629 -0.3609  0.2878 -0.5517
15401TIP3   OH267617   5.085   5.603   0.505 -0.0130  0.3639 -0.2881
15401TIP3    H167618   5.098   5.603   0.600  0.9956  0.4900 -0.4250
15401TIP3    H267619   5.135   5.678   0.473 -0.3470  0.3229 -0.9271
15402TIP3   OH267620   0.226   2.231   3.532 -0.5186 -0.0134  0.7463
15402TIP3    H167621   0.269   2.316   3.529 -0.4774 -0.0071  1.3642
15402TIP3    H267622   0.184   2.229   3.618 -1.7045 -0.0441  0.1770
15403TIP3   OH267623   1.218   0.620  12.200  0.1052 -0.4763 -0.2286
15403TIP3    H167624   1.224   0.673  12.121 -0.2245 -0.3940 -0.1972
15403TIP3    H267625   1.262   0.672  12.267 -1.9893  0.6702  0.2808
15404TIP3   OH267626   5.824   6.629   4.769  0.4078  0.2366  0.1007
15404TIP3    H167627   5.760   6.679   4.718 -0.0460  1.2599  1.6152
15404TIP3    H267628   5.775   6.598   4.845  0.9717 -1.6169 -0.2763
15405TIP3   OH267629   2.608   1.365   3.206 -0.1171 -0.5374  0.3807
15405TIP3    H167630   2.623   1.290   3.149 -0.3877 -0.6374  0.4375
15405TIP3    H267631   2.557   1.426   3.153 -1.0763 -0.9789  0.7718
15406TIP3   OH267632   5.417   3.666  16.336 -0.2321 -0.3635  0.0012
15406TIP3    H167633   5.352   3.729  16.367  0.3577  0.4188 -0.3405
15406TIP3    H267634   5.366   3.588  16.313 -0.9148 -0.1600  0.8237
15407TIP3   OH267635   4.310   6.126   1.369 -0.1950 -0.2825  0.5370
15407TIP3    H167636   4.337   6.079   1.448  2.8041 -1.1826 -0.9427
15407TIP3    H267637   4.251   6.195   1.401 -1.8070 -2.7409  3.1558
15408TIP3   OH267638   1.091   0.594   0.348 -0.2475 -0.2693 -0.2774
15408TIP3    H167639   1.068   0.681   0.315  0.8438  0.3019  0.4486
15408TIP3    H267640   1.022   0.536   0.313 -0.3781  0.6943 -1.6639
15409TIP3   OH267641   4.541   0.542  12.548 -0.0511  0.2068  0.4183
15409TIP3    H167642   4.622   0.521  12.502 -0.1164 -0.3879  0.5686
15409TIP3    H267643   4.477   0.481  12.513 -0.0457 -0.4073  1.4546
15410TIP3   OH267644   1.344   1.174  15.668  0.7336 -0.3129 -0.1722
15410TIP3    H167645   1.389   1.259  15.667  1.4028 -0.6730 -0.7312
15410TIP3    H267646   1.414   1.110  15.655  0.5387 -1.0987  2.4387
15411TIP3   OH267647   0.762   1.404   4.489  0.2791  0.1355  0.0596
15411TIP3    H167648   0.844   1.404   4.538  0.4039  0.3839 -0.1425
15411TIP3    H267649   0.762   1.489   4.444 -0.6450  0.6252  0.9755
15412TIP3   OH267650   4.807   4.612   5.522  0.1250 -0.0057 -0.5894
15412TIP3    H167651   4.839   4.523   5.509 -0.6199 -0.5424  1.1377
15412TIP3    H267652   4.711   4.604   5.520  0.0445  0.5686  0.7233
15413TIP3   OH267653   4.673   0.844  12.611 -0.1909 -0.4985 -0.3699
15413TIP3    H167654   4.587   0.822  12.647 -0.8417  0.0191 -1.5942
15413TIP3    H267655   4.729   0.769  12.635 -0.1883  0.4906  3.0264
15414TIP3   OH267656   6.480   0.961  15.608 -0.5557 -0.0461  0.1298
15414TIP3    H167657   6.537   0.889  15.635  0.3493  0.6736  0.1588
15414TIP3    H267658   6.392   0.931  15.630 -0.3925 -1.9985 -1.7806
15415TIP3   OH267659   2.700   0.075  14.745 -1.2360  0.1305 -0.2665
15415TIP3    H167660   2.717   0.130  14.822 -0.0390  1.3936 -1.4231
15415TIP3    H267661   2.683  -0.012  14.782  2.1278  0.0444  1.3505
15416TIP3   OH267662   1.009   1.389  14.371 -0.1851  0.8437 -0.1601
15416TIP3    H167663   1.015   1.304  14.328  1.0734  2.4297 -3.2710
15416TIP3    H267664   1.071   1.384  14.444 -0.2730 -0.9382 -0.1914
15417TIP3   OH267665   5.971   4.702   2.429  0.6886 -0.1650  0.4700
15417TIP3    H167666   6.010   4.616   2.417  1.5410  0.0913  1.3643
15417TIP3    H267667   5.976   4.718   2.523 -0.4968  0.3755  0.4545
15418TIP3   OH267668   3.388   0.603  13.959 -0.0407  0.5054 -0.2220
15418TIP3    H167669   3.481   0.594  13.937 -0.2436  1.5784 -1.6224
15418TIP3    H267670   3.353   0.514  13.951  0.4217  0.4477 -1.8475
15419TIP3   OH267671   2.556   3.210  15.378 -0.2718 -0.3730  0.0049
15419TIP3    H167672   2.603   3.293  15.374  0.0270 -0.5375  0.0976
15419TIP3    H267673   2.550   3.182  15.287  0.1209 -0.5281  0.0278
15420TIP3   OH267674   5.627   3.151  15.263 -1.1465  0.9189 -0.2793
15420TIP3    H167675   5.698   3.093  15.291 -1.2052  1.6895  1.5768
15420TIP3    H267676   5.670   3.223  15.218 -0.8683  0.6524 -0.4360
15421TIP3   OH267677   0.740   6.756  16.206 -0.2731 -0.0698 -0.1232
15421TIP3    H167678   0.775   6.695  16.270 -1.5956 -2.0146 -1.2138
15421TIP3    H267679   0.818   6.797  16.168  0.5607  0.0979  1.7163
15422TIP3   OH267680   2.935   1.406  15.362  0.2904 -0.3777 -0.4839
15422TIP3    H167681   3.007   1.469  15.368  2.3711 -2.7911  1.4744
15422TIP3    H267682   2.976   1.328  15.325 -1.9944 -0.9295 -1.9275
15423TIP3   OH267683   1.286   3.540   1.966 -0.1262 -0.2995 -0.2051
15423TIP3    H167684   1.287   3.462   2.021  1.0635 -0.1893 -0.0524
15423TIP3    H267685   1.289   3.613   2.027  0.1878 -0.1625 -0.3806
15424TIP3   OH267686   1.078   5.487  10.807  0.4195 -0.1137  0.3698
15424TIP3    H167687   1.108   5.432  10.734 -1.8098 -2.4875  1.1589
15424TIP3    H267688   1.002   5.533  10.771  0.7579  0.5191  0.4714
15425TIP3   OH267689   1.658   4.449   2.022 -0.5226  0.0393  0.2910
15425TIP3    H167690   1.664   4.519   1.958 -0.7248  0.7025  0.9889
15425TIP3    H267691   1.706   4.483   2.098  0.1446 -0.9332  0.3146
15426TIP3   OH267692   5.882   2.934  13.997  0.1088 -0.1465 -0.2392
15426TIP3    H167693   5.797   2.973  13.980 -1.6711 -4.5637 -2.2912
15426TIP3    H267694   5.925   2.931  13.912  0.7020 -1.4092  0.0854
15427TIP3   OH267695   3.075   5.829   5.495  0.1915 -0.0855  0.4994
15427TIP3    H167696   2.981   5.827   5.480  0.1752  1.2921  0.3522
15427TIP3    H267697   3.084   5.831   5.591  0.1407 -2.3766  0.5818
15428TIP3   OH267698   1.152   0.909   0.657  0.1619 -0.3423 -0.2843
15428TIP3    H167699   1.066   0.935   0.690  0.0453  1.6220 -1.9885
15428TIP3    H267700   1.137   0.822   0.619 -1.1800  0.1198 -0.8751
15429TIP3   OH267701   4.719   1.867  11.052  0.0613 -0.2949 -0.2956
15429TIP3    H167702   4.769   1.949  11.046  0.1351 -0.4801 -2.4880
15429TIP3    H267703   4.780   1.804  11.090 -0.1354  0.7650  1.8234
15430TIP3   OH267704   1.667   6.165   2.476  0.1657 -0.0781 -0.1427
15430TIP3    H167705   1.656   6.188   2.568  1.5024 -0.2672  0.0894
15430TIP3    H267706   1.579   6.146   2.445 -0.0312 -2.8686  1.8829
15431TIP3   OH267707   4.915   5.464   5.420 -0.5818 -0.2845  0.4120
15431TIP3    H167708   4.836   5.461   5.366 -0.0924  2.3922 -0.5190
15431TIP3    H267709   4.943   5.373   5.426 -3.9261 -1.3380  1.0635
15432TIP3   OH267710   1.701   6.582   0.456  0.0812 -0.0693 -0.2568
15432TIP3    H167711   1.662   6.502   0.422 -1.3595  0.2136  0.6683
15432TIP3    H267712   1.705   6.569   0.551  0.5307  0.6523 -0.1681
15433TIP3   OH267713   5.791   0.635   2.236  0.3092 -0.2512  0.0286
15433TIP3    H167714   5.763   0.725   2.250  1.0063 -0.2703  1.6131
15433TIP3    H267715   5.789   0.594   2.323  0.7557 -1.5421 -0.5462
15434TIP3   OH267716   2.548   1.861   2.648  0.5182  0.2262  0.1373
15434TIP3    H167717   2.594   1.912   2.715  0.7829 -0.5694  0.5800
15434TIP3    H267718   2.608   1.789   2.629 -0.6819 -1.0122  0.9600
15435TIP3   OH267719   0.859   3.127   1.549 -0.2101 -0.3406 -0.1827
15435TIP3    H167720   0.829   3.084   1.469 -0.2611  1.9352 -1.4412
15435TIP3    H267721   0.778   3.148   1.597 -0.4141  1.5344 -1.2998
15436TIP3   OH267722   5.419   6.022  13.265 -0.3720  0.2624  0.1188
15436TIP3    H167723   5.342   5.995  13.214 -1.3134  0.2379  1.5225
15436TIP3    H267724   5.479   5.948  13.259 -1.3457 -0.5885  0.7590
15437TIP3   OH267725   0.385   2.120  17.133 -0.0519 -0.1691  0.0674
15437TIP3    H167726   0.441   2.159  17.065 -2.1864 -0.3292 -1.8382
15437TIP3    H267727   0.367   2.192  17.193  2.8666 -0.3216  1.2107
15438TIP3   OH267728   0.235   4.936   4.807 -0.2132  0.1835 -0.3356
15438TIP3    H167729   0.290   4.915   4.731 -0.5062  0.0111 -0.5029
15438TIP3    H267730   0.155   4.971   4.769 -0.9714 -1.3288 -0.1591
15439TIP3   OH267731   4.729   2.139   0.186 -0.9433 -0.3458 -0.0588
15439TIP3    H167732   4.772   2.132   0.101 -0.2202 -0.4843  0.3171
15439TIP3    H267733   4.674   2.217   0.178 -0.0076  0.3059 -0.2723
15440TIP3   OH267734   1.774   0.119  14.495 -0.1379  0.1254 -0.5099
15440TIP3    H167735   1.771   0.138  14.589 -0.0932  2.9535 -1.0143
15440TIP3    H267736   1.868   0.114  14.475 -0.1316  0.1669 -0.4917
15441TIP3   OH267737   2.740   6.444  17.230  0.2170  0.7122  0.4255
15441TIP3    H167738   2.765   6.389  17.156 -2.7039  2.1530 -1.6914
15441TIP3    H267739   2.701   6.522  17.191 -4.5635  0.0216  3.4169
15442TIP3   OH267740   0.771   5.521   0.094  0.2060  0.1504  0.1006
15442TIP3    H167741   0.827   5.446   0.077 -0.3812 -0.0496 -0.9634
15442TIP3    H267742   0.773   5.572   0.013 -0.7115  0.4260  0.2491
15443TIP3   OH267743   3.121   3.917  16.314 -0.6545  0.3895 -0.5382
15443TIP3    H167744   3.159   3.964  16.240  0.7176 -0.8460 -0.6482
15443TIP3    H267745   3.075   3.842  16.274 -0.5642  0.1480 -0.1916
15444TIP3   OH267746   6.114   6.564  14.460  0.6056  0.1293 -0.0728
15444TIP3    H167747   6.120   6.660  14.455  2.1894  0.0316 -0.0888
15444TIP3    H267748   6.204   6.533  14.450  0.1779 -1.3412  0.4733
15445TIP3   OH267749   1.703   4.381  14.210  0.1731  0.5533 -0.2049
15445TIP3    H167750   1.672   4.321  14.143  0.0759  0.0291  0.3063
15445TIP3    H267751   1.675   4.342  14.293 -0.1645  1.4589  0.1174
15446TIP3   OH267752   1.156   2.461  12.427  0.6016  0.4829  0.5071
15446TIP3    H167753   1.121   2.481  12.514 -1.2854  0.0205 -0.1089
15446TIP3    H267754   1.159   2.546  12.382 -0.3945  0.4444  0.3509
15447TIP3   OH267755   6.222   2.287  12.821  0.3464 -0.3615 -0.0629
15447TIP3    H167756   6.227   2.199  12.784  0.9234  0.0431 -0.9618
15447TIP3    H267757   6.129   2.302  12.835 -0.0014 -0.0877 -2.4468
15448TIP3   OH267758   0.839   1.178   5.949  0.1727  0.0819  0.1468
15448TIP3    H167759   0.752   1.217   5.944  0.8945  1.6597 -0.5408
15448TIP3    H267760   0.852   1.137   5.863  0.2413  0.1389  0.1299
15449TIP3   OH267761   2.213   6.225   1.480  0.1101  0.6525 -0.1751
15449TIP3    H167762   2.290   6.243   1.427  1.6027 -1.0510  1.3553
15449TIP3    H267763   2.216   6.130   1.496 -2.0306  0.6227  0.3139
15450TIP3   OH267764   6.153   1.037  13.177  0.1697  0.1652 -0.4244
15450TIP3    H167765   6.218   1.021  13.246  0.0726  1.2897 -0.0645
15450TIP3    H267766   6.101   0.957  13.175  0.3112  0.0365  0.6660
15451TIP3   OH267767   0.016   0.988   5.219 -0.4603 -0.3691  0.1086
15451TIP3    H167768   0.064   0.909   5.192 -0.9473 -1.3354  2.0543
15451TIP3    H267769   0.044   1.005   5.309 -1.2964  0.9778  0.1411
15452TIP3   OH267770   3.628   3.893   2.946 -0.0528  0.0241 -1.0139
15452TIP3    H167771   3.689   3.964   2.924  3.5440 -1.6763  2.7432
15452TIP3    H267772   3.582   3.925   3.024 -0.7614 -0.4578 -1.2369
15453TIP3   OH267773   3.044   5.228   5.602 -0.2071  0.1908 -0.6822
15453TIP3    H167774   2.950   5.229   5.618 -0.0078  1.1512  0.4521
15453TIP3    H267775   3.082   5.191   5.682  0.2581 -2.1032 -1.9054
15454TIP3   OH267776   5.336   3.551   1.016 -0.0684 -0.3689  0.2262
15454TIP3    H167777   5.334   3.525   0.924  0.3186  1.7934 -0.4142
15454TIP3    H267778   5.349   3.646   1.015 -0.0577 -0.2986  2.5136
15455TIP3   OH267779   0.738   0.211  11.092 -0.1750  0.5852 -0.9240
15455TIP3    H167780   0.820   0.162  11.097  0.8315  2.0904 -2.1193
15455TIP3    H267781   0.714   0.208  10.999 -1.0724  0.7682 -0.6969
15456TIP3   OH267782   3.446   3.877  14.552 -0.3492 -0.5382 -0.1184
15456TIP3    H167783   3.492   3.913  14.476 -0.5031  1.9472  0.9271
15456TIP3    H267784   3.472   3.785  14.554 -0.4450 -0.6859 -3.2363
15457TIP3   OH267785   4.179   3.862  15.762 -0.3398 -0.1816 -0.0757
15457TIP3    H167786   4.267   3.865  15.726  0.4123 -1.0008  1.6260
15457TIP3    H267787   4.155   3.769  15.760 -1.3752  0.1011 -1.0264
15458TIP3   OH267788   0.296   2.053   3.323 -0.1797  0.5996 -0.0737
15458TIP3    H167789   0.264   2.083   3.408 -0.4067 -0.5792  0.2616
15458TIP3    H267790   0.374   2.108   3.306  1.4699 -0.9843  2.1568
15459TIP3   OH267791   6.333   0.463   2.897  0.2659 -0.2441  0.8158
15459TIP3    H167792   6.415   0.460   2.848 -0.1099  1.8589 -0.0361
15459TIP3    H267793   6.292   0.379   2.880 -0.5901  0.9714 -3.9204
15460TIP3   OH267794   2.069   3.301  16.015  0.4670  0.9813  0.2274
15460TIP3    H167795   2.087   3.306  16.109 -1.4004 -2.7563  0.8895
15460TIP3    H267796   1.975   3.315  16.008 -0.0512 -2.3574 -0.5852
15461TIP3   OH267797   4.182   0.020  11.729  0.0693 -0.1222  0.2831
15461TIP3    H167798   4.183  -0.048  11.795  0.9801 -0.3624  0.0229
15461TIP3    H267799   4.123   0.087  11.765  0.1672 -0.4709  1.0986
15462TIP3   OH267800   5.006   3.386  12.344  0.1463 -0.1665  0.4669
15462TIP3    H167801   5.023   3.418  12.256 -1.4639 -0.7068 -0.0562
15462TIP3    H267802   4.919   3.422  12.366 -0.7917 -2.4714  0.6445
15463TIP3   OH267803   6.750   4.898  14.547 -0.4943  0.1982  0.4748
15463TIP3    H167804   6.751   4.806  14.573  0.1224  0.1448  0.2769
15463TIP3    H267805   6.823   4.906  14.485 -0.1926  0.9387  0.9186
15464TIP3   OH267806   4.738   5.739  15.349 -0.4801  0.4399 -0.2816
15464TIP3    H167807   4.731   5.803  15.278 -0.6835 -1.8546 -2.3925
15464TIP3    H267808   4.813   5.685  15.325  0.1218  0.3029  1.8335
15465TIP3   OH267809   6.145   5.552  15.555  0.6615  0.7108  0.1255
15465TIP3    H167810   6.129   5.500  15.633 -1.1334 -1.4011 -1.5865
15465TIP3    H267811   6.185   5.490  15.493 -0.5225  1.6113 -1.5765
15466TIP3   OH267812   0.582   3.889  17.144  0.1551  0.0588 -0.3974
15466TIP3    H167813   0.501   3.930  17.113  1.0142  1.7270 -0.4752
15466TIP3    H267814   0.553   3.829  17.214 -1.1230  0.7692 -0.3062
15467TIP3   OH267815   3.774   2.811   4.206 -0.8556  0.1095 -0.2908
15467TIP3    H167816   3.796   2.787   4.296 -0.2370  1.4305 -0.0720
15467TIP3    H267817   3.852   2.787   4.155 -0.5829  0.8206 -0.2132
15468TIP3   OH267818   5.775   2.394   2.966 -0.3627 -0.6943 -0.6331
15468TIP3    H167819   5.791   2.301   2.982 -0.0700 -0.9352 -2.2284
15468TIP3    H267820   5.769   2.401   2.871  2.4646  1.3544 -0.7408
15469TIP3   OH267821   2.480   3.105   3.707 -0.0162 -0.0738 -0.4639
15469TIP3    H167822   2.448   3.069   3.790  0.2551  0.6523 -0.0428
15469TIP3    H267823   2.507   3.028   3.657 -3.0374 -0.7717 -1.1181
15470TIP3   OH267824   6.375   1.249   1.283  0.2329 -0.0829  0.0731
15470TIP3    H167825   6.367   1.154   1.289 -1.2444 -0.0932 -1.6050
15470TIP3    H267826   6.382   1.266   1.189  0.0553  1.4893  0.3349
15471TIP3   OH267827   0.822   1.088  11.177 -0.2916  0.1466 -0.1953
15471TIP3    H167828   0.788   1.122  11.259 -0.7719  0.8706 -0.6919
15471TIP3    H267829   0.842   1.165  11.124  2.1689 -0.2551  0.0834
15472TIP3   OH267830   3.095   3.819  17.079 -0.4102 -0.5108  0.6383
15472TIP3    H167831   3.011   3.784  17.051 -1.0596  1.5468 -0.0716
15472TIP3    H267832   3.160   3.763  17.036 -1.4139 -1.1732 -0.0244
15473TIP3   OH267833   1.671   3.575   2.073 -0.2185  0.1584  0.4395
15473TIP3    H167834   1.605   3.572   2.142 -0.8680  0.4149 -0.1687
15473TIP3    H267835   1.621   3.572   1.992  0.5230  0.2927 -0.0268
15474TIP3   OH267836   4.880   1.850   2.977 -0.4108 -0.1933  0.1713
15474TIP3    H167837   4.814   1.781   2.979 -0.1005 -0.5313 -0.7638
15474TIP3    H267838   4.852   1.908   2.907  0.2517 -0.3152 -0.2033
15475TIP3   OH267839   2.864   5.356   6.400  1.0095  0.0808  0.6838
15475TIP3    H167840   2.811   5.370   6.322 -0.0991  0.7609  1.5489
15475TIP3    H267841   2.923   5.432   6.404  0.2390  0.6626  1.1610
15476TIP3   OH267842   1.890   1.774  14.446 -0.2336  0.0143  0.2356
15476TIP3    H167843   1.890   1.758  14.351  1.7435  1.8825 -0.1131
15476TIP3    H267844   1.920   1.692  14.484 -1.8449 -1.0349 -0.6678
15477TIP3   OH267845   4.655   0.454  12.169  0.1146  0.0385  0.3550
15477TIP3    H167846   4.636   0.543  12.139 -0.4033  0.1897  1.1238
15477TIP3    H267847   4.687   0.409  12.091 -0.1600  0.7406 -0.1672
15478TIP3   OH267848   1.856   6.744   5.233  0.1216 -0.4266  0.2798
15478TIP3    H167849   1.766   6.775   5.223  0.9260  2.9832  2.4347
15478TIP3    H267850   1.848   6.662   5.282 -1.9051 -1.4690 -1.7214
15479TIP3   OH267851   1.534   1.409   3.310 -0.3405  0.5439  0.0831
15479TIP3    H167852   1.479   1.442   3.240  0.0251  0.5133 -0.2178
15479TIP3    H267853   1.621   1.441   3.290  0.0300 -0.6289 -0.2311
15480TIP3   OH267854   1.761   2.066   1.057  0.0260 -0.0938  0.2097
15480TIP3    H167855   1.854   2.047   1.069 -0.0386 -0.0532  0.8062
15480TIP3    H267856   1.716   1.997   1.105 -0.2378  0.4233  0.7070
15481TIP3   OH267857   0.071   1.849  14.519 -0.7452  0.2411 -0.2153
15481TIP3    H167858   0.079   1.849  14.424 -0.5914 -1.2949 -0.2128
15481TIP3    H267859   0.155   1.814  14.550 -0.9943  0.2450  0.4631
15482TIP3   OH267860   4.555   3.279   0.027  0.3867 -0.7309 -0.1174
15482TIP3    H167861   4.606   3.259   0.106  0.5778  0.6563  0.1164
15482TIP3    H267862   4.611   3.248  -0.045  0.6083 -1.1760  0.2420
15483TIP3   OH267863   0.149   1.731  15.066 -0.5521 -0.3343  0.5551
15483TIP3    H167864   0.200   1.811  15.077 -0.5500 -0.3972  1.0468
15483TIP3    H267865   0.099   1.723  15.147 -3.0872  0.9240 -0.8249
15484TIP3   OH267866   5.607   1.572  12.904 -0.4833  0.5979 -0.5208
15484TIP3    H167867   5.627   1.574  12.811  0.5566 -0.5842 -0.3395
15484TIP3    H267868   5.547   1.498  12.914  1.4874 -0.9536  0.1148
15485TIP3   OH267869   1.543   5.691   5.189  0.6258  0.5686  0.1286
15485TIP3    H167870   1.561   5.709   5.281  1.2242  0.7551 -0.0205
15485TIP3    H267871   1.451   5.715   5.177  0.2023 -0.5743  0.9537
15486TIP3   OH267872   3.368   3.184  11.786  0.0784  0.6653 -0.3161
15486TIP3    H167873   3.403   3.217  11.703  0.4427 -0.1788 -0.5109
15486TIP3    H267874   3.405   3.096  11.793 -1.3404  0.0848 -0.1115
15487TIP3   OH267875   6.568   2.764   5.808 -0.4349  0.1999 -0.1533
15487TIP3    H167876   6.585   2.793   5.898 -0.0795 -0.6627  0.0556
15487TIP3    H267877   6.652   2.774   5.764 -0.9108  1.8607 -0.7434
15488TIP3   OH267878   5.316   5.481   3.553 -0.0427 -0.2881 -0.1083
15488TIP3    H167879   5.342   5.539   3.625 -0.5396 -0.0553 -0.1176
15488TIP3    H267880   5.226   5.455   3.574  0.0732 -0.8163 -0.2615
15489TIP3   OH267881   2.684   6.432  12.963  0.5744  0.3842  0.0010
15489TIP3    H167882   2.595   6.448  12.931  0.2379 -0.3312  0.5806
15489TIP3    H267883   2.738   6.435  12.884 -0.2351 -1.2630 -0.6411
15490TIP3   OH267884   6.739   6.156   3.217 -0.7569 -0.2984  0.7782
15490TIP3    H167885   6.779   6.078   3.254 -0.1719 -0.8970 -1.0526
15490TIP3    H267886   6.722   6.133   3.125 -1.8461  1.2412  0.5809
15491TIP3   OH267887   2.411   1.114  17.106 -0.9444  0.2679  0.1426
15491TIP3    H167888   2.475   1.169  17.061 -1.1240  1.4685  1.3519
15491TIP3    H267889   2.460   1.035  17.130 -0.1787  0.7464  0.1650
15492TIP3   OH267890   3.766   4.710   0.792 -0.2395 -0.2529  0.1295
15492TIP3    H167891   3.816   4.711   0.874 -0.7904 -1.4877  0.4968
15492TIP3    H267892   3.762   4.618   0.768 -1.6253 -0.0793 -0.3392
15493TIP3   OH267893   5.772   2.505   4.203  0.8235  0.3463  0.7605
15493TIP3    H167894   5.773   2.600   4.213 -0.0221  0.3690  0.6403
15493TIP3    H267895   5.680   2.484   4.187  1.2035 -0.3465 -0.5258
15494TIP3   OH267896   3.658   0.786  14.201 -0.1778  0.1440 -0.6290
15494TIP3    H167897   3.667   0.713  14.139  1.7177 -0.0026 -0.2126
15494TIP3    H267898   3.618   0.747  14.278 -0.6133 -0.1277 -0.9920
15495TIP3   OH267899   4.995   3.513   5.898  0.2226  0.2292  0.3192
15495TIP3    H167900   5.064   3.498   5.962 -1.6330  0.0365  2.3261
15495TIP3    H267901   5.038   3.502   5.813  2.3018 -1.3900  1.5388
15496TIP3   OH267902   4.360   4.706   5.417 -0.2357 -0.5849  0.5152
15496TIP3    H167903   4.379   4.771   5.485 -0.3564 -0.3900  0.3637
15496TIP3    H267904   4.428   4.721   5.351 -1.8788  1.2236 -0.8095
15497TIP3   OH267905   2.851   3.174  14.780  0.1885  0.5579  0.1032
15497TIP3    H167906   2.767   3.128  14.790  0.8715 -0.4403  1.3925
15497TIP3    H267907   2.855   3.233  14.855  0.8311  0.2960  0.2777
15498TIP3   OH267908   0.078   4.339   3.311 -0.0827 -0.3108  0.1488
15498TIP3    H167909   0.035   4.421   3.289  0.6959 -0.1583 -0.8218
15498TIP3    H267910   0.045   4.276   3.246  1.0089 -0.2358 -0.4848
15499TIP3   OH267911   2.585   2.979   0.547 -0.0688  0.1626 -0.0440
15499TIP3    H167912   2.546   3.012   0.467  1.0729  0.1863 -0.5992
15499TIP3    H267913   2.620   2.893   0.523  1.3501  0.6887  0.1058
15500TIP3   OH267914   0.588   1.596   2.790 -0.8340 -0.2095  0.0887
15500TIP3    H167915   0.613   1.506   2.814  0.8823  0.4599  0.9222
15500TIP3    H267916   0.550   1.632   2.870  1.6707  0.9030  0.8113
15501TIP3   OH267917   4.061   1.818  13.376 -0.3634 -0.1904 -0.5615
15501TIP3    H167918   4.090   1.908  13.387 -1.5025  0.1078  0.0746
15501TIP3    H267919   3.969   1.819  13.402 -0.6668 -1.3223 -1.5449
15502TIP3   OH267920   5.543   5.634  16.203 -0.5448 -0.4056  0.2088
15502TIP3    H167921   5.620   5.614  16.257 -0.0972  0.5172 -0.0932
15502TIP3    H267922   5.579   5.664  16.120 -1.1834  2.6110  0.9737
15503TIP3   OH267923   2.305   2.773   1.461 -0.3816  0.4153  0.1243
15503TIP3    H167924   2.376   2.717   1.492 -0.0314 -0.3940 -2.0882
15503TIP3    H267925   2.230   2.749   1.516  0.5174 -0.1052  1.1538
15504TIP3   OH267926   2.660   1.118   5.444 -0.0250  0.1107 -0.5950
15504TIP3    H167927   2.584   1.133   5.500 -0.2456 -2.2270 -0.1867
15504TIP3    H267928   2.733   1.156   5.491 -0.6466  0.6652 -0.0692
15505TIP3   OH267929   4.559   4.429   5.956  0.5056  0.5523  0.4906
15505TIP3    H167930   4.513   4.449   6.038 -0.2380 -0.1917  0.2714
15505TIP3    H267931   4.573   4.334   5.960  2.9280  0.8924  0.9989
15506TIP3   OH267932   3.143   0.844   3.032  0.2595 -0.1284 -0.0521
15506TIP3    H167933   3.228   0.880   3.006  1.0009 -2.3497 -0.8907
15506TIP3    H267934   3.090   0.920   3.054  2.3756  1.3274  0.2084
15507TIP3   OH267935   0.314   0.438   2.327 -0.1533 -0.1343  0.0927
15507TIP3    H167936   0.276   0.500   2.390  0.3111  0.6702 -0.4063
15507TIP3    H267937   0.367   0.379   2.380  2.3194  2.0905  0.2377
15508TIP3   OH267938   1.806   4.856  16.875 -0.3821 -0.4467  0.8491
15508TIP3    H167939   1.833   4.771  16.911 -0.0601 -1.6645 -2.1086
15508TIP3    H267940   1.794   4.912  16.952  1.2421 -2.6243  2.7570
15509TIP3   OH267941   2.019   0.817   4.914  0.5609 -0.2365  0.5381
15509TIP3    H167942   2.036   0.795   4.822 -0.7530 -1.5256  0.5925
15509TIP3    H267943   2.103   0.805   4.958  1.4184  1.1880 -0.6214
15510TIP3   OH267944   1.462   3.267   2.754  0.2252 -0.1761 -0.4715
15510TIP3    H167945   1.402   3.222   2.813 -0.8362  2.7837  0.8240
15510TIP3    H267946   1.525   3.310   2.813  1.6422 -0.5590 -1.6861
15511TIP3   OH267947   6.234   3.731   3.977  0.5278 -0.2790 -0.7882
15511TIP3    H167948   6.287   3.808   4.001 -1.1250  0.6016  0.1137
15511TIP3    H267949   6.290   3.682   3.917  1.9840  1.1486 -0.6507
15512TIP3   OH267950   2.942   4.233  11.235  0.5901 -0.4118 -0.0171
15512TIP3    H167951   3.029   4.204  11.208  1.4406  2.2404 -0.2659
15512TIP3    H267952   2.917   4.298  11.170 -1.9325 -1.6778 -0.3566
15513TIP3   OH267953   2.359   0.394   5.080 -0.2273  0.1458  0.1401
15513TIP3    H167954   2.376   0.476   5.033  2.2354 -0.4029  0.0172
15513TIP3    H267955   2.270   0.404   5.114 -0.8996  1.8365 -1.9920
15514TIP3   OH267956   4.331   6.202   2.583  0.1419 -0.0678  0.4778
15514TIP3    H167957   4.329   6.283   2.533  0.6922  0.8629  1.9108
15514TIP3    H267958   4.240   6.189   2.611  0.4348  1.3018  2.1479
15515TIP3   OH267959   1.849   2.746  13.801 -0.4144  1.1955 -0.7144
15515TIP3    H167960   1.829   2.652  13.798  1.3822  0.7535  0.4113
15515TIP3    H267961   1.784   2.783  13.860 -0.6053  0.5021 -0.4903
15516TIP3   OH267962   3.355   1.862  16.403  0.1279  0.1763  0.2861
15516TIP3    H167963   3.421   1.931  16.394  1.0453 -0.3631  2.6416
15516TIP3    H267964   3.320   1.852  16.314  2.9904  0.6498 -0.9684
15517TIP3   OH267965   5.161   0.835  15.229  0.2385  0.3883  0.4464
15517TIP3    H167966   5.211   0.789  15.297  0.0479  2.5154  2.1075
15517TIP3    H267967   5.214   0.913  15.210 -0.4746  0.5929 -0.7547
15518TIP3   OH267968   1.630   5.589  11.678 -0.3348 -0.0969 -0.3214
15518TIP3    H167969   1.575   5.535  11.735 -0.0515 -0.0825 -0.0292
15518TIP3    H267970   1.577   5.667  11.660  0.3843  0.9082  1.6903
15519TIP3   OH267971   4.297   2.604  16.693  0.2615  0.0361 -0.1438
15519TIP3    H167972   4.231   2.667  16.663 -0.2784  0.1620  1.2406
15519TIP3    H267973   4.379   2.652  16.693  0.0638  0.3704 -0.3062
15520TIP3   OH267974   5.906   6.024   1.033 -0.2423 -0.1276  0.2291
15520TIP3    H167975   5.928   5.935   1.005 -2.3743 -0.2980 -0.9652
15520TIP3    H267976   5.848   6.013   1.108 -0.6635  0.2707 -0.0379
15521TIP3   OH267977   2.851   5.336   1.092 -0.0383 -0.5501 -0.3922
15521TIP3    H167978   2.914   5.316   1.161  0.5060  1.8796 -0.1309
15521TIP3    H267979   2.902   5.384   1.027 -0.8320 -1.7539 -1.9224
15522TIP3   OH267980   2.794   1.414   4.630 -0.0115 -0.0514 -0.3221
15522TIP3    H167981   2.725   1.355   4.599 -0.5376 -0.9472  2.4576
15522TIP3    H267982   2.863   1.355   4.661  1.4259  0.8414 -1.6878
15523TIP3   OH267983   0.070   2.967  12.908  0.0687 -0.4395 -0.1117
15523TIP3    H167984   0.033   2.993  12.992 -0.3756  1.2988 -0.8176
15523TIP3    H267985   0.130   3.039  12.885 -0.3477 -0.5491 -1.5897
15524TIP3   OH267986   3.930   6.129   4.548  0.0888  0.0465  0.2399
15524TIP3    H167987   3.851   6.183   4.557  0.5993  0.7001  0.8619
15524TIP3    H267988   3.989   6.183   4.496  0.2879 -0.2649  0.1420
15525TIP3   OH267989   6.559   4.162  15.955  0.4041 -0.8096 -0.2918
15525TIP3    H167990   6.640   4.152  16.004  1.5269  3.0766 -1.1881
15525TIP3    H267991   6.560   4.253  15.924 -3.9334 -0.8620 -0.9592
15526TIP3   OH267992   5.397   4.300   1.651  0.1764  0.0558 -0.0323
15526TIP3    H167993   5.440   4.237   1.708  1.9081 -1.1906 -2.6412
15526TIP3    H267994   5.306   4.269   1.644 -0.5755  1.2733  3.4502
15527TIP3   OH267995   1.048   5.787  11.697  0.1487  0.0478 -0.0968
15527TIP3    H167996   1.026   5.837  11.776  0.5804  1.6622 -0.9682
15527TIP3    H267997   1.130   5.826  11.667 -0.1967 -0.3234 -1.5247
15528TIP3   OH267998   6.723   4.703   4.282  0.1901  0.3999 -0.4104
15528TIP3    H167999   6.697   4.788   4.317 -1.0782  0.3170 -1.1013
15528TIP3    H268000   6.819   4.702   4.289  0.1708  1.6404  0.1458
15529TIP3   OH268001   4.190   4.044   0.548  0.0256  0.0471  0.3872
15529TIP3    H168002   4.144   4.089   0.477  2.1787 -0.5658 -1.4288
15529TIP3    H268003   4.145   4.074   0.628 -0.9525  2.5066 -1.0321
15530TIP3   OH268004   6.551   4.921  16.160  0.8597 -0.3412 -0.2049
15530TIP3    H168005   6.567   4.829  16.182 -0.1000 -0.5331 -0.2723
15530TIP3    H268006   6.597   4.971  16.228  2.0766 -0.8485 -0.6350
15531TIP3   OH268007   2.068   1.580  10.935  0.3542 -0.4029  0.6625
15531TIP3    H168008   2.018   1.514  10.886 -0.8826 -0.2079  1.6601
15531TIP3    H268009   2.138   1.605  10.874 -0.3643 -1.1458 -0.5084
15532TIP3   OH268010   5.903   1.832   6.756  0.1515 -0.2084 -0.5164
15532TIP3    H168011   5.869   1.864   6.672  0.8404  0.6113 -0.4874
15532TIP3    H268012   5.935   1.910   6.800 -0.7754 -0.5454  0.7917
15533TIP3   OH268013   4.692   1.199  15.007  0.6294 -0.2570 -0.6260
15533TIP3    H168014   4.712   1.259  14.936  0.0897  0.2064 -0.3908
15533TIP3    H268015   4.681   1.114  14.965  0.7393 -0.0667 -1.0374
15534TIP3   OH268016   4.900   5.167   3.230  0.0794 -0.5177 -0.2828
15534TIP3    H168017   4.860   5.172   3.317  1.7498  1.7869  0.4036
15534TIP3    H268018   4.993   5.187   3.245 -0.1148  2.8979 -2.9282
15535TIP3   OH268019   1.737   4.184  15.979 -0.3179 -0.1759 -0.5125
15535TIP3    H168020   1.654   4.139  15.961 -0.1597  0.0568 -1.8324
15535TIP3    H268021   1.743   4.185  16.075 -1.7667 -0.3433 -0.4040
15536TIP3   OH268022   2.804   6.069  14.524  0.2674  0.3297  0.2451
15536TIP3    H168023   2.839   5.997  14.575  1.5318 -0.1797 -1.3194
15536TIP3    H268024   2.830   6.148  14.573  0.4217 -0.1985  1.0160
15537TIP3   OH268025   5.462   1.501   4.076  0.0041  0.1337  0.2865
15537TIP3    H168026   5.469   1.590   4.111 -1.1832  0.7266 -0.9391
15537TIP3    H268027   5.398   1.458   4.133  3.7009 -1.3179  3.5505
15538TIP3   OH268028   3.760   6.676  12.430 -0.1392  0.0795  0.4374
15538TIP3    H168029   3.773   6.765  12.463 -2.1019  0.2178  0.8811
15538TIP3    H268030   3.756   6.686  12.335  1.0478  0.2675  0.4007
15539TIP3   OH268031   1.174   6.455   3.526 -0.0161  0.5981  0.0556
15539TIP3    H168032   1.097   6.512   3.532 -0.4942 -0.1652  1.8331
15539TIP3    H268033   1.208   6.453   3.616  0.1799 -1.6054 -0.0407
15540TIP3   OH268034   2.122   1.506   2.890 -0.3145 -0.0427 -0.4564
15540TIP3    H168035   2.063   1.479   2.820 -0.2448  0.3605 -0.6685
15540TIP3    H268036   2.161   1.587   2.859 -1.0889  0.7126  0.5105
15541TIP3   OH268037   5.505   5.909   2.994 -0.1549  0.7444 -0.1386
15541TIP3    H168038   5.507   6.000   2.962 -0.3093  0.9381  0.4070
15541TIP3    H268039   5.577   5.866   2.948  0.0894  1.2105 -0.1942
15542TIP3   OH268040   0.645   5.833  11.545  0.6080 -0.2942  0.2332
15542TIP3    H168041   0.649   5.888  11.623 -0.3045 -1.4956  1.1456
15542TIP3    H268042   0.735   5.831  11.512  0.9470  0.4477  1.0855
15543TIP3   OH268043   4.326   6.021  11.462  0.1603 -0.0603  0.5118
15543TIP3    H168044   4.403   6.078  11.461  0.3372 -0.2921 -0.8007
15543TIP3    H268045   4.363   5.932  11.463 -0.0989 -0.1628  0.8625
15544TIP3   OH268046   2.182   1.656   1.295 -0.2309  0.1496  0.0638
15544TIP3    H168047   2.257   1.599   1.310  0.7906  1.0141 -1.5933
15544TIP3    H268048   2.106   1.599   1.305  0.7751 -1.6352 -1.9788
15545TIP3   OH268049   3.696   3.236  16.637 -0.4530 -0.1053 -0.0555
15545TIP3    H168050   3.650   3.317  16.619  0.8743  0.6168 -0.2266
15545TIP3    H268051   3.642   3.168  16.597 -1.4053  0.7190 -0.1711
15546TIP3   OH268052   0.018   0.497   5.947  0.3581 -0.2111  0.2821
15546TIP3    H168053   0.101   0.503   5.899  1.5121  0.7730  2.3445
15546TIP3    H268054  -0.037   0.564   5.907  0.7800 -0.3961 -0.6372
15547TIP3   OH268055   2.483   4.857   2.741  0.3713  0.6921 -0.1441
15547TIP3    H168056   2.428   4.882   2.816 -0.2688 -1.9727  0.3374
15547TIP3    H268057   2.570   4.843   2.779  1.1907  3.9048 -0.7328
15548TIP3   OH268058   2.819   6.225  17.047  0.1750 -0.2052  0.2858
15548TIP3    H168059   2.725   6.210  17.053  0.1931  0.2075  1.9738
15548TIP3    H268060   2.829   6.294  16.981 -0.7778  0.3678  0.7287
15549TIP3   OH268061   0.680   0.683  15.498  0.3735 -0.3236 -0.4334
15549TIP3    H168062   0.734   0.724  15.431  0.8286 -0.5716 -0.2169
15549TIP3    H268063   0.667   0.752  15.564 -1.9031  0.6310 -1.8022
15550TIP3   OH268064   4.879   6.163  15.063  0.1457 -0.7516 -0.3487
15550TIP3    H168065   4.919   6.250  15.070 -1.4059 -0.1749  2.5110
15550TIP3    H268066   4.946   6.103  15.093  1.5413 -0.6968 -3.1847
15551TIP3   OH268067   0.846   4.461  13.577  0.3939  0.1285 -0.3481
15551TIP3    H168068   0.935   4.484  13.549  1.2959 -0.9932  1.5088
15551TIP3    H268069   0.832   4.373  13.543  0.9317 -0.6539  1.4217
15552TIP3   OH268070   2.242   5.641   2.690 -0.3823 -0.1510 -1.0211
15552TIP3    H168071   2.309   5.574   2.704 -0.0894 -0.2214 -2.6458
15552TIP3    H268072   2.291   5.717   2.658 -0.8550  0.4273 -0.3724
15553TIP3   OH268073   5.389   4.945   1.511  0.0249 -0.2236  0.0637
15553TIP3    H168074   5.436   4.884   1.455  0.0690  0.8174 -1.0551
15553TIP3    H268075   5.455   4.978   1.573  0.4803  0.2787 -0.6856
15554TIP3   OH268076   2.160   5.018  16.927  0.1684 -0.4795  0.1201
15554TIP3    H168077   2.162   4.996  16.834 -1.8181 -1.3316  0.2520
15554TIP3    H268078   2.151   4.933  16.971  1.1545 -0.0848  1.1007
15555TIP3   OH268079   2.951   0.198  12.522 -0.0651 -0.1507  0.0358
15555TIP3    H168080   2.986   0.115  12.491 -0.0523  0.4307 -1.5195
15555TIP3    H268081   2.857   0.185  12.525 -0.0611 -0.2177 -0.1810
15556TIP3   OH268082   3.253   6.576  12.478 -0.7608 -0.3650 -1.1308
15556TIP3    H168083   3.333   6.629  12.480 -0.7177 -0.4215 -1.4838
15556TIP3    H268084   3.227   6.570  12.570  1.5679 -3.2595 -0.6002
15557TIP3   OH268085   0.192   1.512   1.515  0.1758  0.6382  0.7381
15557TIP3    H168086   0.113   1.474   1.477  1.2740 -3.0520  1.9585
15557TIP3    H268087   0.240   1.548   1.441 -1.5695  0.8962 -0.2858
15558TIP3   OH268088   1.562   3.743  11.319  0.4262 -0.2443  0.4270
15558TIP3    H168089   1.473   3.760  11.351  1.0179  1.4536  1.2407
15558TIP3    H268090   1.551   3.730  11.225 -0.7130 -0.2156  0.5444
15559TIP3   OH268091   3.396   1.810   6.106 -0.4282 -0.3844 -0.3891
15559TIP3    H168092   3.353   1.887   6.069  1.7973  1.1914  0.1879
15559TIP3    H268093   3.392   1.824   6.201  0.4281 -0.7209 -0.2982
15560TIP3   OH268094   1.560   3.676   4.401  0.2926  0.3719 -0.3196
15560TIP3    H168095   1.506   3.704   4.327 -0.4246 -1.4189 -0.5034
15560TIP3    H268096   1.516   3.598   4.433  0.7734  0.9656  1.8239
15561TIP3   OH268097   1.067   3.627   3.287 -0.0615 -0.6297  0.0913
15561TIP3    H168098   0.992   3.579   3.322 -1.0874  0.4798 -0.5528
15561TIP3    H268099   1.030   3.682   3.218  1.4976 -0.7390 -0.8407
15562TIP3   OH268100   4.210   5.589  11.611  0.5556  0.1425  0.3179
15562TIP3    H168101   4.234   5.641  11.687  1.0088 -0.7105  0.7591
15562TIP3    H268102   4.293   5.560  11.574  0.2663 -1.6443  1.0414
15563TIP3   OH268103   0.474   3.516   0.980  0.8244 -0.4431 -0.3673
15563TIP3    H168104   0.382   3.509   1.002 -0.0699  1.3612 -3.2327
15563TIP3    H268105   0.483   3.465   0.899  2.3086 -0.4115 -0.2372
15564TIP3   OH268106   5.163   1.096  12.155 -0.6223 -0.5103  0.3124
15564TIP3    H168107   5.077   1.075  12.116 -0.5129 -2.3544  1.0132
15564TIP3    H268108   5.196   1.011  12.185  1.0013  0.3547  0.9656
15565TIP3   OH268109   0.406   1.677  12.352  0.3886  0.4512  0.3797
15565TIP3    H168110   0.404   1.672  12.256  1.4640 -3.4794  0.4784
15565TIP3    H268111   0.454   1.757  12.371  3.0624 -0.3882 -2.4389
15566TIP3   OH268112   0.235   4.428   2.625 -0.3624 -0.6430  0.7704
15566TIP3    H168113   0.322   4.467   2.612 -1.1386  1.4425  1.6862
15566TIP3    H268114   0.241   4.384   2.710 -0.4588  0.2374  1.2365
15567TIP3   OH268115   4.556   6.571  12.371  0.0295  1.1215 -0.1865
15567TIP3    H168116   4.561   6.479  12.345 -1.2085  1.1386 -0.5325
15567TIP3    H268117   4.645   6.605  12.358 -0.1139  0.6569 -2.6997
15568TIP3   OH268118   4.932   6.456  17.212 -0.0901 -0.0204 -0.0139
15568TIP3    H168119   4.912   6.442  17.119 -1.4215  0.3422  0.2192
15568TIP3    H268120   4.887   6.385  17.258  1.0383 -0.5379  0.3242
15569TIP3   OH268121   4.455   4.178  12.623 -0.1853 -1.3747  0.0751
15569TIP3    H168122   4.385   4.232  12.586 -0.1952 -1.4950 -0.0807
15569TIP3    H268123   4.424   4.157  12.711 -0.1003 -0.9772  0.1994
15570TIP3   OH268124   2.023   2.046   5.546  0.9188 -0.2737  0.2086
15570TIP3    H168125   2.054   2.013   5.631 -0.4040  1.1208  1.2742
15570TIP3    H268126   1.980   1.971   5.505  0.3502 -0.6135  1.4014
15571TIP3   OH268127   5.400   3.290   1.175  0.5791  0.5208 -0.3565
15571TIP3    H168128   5.464   3.222   1.159 -0.1682 -0.9043  2.4409
15571TIP3    H268129   5.448   3.358   1.224  0.2699 -0.0273  0.7289
15572TIP3   OH268130   4.997   2.039  13.708  0.2893 -0.1442 -0.1791
15572TIP3    H168131   5.064   2.077  13.764 -0.1399 -2.2572  1.8086
15572TIP3    H268132   4.917   2.087  13.730 -0.1752 -1.8968  2.0717
15573TIP3   OH268133   0.160   0.939  11.965  0.1814 -0.4085 -0.2661
15573TIP3    H168134   0.208   0.953  12.046 -2.2130 -0.8288  1.2643
15573TIP3    H268135   0.082   0.889  11.991 -1.7726  1.3803 -2.4573
15574TIP3   OH268136   5.633   6.663   0.388 -0.1285  0.1239  0.2495
15574TIP3    H168137   5.632   6.728   0.318  1.2695  0.2456  0.3177
15574TIP3    H268138   5.695   6.699   0.452 -1.0149 -0.2198  1.3164
15575TIP3   OH268139   2.939   4.134  13.425  0.1182  0.1128 -0.3619
15575TIP3    H168140   2.910   4.203  13.366 -0.6523  0.1086  0.0082
15575TIP3    H268141   2.860   4.084  13.445  0.5024 -0.3151  0.1133
15576TIP3   OH268142   5.229   3.240   4.201 -0.4557 -0.0914  0.4240
15576TIP3    H168143   5.321   3.216   4.211 -0.4315  0.0089  0.4458
15576TIP3    H268144   5.194   3.177   4.137 -0.2126  0.2729 -0.0731
15577TIP3   OH268145   1.544   1.689  11.174 -0.2801  0.3421  0.2944
15577TIP3    H168146   1.544   1.618  11.110 -0.7972  1.4507 -0.9571
15577TIP3    H268147   1.605   1.660  11.241  1.6653 -0.0770 -1.5897
15578TIP3   OH268148   4.199   4.337  13.137  0.9523 -0.2695 -0.6166
15578TIP3    H168149   4.119   4.327  13.086  0.1967 -0.4682  0.5904
15578TIP3    H268150   4.251   4.259  13.116  0.5845 -0.4222 -0.9630
15579TIP3   OH268151   2.467   5.336  16.761 -0.7650  0.0968 -0.3223
15579TIP3    H168152   2.415   5.293  16.693 -0.7050  0.2406 -0.4592
15579TIP3    H268153   2.558   5.328  16.731 -0.8400  1.3219 -0.9264
15580TIP3   OH268154   6.203   3.533  10.749 -0.5323 -0.9729 -0.2475
15580TIP3    H168155   6.112   3.553  10.770 -0.6164 -1.6978  0.0783
15580TIP3    H268156   6.214   3.564  10.659 -0.7920  0.1049  0.0821
15581TIP3   OH268157   2.572   2.888   1.688 -0.1237  0.5011 -0.1448
15581TIP3    H168158   2.504   2.827   1.660  0.2967  0.7043 -1.6971
15581TIP3    H268159   2.527   2.972   1.696 -0.2824  0.4073 -0.0481
15582TIP3   OH268160   3.739   5.562   0.196 -0.2777  0.1225 -0.1248
15582TIP3    H168161   3.718   5.626   0.128  1.1454  0.9452  0.1987
15582TIP3    H268162   3.780   5.490   0.149 -0.9111 -0.1003 -0.3504
15583TIP3   OH268163   3.995   5.293  12.994 -0.2971 -0.6413  0.1017
15583TIP3    H168164   4.089   5.296  13.011 -0.3173 -0.6598  0.2228
15583TIP3    H268165   3.961   5.235  13.063 -0.7590  1.4463  1.6906
15584TIP3   OH268166   4.792   4.717  11.270 -0.2654  0.2849 -0.3596
15584TIP3    H168167   4.822   4.808  11.263 -1.1211  0.6754  0.7964
15584TIP3    H268168   4.787   4.686  11.179  1.8940  0.7584 -0.6627
15585TIP3   OH268169   3.255   5.856  15.976 -0.0139 -0.5445  0.1717
15585TIP3    H168170   3.263   5.948  16.001 -1.6037 -0.6268  1.0332
15585TIP3    H268171   3.263   5.809  16.059  0.9908 -1.2016 -0.2910
15586TIP3   OH268172   0.710   0.763   5.565 -0.1097 -0.1862 -0.0270
15586TIP3    H168173   0.631   0.736   5.519  0.3608  0.9600 -1.5746
15586TIP3    H268174   0.764   0.684   5.568 -0.3148 -0.3747 -1.1059
15587TIP3   OH268175   1.292   6.047   6.361  0.0528  0.3823 -0.2240
15587TIP3    H168176   1.296   6.030   6.267 -1.7858 -3.5665  0.3397
15587TIP3    H268177   1.219   6.108   6.372  0.8146  1.5251 -1.4010
15588TIP3   OH268178   3.591   3.655   6.560 -0.1290  0.6002  0.0137
15588TIP3    H168179   3.542   3.653   6.643  0.0479 -1.2511  0.0924
15588TIP3    H268180   3.530   3.694   6.497  0.5764  4.3328  1.5113
15589TIP3   OH268181   4.016   4.629  15.642 -0.2079  0.6108 -0.7925
15589TIP3    H168182   3.969   4.550  15.616 -2.5879  2.4225 -2.1884
15589TIP3    H268183   4.106   4.613  15.614 -1.0117 -0.9024 -2.6734
15590TIP3   OH268184   3.697   0.461   1.462 -0.0603  0.4867  0.7533
15590TIP3    H168185   3.719   0.549   1.490  0.1522  0.7333 -0.1739
15590TIP3    H268186   3.780   0.415   1.459  0.0138  0.6800 -0.2153
15591TIP3   OH268187   0.020   6.421  16.008  0.2009  1.1984  0.0066
15591TIP3    H168188   0.040   6.421  16.102 -0.7965 -1.2549  0.2505
15591TIP3    H268189  -0.073   6.445  16.004  0.2149  1.1913 -0.3449
15592TIP3   OH268190   3.440   3.963  11.459 -0.0414 -0.0472  0.2737
15592TIP3    H168191   3.395   3.931  11.538 -2.0846 -0.5939 -1.0731
15592TIP3    H268192   3.370   3.974  11.395  1.6382  0.1887 -1.5459
15593TIP3   OH268193   5.367   1.600   3.544  0.8079 -0.3883  0.1151
15593TIP3    H168194   5.303   1.670   3.550 -0.2379 -1.4070  0.9918
15593TIP3    H268195   5.358   1.567   3.454  1.8665  1.1091 -0.5571
15594TIP3   OH268196   0.539   3.344  11.592  0.2392 -0.4662  0.3100
15594TIP3    H168197   0.494   3.276  11.542 -1.4868  0.4495  0.6052
15594TIP3    H268198   0.497   3.342  11.678 -0.6341  1.7520 -0.0305
15595TIP3   OH268199   4.247   0.970   2.812 -0.2541  0.4744 -0.3118
15595TIP3    H168200   4.230   0.953   2.905  0.1013  1.9356  0.0235
15595TIP3    H268201   4.239   1.064   2.803 -0.5314  0.3092 -1.8269
15596TIP3   OH268202   3.465   2.416  17.064 -1.0104 -0.5304 -0.0769
15596TIP3    H168203   3.466   2.402  17.158 -0.7241 -2.9180 -0.4113
15596TIP3    H268204   3.475   2.511  17.054  0.4815 -0.3943  2.2493
15597TIP3   OH268205   5.069   1.148   2.458 -0.1404 -0.1338 -0.3205
15597TIP3    H168206   5.052   1.054   2.468 -1.2939 -0.0816 -1.5164
15597TIP3    H268207   5.097   1.177   2.544 -1.9571 -1.1510  0.6508
15598TIP3   OH268208   2.337   3.407  11.343  0.3119 -0.3977  0.1489
15598TIP3    H168209   2.247   3.423  11.374  0.3926  0.2528  0.0546
15598TIP3    H268210   2.368   3.335  11.398 -0.3708 -0.8256 -0.0171
15599TIP3   OH268211   3.322   3.052   1.728  0.1434 -0.5919  0.0077
15599TIP3    H168212   3.392   3.117   1.734  1.0912 -1.5682 -0.2409
15599TIP3    H268213   3.315   3.034   1.634 -0.6918 -0.2418 -0.0022
15600TIP3   OH268214   1.935   1.089   4.902 -0.0960  0.0446 -0.6891
15600TIP3    H168215   1.956   1.108   4.811 -2.8818 -0.1957 -1.4067
15600TIP3    H268216   1.914   0.995   4.903 -3.7079  0.8112 -0.5469
15601TIP3   OH268217   0.615   0.002   0.254 -0.1289 -0.2947 -0.2542
15601TIP3    H168218   0.526  -0.002   0.220 -0.2863  0.1952  0.1110
15601TIP3    H268219   0.657   0.071   0.204 -0.4432  0.6258  0.7453
15602TIP3   OH268220   5.150   1.860   3.051 -0.0682 -0.0724 -0.2605
15602TIP3    H168221   5.060   1.842   3.023 -0.2082 -0.7688  0.6183
15602TIP3    H268222   5.204   1.831   2.977 -0.5276 -0.2215 -0.5409
15603TIP3   OH268223   5.178   6.260   5.778  0.9131  0.8384 -0.2310
15603TIP3    H168224   5.241   6.196   5.808 -0.0715 -0.5849 -1.1459
15603TIP3    H268225   5.105   6.253   5.838  0.2679  0.1901 -1.0750
15604TIP3   OH268226   5.994   2.735  16.367  0.1383  0.3250 -0.2223
15604TIP3    H168227   6.003   2.715  16.461 -0.5975 -1.0051 -0.4260
15604TIP3    H268228   6.080   2.716  16.330 -0.1707 -1.2790 -0.1773
15605TIP3   OH268229   4.085   1.024   1.134  1.1081 -0.1771  0.2280
15605TIP3    H168230   4.068   1.110   1.097  1.2511  0.0637  0.7172
15605TIP3    H268231   4.179   1.011   1.123  1.2238  0.0760  0.8826
15606TIP3   OH268232   2.553   4.078  16.209 -0.1894  0.2774 -0.1421
15606TIP3    H168233   2.609   4.040  16.276  1.4046 -0.8666 -2.0706
15606TIP3    H268234   2.479   4.018  16.203 -1.5272  1.6252  2.1897
15607TIP3   OH268235   3.074   0.695  15.716  0.0301  0.0750 -0.0160
15607TIP3    H168236   3.061   0.651  15.800 -0.2649 -0.6150 -0.4156
15607TIP3    H268237   3.043   0.785  15.731 -0.6712 -0.2349  0.4239
15608TIP3   OH268238   6.132   6.567   3.492 -0.2669 -0.1934  0.0051
15608TIP3    H168239   6.178   6.522   3.563  0.7675  0.3240 -0.3318
15608TIP3    H268240   6.046   6.525   3.488  0.5746 -1.9188 -0.1069
15609TIP3   OH268241   0.891   3.558  16.102 -0.3575  0.1569 -0.4337
15609TIP3    H168242   0.806   3.570  16.143 -0.1109  0.1877  0.0729
15609TIP3    H268243   0.873   3.509  16.022 -0.5637 -2.1206  0.9741
15610TIP3   OH268244   5.692   1.388  15.681  0.2004  0.2104  0.7591
15610TIP3    H168245   5.748   1.416  15.753  0.4382  2.5155 -0.2759
15610TIP3    H268246   5.607   1.426  15.701 -0.1068 -0.3500  0.5406
15611TIP3   OH268247   6.570   5.329   0.505  0.2819 -0.2305 -0.1751
15611TIP3    H168248   6.559   5.383   0.583 -1.6042 -0.6857 -0.0914
15611TIP3    H268249   6.530   5.245   0.529  0.2833 -0.5862 -1.4027
15612TIP3   OH268250   2.714   3.712   4.983 -0.5519 -0.2773 -0.3945
15612TIP3    H168251   2.787   3.650   4.983  0.5106  0.9402 -1.8891
15612TIP3    H268252   2.646   3.667   4.932 -1.8238 -2.4325  2.9916
15613TIP3   OH268253   2.814   3.608   0.907  0.6092 -0.1002  0.1900
15613TIP3    H168254   2.832   3.614   1.001 -0.4132  0.2888  0.3636
15613TIP3    H268255   2.730   3.653   0.895  0.5420 -0.4822 -0.8544
15614TIP3   OH268256   0.391   3.794  16.654  0.4669 -0.1034 -0.3669
15614TIP3    H168257   0.406   3.856  16.582  0.8422  0.8179  0.4934
15614TIP3    H268258   0.470   3.799  16.707 -0.4269  0.3454  0.9403
15615TIP3   OH268259   6.652   4.721  12.790 -0.1909  0.1198  0.5942
15615TIP3    H168260   6.592   4.678  12.850 -1.0353 -0.2619 -0.5096
15615TIP3    H268261   6.673   4.654  12.725  0.3811  0.6569  0.2244
15616TIP3   OH268262   2.977   4.237   3.650 -0.2007 -0.0999 -0.1988
15616TIP3    H168263   2.953   4.157   3.695  0.7962 -0.4169 -0.2172
15616TIP3    H268264   3.062   4.218   3.610  0.9827  1.5914  1.4409
15617TIP3   OH268265   1.728   0.355   5.702 -0.3923  0.3386  1.0124
15617TIP3    H168266   1.678   0.344   5.622  2.0849 -0.6383 -0.4526
15617TIP3    H268267   1.711   0.445   5.729 -2.5540  0.1532  0.3136
15618TIP3   OH268268   4.904   4.700   0.845 -0.3834  0.8452 -0.3540
15618TIP3    H168269   4.864   4.777   0.806 -1.3342 -1.2668 -3.8186
15618TIP3    H268270   4.960   4.664   0.775 -1.1812 -2.4354  0.5843
15619TIP3   OH268271   2.097   0.911  12.111 -0.0146  0.0261  0.3462
15619TIP3    H168272   2.116   0.952  12.196  4.7101  1.2085 -1.1189
15619TIP3    H268273   2.098   0.983  12.049  0.4692 -1.3175 -1.2446
15620TIP3   OH268274   5.836   4.329  10.283  0.8191  0.7745  0.6971
15620TIP3    H168275   5.791   4.407  10.251  0.4283  0.6173  0.8691
15620TIP3    H268276   5.892   4.303  10.210 -3.3886 -2.2095 -1.6560
15621TIP3   OH268277   1.001   1.172  15.984  0.0394 -0.5755 -0.4610
15621TIP3    H168278   1.000   1.267  15.968  1.6797 -0.3938  0.4238
15621TIP3    H268279   1.041   1.135  15.906 -1.8147 -0.6764 -1.3872
15622TIP3   OH268280   0.110   2.265   5.726 -0.0064  0.3419  1.1729
15622TIP3    H168281   0.073   2.292   5.642 -0.6967 -0.4266  1.2223
15622TIP3    H268282   0.046   2.204   5.762  1.5298 -1.3999  1.0299
15623TIP3   OH268283   3.604   3.279  12.040  0.0706  0.4062  0.1417
15623TIP3    H168284   3.565   3.359  12.076 -1.1022 -0.4924  0.9201
15623TIP3    H268285   3.569   3.209  12.095  3.2617 -0.3940  1.2550
15624TIP3   OH268286   6.397   5.347   2.941 -0.2331 -0.4976 -0.1193
15624TIP3    H168287   6.352   5.431   2.934 -0.5976 -0.7144 -0.3381
15624TIP3    H268288   6.344   5.286   2.891  0.9584 -0.4847 -1.4418
15625TIP3   OH268289   3.348   6.570   5.079 -0.0040 -0.7166  0.0015
15625TIP3    H168290   3.280   6.523   5.128 -1.8958  0.9585 -0.9629
15625TIP3    H268291   3.360   6.651   5.128  0.5077 -0.5157 -0.4661
15626TIP3   OH268292   1.942   3.615  11.823 -0.0873  0.1640 -0.2276
15626TIP3    H168293   1.952   3.688  11.884  0.3497  1.3013 -1.6574
15626TIP3    H268294   1.989   3.543  11.865  0.5561  1.0557  0.5925
15627TIP3   OH268295   0.519   5.375  16.048 -0.3641  0.3157 -0.6836
15627TIP3    H168296   0.611   5.353  16.037  0.1162  1.5114  0.7931
15627TIP3    H268297   0.486   5.388  15.959  1.0228  0.4075 -1.1899
15628TIP3   OH268298   0.150   6.562   2.268  0.3110  0.2808 -0.0348
15628TIP3    H168299   0.130   6.611   2.347  0.3568 -0.1098  0.2211
15628TIP3    H268300   0.145   6.470   2.294 -0.4431  0.1366 -0.6723
15629TIP3   OH268301   4.365   0.461  14.120  0.0070 -0.6785 -0.1973
15629TIP3    H168302   4.448   0.452  14.073  0.5352  1.2283  0.3135
15629TIP3    H268303   4.388   0.452  14.212 -0.3984 -0.4098 -0.0677
15630TIP3   OH268304   3.202   0.045   1.246  0.0656 -0.1425  0.1826
15630TIP3    H168305   3.268   0.042   1.176 -0.6740 -1.4030 -0.4769
15630TIP3    H268306   3.165   0.133   1.239 -0.5828 -0.5306 -1.5849
15631TIP3   OH268307   1.826   2.999  11.014 -0.0454  0.7649  0.4839
15631TIP3    H168308   1.779   2.978  10.933  1.6586  1.9725 -0.8142
15631TIP3    H268309   1.770   3.063  11.058  0.0073  1.6096 -0.6804
15632TIP3   OH268310   0.629   4.448   3.552 -0.2810  0.2660 -0.0793
15632TIP3    H168311   0.682   4.464   3.474  0.8900 -0.6451  0.5082
15632TIP3    H268312   0.684   4.479   3.625 -0.6202 -0.5310  0.5192
15633TIP3   OH268313   3.107   1.837   3.971 -0.0268  0.2156  0.1010
15633TIP3    H168314   3.182   1.778   3.982 -0.6567 -1.1588 -2.5740
15633TIP3    H268315   3.031   1.784   3.996 -0.5956 -0.1753 -2.3433
15634TIP3   OH268316   0.618   0.334  15.710  0.7461 -0.4578  0.2347
15634TIP3    H168317   0.544   0.391  15.687  2.0350  0.4737 -1.6291
15634TIP3    H268318   0.578   0.263  15.761 -1.8676 -1.3397 -2.8502
15635TIP3   OH268319   4.894   1.188   2.247  0.0715 -0.2495  0.4506
15635TIP3    H168320   4.948   1.230   2.314  0.9432 -0.4927 -0.0908
15635TIP3    H268321   4.943   1.110   2.222 -2.6123 -2.9443  3.1180
15636TIP3   OH268322   4.673   0.292   3.561  0.5596 -0.8434  0.0464
15636TIP3    H168323   4.747   0.283   3.621  0.5363 -1.6640 -0.0385
15636TIP3    H268324   4.709   0.269   3.475  0.0669 -1.8522  0.1022
15637TIP3   OH268325   5.324   1.587  14.524  0.1023 -0.1158 -0.6832
15637TIP3    H168326   5.383   1.533  14.471  1.4688  0.6299  0.0488
15637TIP3    H268327   5.357   1.676  14.512  0.1238  0.1073  1.0311
15638TIP3   OH268328   1.532   3.450   1.357  0.1012 -0.0975 -0.0479
15638TIP3    H168329   1.548   3.356   1.356  2.4417  0.2728  0.0783
15638TIP3    H268330   1.604   3.487   1.409 -1.1275  1.7061  0.4469
15639TIP3   OH268331   6.166   6.543   1.814 -0.0928 -0.1147  0.3145
15639TIP3    H168332   6.253   6.502   1.813  0.1876  0.4985 -1.6409
15639TIP3    H268333   6.156   6.574   1.904  2.4232  1.2739  0.1736
15640TIP3   OH268334   1.875   0.662  14.231  0.1852  0.3292  0.1473
15640TIP3    H168335   1.864   0.702  14.317 -0.1370  2.4534 -0.8473
15640TIP3    H268336   1.968   0.638  14.228  0.1620  0.0806  1.1521
15641TIP3   OH268337   3.648   5.655  13.244 -0.3009  0.7546 -0.1843
15641TIP3    H168338   3.587   5.689  13.309 -0.6396  0.0839 -0.1447
15641TIP3    H268339   3.613   5.568  13.221  1.2594 -0.1322  0.7026
15642TIP3   OH268340   4.372   3.155   0.292  0.2940 -0.3452  0.5019
15642TIP3    H168341   4.417   3.239   0.296  1.1984 -0.7811 -0.3524
15642TIP3    H268342   4.335   3.144   0.379  1.5548  0.1880  1.1252
15643TIP3   OH268343   0.165   3.376   4.418  0.2888 -0.4076 -0.0995
15643TIP3    H168344   0.149   3.461   4.377 -1.2942 -0.1387  1.0105
15643TIP3    H268345   0.086   3.325   4.399  1.0575 -1.5080 -0.4143
15644TIP3   OH268346   1.363   4.169   5.513 -0.2839 -0.4656 -0.0420
15644TIP3    H168347   1.353   4.259   5.483 -0.4284 -0.9467 -1.4549
15644TIP3    H268348   1.318   4.167   5.598  1.2042  1.2168  0.8207
15645TIP3   OH268349   3.735   1.712   1.656 -0.2683  0.6000  0.6110
15645TIP3    H168350   3.830   1.717   1.658 -0.0334 -1.8043 -1.4630
15645TIP3    H268351   3.706   1.771   1.725  2.7534  0.3664  2.1540
15646TIP3   OH268352   3.807   4.066  12.227 -0.1999  0.5759  0.5689
15646TIP3    H168353   3.819   4.006  12.153  1.4423  0.6993  0.7176
15646TIP3    H268354   3.734   4.028  12.276 -0.4885 -0.1945 -0.4357
15647TIP3   OH268355   0.064   4.535  13.032  0.8427 -0.9196  0.3604
15647TIP3    H168356   0.055   4.525  13.127  0.3532 -0.4227  0.3712
15647TIP3    H268357  -0.005   4.480  12.995 -0.9794  1.2911  0.3869
15648TIP3   OH268358   2.168   5.564  12.731 -0.0319 -0.0054 -0.5046
15648TIP3    H168359   2.231   5.509  12.776  0.1723  0.4241 -0.2613
15648TIP3    H268360   2.214   5.647  12.716 -0.3965  0.1671 -0.6916
15649TIP3   OH268361   0.706   2.065  15.216  0.1851 -0.0708 -0.1032
15649TIP3    H168362   0.728   2.061  15.123  0.9982 -1.1845  0.1266
15649TIP3    H268363   0.710   1.974  15.246 -1.7877  0.0494  0.6421
15650TIP3   OH268364   5.141   1.906   1.790  0.5203 -0.3634  0.4092
15650TIP3    H168365   5.201   1.971   1.754  0.1502  1.0025  2.1923
15650TIP3    H268366   5.055   1.931   1.756  0.8244 -1.8450 -1.4983
15651TIP3   OH268367   1.339   6.526   6.220  0.2252 -0.2674 -0.0531
15651TIP3    H168368   1.268   6.587   6.198  0.3358  0.0423  0.4404
15651TIP3    H268369   1.304   6.475   6.293  0.3669 -0.3772 -0.0637
15652TIP3   OH268370   0.655   4.292  15.469  0.2172 -0.0438 -0.3115
15652TIP3    H168371   0.720   4.222  15.476 -0.0990 -0.3384 -0.3039
15652TIP3    H268372   0.633   4.295  15.376  0.4745  0.2624 -0.3582
15653TIP3   OH268373   4.072   2.465   6.087 -0.4435 -0.4803 -0.1236
15653TIP3    H168374   3.991   2.454   6.136  0.2548  1.4578  1.5274
15653TIP3    H268375   4.048   2.448   5.996 -2.4519 -0.9442  0.4814
15654TIP3   OH268376   1.640   3.422  11.103  0.3157 -0.1476 -0.1091
15654TIP3    H168377   1.626   3.474  11.024  1.6307 -0.8016 -0.7826
15654TIP3    H268378   1.733   3.401  11.102 -0.4718 -3.8973 -0.7339
15655TIP3   OH268379   0.205   4.389  12.853  0.7842  0.3497  0.2268
15655TIP3    H168380   0.145   4.405  12.780 -0.3258 -3.0520  0.3198
15655TIP3    H268381   0.181   4.456  12.918 -0.1370  1.5949 -1.3533
15656TIP3   OH268382   5.742   3.133  11.811  0.2883 -0.4012 -0.1061
15656TIP3    H168383   5.792   3.065  11.766  1.1942 -0.3930  0.8545
15656TIP3    H268384   5.806   3.175  11.869 -0.7647 -0.1962  0.9365
15657TIP3   OH268385   1.072   0.925  12.088 -0.2041 -0.0526 -0.3666
15657TIP3    H168386   0.987   0.906  12.128 -0.6219  2.1981 -0.1311
15657TIP3    H268387   1.089   0.849  12.032 -1.7718 -1.1045  0.5241
15658TIP3   OH268388   2.882   0.792  12.093 -0.1168  0.4346  0.1162
15658TIP3    H168389   2.815   0.860  12.089  0.4391  1.0142  0.5268
15658TIP3    H268390   2.951   0.830  12.148 -0.5985 -1.1736  1.8574
15659TIP3   OH268391   3.966   4.563   4.706  0.5147  0.3076 -0.0706
15659TIP3    H168392   3.912   4.562   4.627 -1.0674  0.0053  0.9931
15659TIP3    H268393   4.043   4.511   4.684 -0.2484 -0.3481 -1.1908
15660TIP3   OH268394   6.077   0.250   2.020  0.0635  0.1975  0.3182
15660TIP3    H168395   6.169   0.239   2.045 -0.2142 -1.4024  0.6659
15660TIP3    H268396   6.079   0.258   1.924  0.6168  0.8036  0.3776
15661TIP3   OH268397   0.307   5.288  11.854  0.5133  0.0978  0.3051
15661TIP3    H168398   0.401   5.274  11.868  0.8081  0.0536 -1.6108
15661TIP3    H268399   0.289   5.248  11.769 -0.9583  1.3588  0.0024
15662TIP3   OH268400   3.100   2.528   0.450  0.1262  0.3748  0.3595
15662TIP3    H168401   3.117   2.596   0.515  1.6061 -1.7873  2.3146
15662TIP3    H268402   3.182   2.520   0.401  0.7234 -1.4659  1.5933
15663TIP3   OH268403   0.850   3.528  12.361  0.2419 -0.0057  0.3753
15663TIP3    H168404   0.936   3.506  12.397  0.2857 -1.0647 -0.3344
15663TIP3    H268405   0.855   3.621  12.342  1.0613  0.0461  0.8235
15664TIP3   OH268406   1.618   4.587  13.168 -0.2401  0.2047  0.0089
15664TIP3    H168407   1.707   4.615  13.145 -0.9067  0.8595 -1.9026
15664TIP3    H268408   1.611   4.604  13.262  2.2200 -1.4704  0.5365
15665TIP3   OH268409   3.698   5.656   3.064 -1.0395  0.1550  0.0117
15665TIP3    H168410   3.718   5.640   3.157 -1.7665  2.7755  0.6584
15665TIP3    H268411   3.604   5.644   3.057 -0.9502 -0.2768 -0.4370
15666TIP3   OH268412   3.087   0.949   5.375  0.1397 -0.0669 -0.8022
15666TIP3    H168413   3.096   0.969   5.468  1.4035 -0.2550 -0.8691
15666TIP3    H268414   2.995   0.968   5.355  0.1417  1.0840  0.2140
15667TIP3   OH268415   2.500   0.608  10.560 -0.3393  0.1569 -0.3464
15667TIP3    H168416   2.590   0.593  10.588 -0.8075 -2.1605 -0.0290
15667TIP3    H268417   2.494   0.703  10.552  1.6560  0.4526  1.1859
15668TIP3   OH268418   6.752   2.687  16.199 -0.3462 -0.4549 -0.0678
15668TIP3    H168419   6.755   2.592  16.188  0.7783 -0.1417 -2.6361
15668TIP3    H268420   6.813   2.705  16.271 -1.2502 -1.7221  1.0447
15669TIP3   OH268421   5.628   1.168   0.347 -0.2354  0.1981 -0.3187
15669TIP3    H168422   5.666   1.091   0.304 -0.7540 -0.0347 -0.3693
15669TIP3    H268423   5.658   1.242   0.295  0.7048  0.0789  0.0394
15670TIP3   OH268424   3.065   3.054   0.461  0.1562  0.2381 -0.1432
15670TIP3    H168425   3.012   3.032   0.538 -1.2273  0.0608 -1.1125
15670TIP3    H268426   3.012   3.025   0.387  1.3153  0.7132 -1.1799
15671TIP3   OH268427   5.800   3.372   4.745  0.3962  0.7123 -0.0868
15671TIP3    H168428   5.884   3.411   4.770  0.7184  1.1456 -1.8197
15671TIP3    H268429   5.748   3.445   4.712  0.3202 -0.0070 -1.5950
15672TIP3   OH268430   0.077   0.031  11.803  0.1622  0.3195  0.0090
15672TIP3    H168431   0.112  -0.003  11.720  2.4340  0.8988  0.7035
15672TIP3    H268432  -0.005  -0.017  11.815  1.7620 -2.7099 -0.5896
15673TIP3   OH268433   3.701   6.015   5.224  0.1793  0.1197 -0.3779
15673TIP3    H168434   3.720   5.924   5.201 -0.2227 -0.2516  0.7487
15673TIP3    H268435   3.657   6.050   5.146 -2.9456 -1.6917  0.5150
15674TIP3   OH268436   2.856   5.627  15.691 -0.4291 -0.0835 -0.1122
15674TIP3    H168437   2.915   5.678  15.747 -0.7889 -1.9619  2.0157
15674TIP3    H268438   2.810   5.693  15.639  0.4848  1.6440  1.2292
15675TIP3   OH268439   1.888   6.600   1.566  0.1176  0.4340 -0.3761
15675TIP3    H168440   1.976   6.568   1.583 -0.5545 -1.6161 -0.6555
15675TIP3    H268441   1.849   6.535   1.507 -1.3232  1.7005 -0.8751
15676TIP3   OH268442   5.031   4.996   0.373 -0.0092  0.7007 -0.6499
15676TIP3    H168443   5.032   4.953   0.287  1.9712 -1.7576  0.5299
15676TIP3    H268444   5.102   5.059   0.369  1.0973 -0.4996 -0.3328
15677TIP3   OH268445   2.186   2.613  11.933 -0.5145 -0.2177  0.1883
15677TIP3    H168446   2.130   2.646  11.863  0.2635 -1.0024 -0.8191
15677TIP3    H268447   2.217   2.691  11.979  0.5981  0.4224 -1.6012
15678TIP3   OH268448   2.806   0.878   0.503 -0.4824  0.5174  0.1606
15678TIP3    H168449   2.777   0.833   0.424 -0.9075  0.9713  0.0551
15678TIP3    H268450   2.902   0.871   0.501 -0.5363 -0.2551  0.0771
15679TIP3   OH268451   5.690   6.356  16.591 -0.1080 -0.5649  0.1125
15679TIP3    H168452   5.680   6.275  16.641 -0.5057 -0.6154 -0.0459
15679TIP3    H268453   5.778   6.387  16.611  0.4087 -1.5619 -0.6160
15680TIP3   OH268454   1.270   0.523   4.734  0.1387 -0.1091  0.4215
15680TIP3    H168455   1.313   0.499   4.817 -1.3711 -0.1701  1.1988
15680TIP3    H268456   1.332   0.494   4.667  0.9730 -0.9117  1.5036
15681TIP3   OH268457   3.336   1.676  11.268 -0.2265 -0.4124 -0.4309
15681TIP3    H168458   3.425   1.668  11.233 -0.0053 -0.2777  0.1003
15681TIP3    H268459   3.293   1.594  11.244  0.6522 -1.3397  1.0700
15682TIP3   OH268460   2.949   5.769  16.478  0.1040 -0.3232 -0.1609
15682TIP3    H168461   3.032   5.724  16.492  0.1611 -0.6679 -1.5079
15682TIP3    H268462   2.901   5.712  16.417 -0.2689  0.8919 -1.0129
15683TIP3   OH268463   0.944   1.923  15.488 -0.0429 -0.0830 -0.0782
15683TIP3    H168464   0.941   2.002  15.434  1.3406 -0.7476 -1.1769
15683TIP3    H268465   0.969   1.954  15.575  0.8596  0.6699 -0.5918
15684TIP3   OH268466   0.904   1.971   1.141 -0.1955 -0.4830 -0.3997
15684TIP3    H168467   0.883   1.892   1.091 -1.3780  0.9349 -2.2113
15684TIP3    H268468   0.820   2.014   1.155  0.6426  1.5055 -1.2622
15685TIP3   OH268469   2.732   0.009   1.323 -0.1876  0.4104 -0.1894
15685TIP3    H168470   2.682   0.076   1.370 -0.2264  1.6532 -1.9423
15685TIP3    H268471   2.728   0.036   1.232  1.6605 -0.7921 -0.6619
15686TIP3   OH268472   6.189   3.251  13.014 -0.7543 -0.3561 -0.0622
15686TIP3    H168473   6.129   3.301  12.959  0.0137  0.2243 -0.3804
15686TIP3    H268474   6.208   3.172  12.963 -1.9258 -0.9611  0.4186
15687TIP3   OH268475   5.478   1.601   4.864 -0.2996 -0.2948 -0.4454
15687TIP3    H168476   5.572   1.615   4.867 -0.1924 -0.6034 -1.7465
15687TIP3    H268477   5.467   1.508   4.884 -0.3658 -0.1704  0.1078
15688TIP3   OH268478   0.766   1.590  13.237  0.1571 -0.2675  0.4679
15688TIP3    H168479   0.862   1.585  13.231  0.0320 -0.3001 -2.2196
15688TIP3    H268480   0.749   1.629  13.322  2.6229  1.1055  0.3706
15689TIP3   OH268481   4.358   2.067  14.520 -0.0592 -0.4764  0.6298
15689TIP3    H168482   4.432   2.114  14.480 -0.7792 -0.3310 -0.5619
15689TIP3    H268483   4.399   1.994  14.566  0.8535 -0.2964  0.1218
15690TIP3   OH268484   6.068   3.056   2.793 -0.2009 -0.0166  0.7170
15690TIP3    H168485   6.058   2.963   2.771 -4.2446  0.5673 -0.4154
15690TIP3    H268486   5.998   3.073   2.855 -0.4007  2.5903 -0.1785
15691TIP3   OH268487   4.652   2.548   1.832  0.1971  0.2190  0.3563
15691TIP3    H168488   4.625   2.601   1.907 -1.1736  0.3588 -0.2193
15691TIP3    H268489   4.584   2.564   1.766 -0.0674 -2.0049  0.0624
15692TIP3   OH268490   2.339   0.837  14.811  0.2391  0.9362 -0.6577
15692TIP3    H168491   2.341   0.819  14.717  0.5788 -1.0397 -0.2961
15692TIP3    H268492   2.430   0.831  14.838  0.0656  0.8201 -0.0965
15693TIP3   OH268493   5.617   4.476   5.449  0.2257 -0.4650 -0.4252
15693TIP3    H168494   5.527   4.476   5.481 -0.6347 -1.9055 -2.7534
15693TIP3    H268495   5.664   4.418   5.509 -0.5131 -0.1495  0.4634
15694TIP3   OH268496   1.668   1.060   4.528 -0.1998  0.4727  0.0004
15694TIP3    H168497   1.632   0.979   4.493 -0.4310  1.1151 -1.2765
15694TIP3    H268498   1.675   1.045   4.622 -0.3694 -0.9746 -0.2121
15695TIP3   OH268499   4.188   3.200   1.968  0.3111 -0.4361 -0.5052
15695TIP3    H168500   4.102   3.156   1.965  0.3306 -0.5266  0.1798
15695TIP3    H268501   4.209   3.205   2.061  0.8464 -0.0060 -0.6478
15696TIP3   OH268502   2.776   6.334  11.091 -0.2192  0.0342  0.0876
15696TIP3    H168503   2.822   6.332  11.007 -1.8283 -0.6334 -0.8131
15696TIP3    H268504   2.684   6.350  11.067 -0.8301 -1.0186  1.6714
15697TIP3   OH268505   5.920   0.064   4.910 -0.4006  0.0433  0.4705
15697TIP3    H168506   5.825   0.071   4.925 -0.5227 -0.8726  0.1317
15697TIP3    H268507   5.927   0.023   4.824  0.3068  0.9478  0.0967
15698TIP3   OH268508   4.852   4.599   2.519  0.6552  0.0324  0.1153
15698TIP3    H168509   4.766   4.574   2.487  0.2442  2.5944 -0.8832
15698TIP3    H268510   4.845   4.591   2.614  0.0220 -1.8482 -0.0677
15699TIP3   OH268511   0.467   2.962   2.750 -0.1218  0.6475 -0.3748
15699TIP3    H168512   0.474   2.985   2.658  3.2996 -0.8428 -0.5477
15699TIP3    H268513   0.456   2.867   2.751  0.0304  0.6322  0.7491
15700TIP3   OH268514   3.362   1.678   4.849 -0.2509  0.2186  0.1464
15700TIP3    H168515   3.371   1.724   4.766  1.0933 -0.6681 -0.2081
15700TIP3    H268516   3.451   1.650   4.871 -0.9125 -1.3984  0.8286
15701TIP3   OH268517   2.718   2.778   3.338  1.0378 -0.0720  0.4209
15701TIP3    H168518   2.680   2.788   3.251  1.4606 -0.6739  0.1556
15701TIP3    H268519   2.797   2.831   3.336  0.4682  0.8060  0.8165
15702TIP3   OH268520   6.365   4.561  11.344 -0.5966 -0.0565  0.0810
15702TIP3    H168521   6.377   4.561  11.439  0.2929  0.6600 -0.0308
15702TIP3    H268522   6.310   4.484  11.327  0.0693 -0.7622  1.0717
15703TIP3   OH268523   0.157   0.032  12.349  0.0343 -0.2865  0.4212
15703TIP3    H168524   0.064   0.030  12.327  0.2072 -3.9871 -0.3163
15703TIP3    H268525   0.162  -0.005  12.437  0.6332  2.2176  1.4985
15704TIP3   OH268526   6.233   3.567  14.673  0.4873 -0.5852  0.2253
15704TIP3    H168527   6.210   3.525  14.590  2.3823  0.8008 -1.0577
15704TIP3    H268528   6.329   3.566  14.675  0.5116  1.2086  1.4331
15705TIP3   OH268529   4.249   0.977  12.221 -0.1494 -0.3213  0.0142
15705TIP3    H168530   4.162   0.947  12.192 -0.2273 -1.0313  0.9678
15705TIP3    H268531   4.293   0.897  12.250  0.5867  0.1383  0.1745
15706TIP3   OH268532   2.909   3.892   5.048 -0.1916  0.3574 -0.1001
15706TIP3    H168533   2.831   3.838   5.036  0.7314 -0.6246 -1.7921
15706TIP3    H268534   2.876   3.981   5.055 -1.5482 -0.1759  0.4165
15707TIP3   OH268535   6.063   5.923  11.345 -0.1388  0.2625  0.1820
15707TIP3    H168536   6.107   5.932  11.260 -0.8466 -0.2924 -0.2475
15707TIP3    H268537   6.075   6.008  11.387  1.1235  0.2019 -0.0302
15708TIP3   OH268538   3.803   1.411   4.732  0.0072  0.6612  0.5732
15708TIP3    H168539   3.723   1.358   4.737  0.5434 -0.2819 -0.5326
15708TIP3    H268540   3.850   1.390   4.813 -0.7394  1.0082  1.0990
15709TIP3   OH268541   4.937   0.556  15.593 -0.1377 -0.1673 -0.5072
15709TIP3    H168542   4.885   0.502  15.654  2.5189 -4.2755 -1.7055
15709TIP3    H268543   5.026   0.551  15.627  0.7401  0.6354 -2.6474
15710TIP3   OH268544   3.038   4.256   2.905  0.3947  0.3582  0.7886
15710TIP3    H168545   2.949   4.254   2.939  0.3628  0.2961  0.7018
15710TIP3    H268546   3.031   4.220   2.816  0.3443  1.2806  0.4098
15711TIP3   OH268547   5.650   5.558   3.563 -0.1361  0.3257 -0.0671
15711TIP3    H168548   5.613   5.637   3.603  0.3142  0.8702 -0.7047
15711TIP3    H268549   5.640   5.490   3.629 -5.5716 -0.4788 -1.4758
15712TIP3   OH268550   2.825   1.621   2.221  0.7614  0.0689  0.3756
15712TIP3    H168551   2.739   1.658   2.242  0.7633  0.0762  0.3699
15712TIP3    H268552   2.885   1.665   2.280  0.8181  0.3410  0.1196
15713TIP3   OH268553   0.199   5.461  16.054 -0.0843 -0.2505 -0.6462
15713TIP3    H168554   0.203   5.550  16.088  0.4511  0.1387 -1.6864
15713TIP3    H268555   0.244   5.407  16.119 -2.1361 -0.0801  0.9428
15714TIP3   OH268556   3.537   1.194  10.804  0.4471 -0.4122  0.2106
15714TIP3    H168557   3.584   1.155  10.877  0.6234  0.5651  0.6291
15714TIP3    H268558   3.447   1.200  10.834  0.3275 -0.9218 -0.0334
15715TIP3   OH268559   2.660   1.842   2.198  0.1367  0.0617 -0.2704
15715TIP3    H168560   2.631   1.810   2.112  0.6226  1.9725 -1.1729
15715TIP3    H268561   2.750   1.869   2.184  0.3513 -0.0114  0.9574
15716TIP3   OH268562   4.263   4.096  13.374  0.4443  0.6342  0.4886
15716TIP3    H168563   4.330   4.131  13.315 -0.2931  0.5641 -0.3994
15716TIP3    H268564   4.198   4.057  13.316  0.6511 -1.1341  1.4196
15717TIP3   OH268565   4.663   0.475   4.394 -0.3181  0.0633 -0.2726
15717TIP3    H168566   4.624   0.467   4.307 -1.2952  2.5038 -0.0995
15717TIP3    H268567   4.611   0.417   4.449 -1.6919  0.8867 -0.6898
15718TIP3   OH268568   2.986   1.971   1.751 -0.0930 -0.6667  0.2818
15718TIP3    H168569   2.981   2.036   1.820 -0.9416 -0.9568  0.5063
15718TIP3    H268570   2.967   2.020   1.671  1.9745 -0.1187  0.1072
15719TIP3   OH268571   6.058   3.295   5.126  0.3844 -0.0092  0.0821
15719TIP3    H168572   6.089   3.386   5.128  1.5187 -0.3915 -0.0350
15719TIP3    H268573   5.963   3.303   5.116  0.5553  1.1626 -0.7946
15720TIP3   OH268574   0.686   6.537  16.429 -0.1783  0.6011  0.3853
15720TIP3    H168575   0.682   6.443  16.412 -1.7828  0.4707  1.4020
15720TIP3    H268576   0.606   6.556  16.477  0.8574  2.2237  1.5105
15721TIP3   OH268577   5.642   2.571   3.687 -0.4552  0.0727  0.7568
15721TIP3    H168578   5.647   2.622   3.768  1.4432  1.2172 -0.0641
15721TIP3    H268579   5.724   2.588   3.642 -2.2076  0.9152 -2.3136
15722TIP3   OH268580   1.890   4.028  11.643 -0.3163  0.3038 -0.4895
15722TIP3    H168581   1.881   4.085  11.567 -0.7419  0.4210 -0.3541
15722TIP3    H268582   1.849   3.945  11.616 -0.9984  0.5354 -0.1927
15723TIP3   OH268583   3.105   0.065   3.269 -0.3092  0.6903 -0.5405
15723TIP3    H168584   3.190   0.022   3.259 -0.1794  0.6795  0.5326
15723TIP3    H268585   3.127   0.157   3.283 -0.3575  0.3597  1.9054
15724TIP3   OH268586   5.498   3.047   4.163 -0.0434 -0.8830 -0.0860
15724TIP3    H168587   5.458   2.962   4.182  1.0270 -1.5941 -0.9333
15724TIP3    H268588   5.475   3.064   4.071  0.3802 -0.6184 -0.1443
15725TIP3   OH268589   0.422   0.832   2.295  0.7115 -0.1269 -0.6741
15725TIP3    H168590   0.499   0.788   2.330  0.4974 -1.1507 -1.4586
15725TIP3    H268591   0.454   0.877   2.216  0.4547 -0.8103 -1.1758
15726TIP3   OH268592   3.174   4.031   2.991 -0.1858  0.2165 -0.4045
15726TIP3    H168593   3.178   3.977   2.912 -0.4172  1.6843 -1.4385
15726TIP3    H268594   3.146   4.117   2.960  2.5545  1.6362  0.8631
15727TIP3   OH268595   4.554   0.592  15.244  0.2562 -0.2251  0.1580
15727TIP3    H168596   4.550   0.513  15.297 -1.1338  0.2371  0.7603
15727TIP3    H268597   4.551   0.664  15.307 -0.0738  0.3222 -0.4722
15728TIP3   OH268598   3.594   4.920  16.506 -0.1184 -0.2499 -0.6355
15728TIP3    H168599   3.565   4.996  16.556  0.0863 -1.2768  1.0641
15728TIP3    H268600   3.646   4.869  16.568  0.6554 -1.2359 -2.0731
15729TIP3   OH268601   0.815   5.131  11.579 -0.2863 -0.0456 -0.3428
15729TIP3    H168602   0.756   5.069  11.535 -0.8604  1.2982 -1.5305
15729TIP3    H268603   0.902   5.106  11.550 -0.4765 -0.5556 -0.4833
15730TIP3   OH268604   2.794   4.122  16.653  0.3386 -0.6525 -0.3593
15730TIP3    H168605   2.699   4.126  16.666  0.6180 -1.5975  2.1133
15730TIP3    H268606   2.805   4.141  16.559 -2.3472 -1.5586 -0.9178
15731TIP3   OH268607   4.289   1.490  14.617  0.3981  0.4899 -0.5111
15731TIP3    H168608   4.206   1.457  14.584  0.6344 -0.4556 -0.1907
15731TIP3    H268609   4.299   1.448  14.703  2.3403 -1.3510 -1.5674
15732TIP3   OH268610   3.535   0.469   3.698  0.3472 -0.1578  0.7340
15732TIP3    H168611   3.444   0.465   3.670  0.4264 -1.0023  0.5836
15732TIP3    H268612   3.585   0.452   3.618  0.6217 -0.1690  0.9083
15733TIP3   OH268613   5.611   5.103  10.931  0.5640 -0.2599 -0.4026
15733TIP3    H168614   5.598   5.184  10.980 -0.9849  1.3097 -3.2617
15733TIP3    H268615   5.651   5.131  10.849  0.5290 -2.4688 -1.2037
15734TIP3   OH268616   5.398   2.190  15.463 -0.6784 -0.1178 -0.1145
15734TIP3    H168617   5.364   2.189  15.552 -1.1297 -0.9372 -0.2900
15734TIP3    H268618   5.371   2.106  15.426  1.6196 -0.8326 -0.2310
15735TIP3   OH268619   6.113   5.504  12.562 -0.0600  0.3658  0.1710
15735TIP3    H168620   6.186   5.562  12.584 -0.6317  1.2747 -0.2973
15735TIP3    H268621   6.036   5.545  12.601 -0.7197  0.7663 -1.4772
15736TIP3   OH268622   0.498   0.069  14.341  0.4300 -0.3806  0.1378
15736TIP3    H168623   0.534  -0.015  14.371 -2.0227 -1.2963  0.6069
15736TIP3    H268624   0.540   0.135  14.396 -0.0247 -1.5878  1.9668
15737TIP3   OH268625   5.014   6.289   0.826 -0.8474 -0.5921  0.1761
15737TIP3    H168626   4.966   6.364   0.860 -0.6100  0.0741 -0.9318
15737TIP3    H268627   5.041   6.315   0.737  0.7234 -1.3146  0.4146
15738TIP3   OH268628   0.320   1.598   3.809 -0.2116  0.1024 -0.2167
15738TIP3    H168629   0.331   1.667   3.744  0.0034  0.9189  0.6842
15738TIP3    H268630   0.395   1.607   3.867 -1.8093  1.1490  1.7492
15739TIP3   OH268631   4.392   0.246  13.275 -0.7446 -0.6814 -0.4043
15739TIP3    H168632   4.354   0.193  13.345 -1.6681  2.6608  1.7013
15739TIP3    H268633   4.326   0.312  13.256  0.7584  0.3125 -2.3713
15740TIP3   OH268634   1.441   6.127  14.669 -0.2492  0.1294 -0.1713
15740TIP3    H168635   1.495   6.164  14.600 -0.4424  0.6980 -0.0216
15740TIP3    H268636   1.447   6.033  14.657  2.1190  0.0976  0.8326
15741TIP3   OH268637   0.608   6.659   6.254  0.3835  0.5003 -0.2117
15741TIP3    H168638   0.545   6.643   6.325  0.7411  1.4813  0.3289
15741TIP3    H268639   0.600   6.582   6.198 -2.6465  1.4437 -1.1659
15742TIP3   OH268640   6.565   0.642   2.153 -0.2091  0.4807 -0.5780
15742TIP3    H168641   6.659   0.656   2.153  0.0257 -1.0233  0.2198
15742TIP3    H268642   6.529   0.721   2.194  0.8229  0.3419  0.6080
15743TIP3   OH268643   3.706   3.952  11.389 -0.6768  0.0265 -0.5539
15743TIP3    H168644   3.737   4.015  11.324 -0.1063  1.0389  0.6867
15743TIP3    H268645   3.616   3.980  11.408 -0.1190  1.0489  0.6720
15744TIP3   OH268646   1.444   2.036   0.294 -0.5350 -0.2333  0.5172
15744TIP3    H168647   1.368   1.982   0.314 -0.1217 -0.5772  1.1978
15744TIP3    H268648   1.408   2.118   0.261 -1.2104 -0.2630  1.1669
15745TIP3   OH268649   3.981   6.344   3.798  0.1922  0.3882  0.4829
15745TIP3    H168650   3.976   6.406   3.870  1.1975  0.3165  0.6282
15745TIP3    H268651   4.072   6.312   3.800  0.0957  0.0197 -0.5039
15746TIP3   OH268652   2.967   2.106  15.863 -0.3112 -0.3624 -0.0954
15746TIP3    H168653   3.024   2.047  15.912 -1.9580 -1.6251  0.3099
15746TIP3    H268654   2.939   2.171  15.928 -0.3135 -0.4394 -0.0194
15747TIP3   OH268655   1.535   4.006   0.458  0.1487 -0.6992  0.0017
15747TIP3    H168656   1.512   3.928   0.509  2.3988 -0.8913  0.8038
15747TIP3    H268657   1.535   3.976   0.367 -0.8927 -1.1502  0.1480
15748TIP3   OH268658   1.964   2.606  11.698  0.0884  0.3472 -0.1122
15748TIP3    H168659   1.913   2.662  11.639 -0.9813 -0.1733  0.3073
15748TIP3    H268660   2.054   2.639  11.691 -0.5767  2.2855  0.3385
15749TIP3   OH268661   0.178   5.729  13.518 -0.0007 -0.1705  0.1216
15749TIP3    H168662   0.206   5.716  13.608  1.6477 -1.7861 -0.5878
15749TIP3    H268663   0.244   5.788  13.481 -0.8865  0.8009  0.0581
15750TIP3   OH268664   2.124   2.406  16.937 -0.0070 -0.1536 -0.0766
15750TIP3    H168665   2.111   2.342  17.006  1.8315  0.2385  0.6539
15750TIP3    H268666   2.056   2.472  16.952 -0.8079 -1.0418  0.2084
15751TIP3   OH268667   4.769   0.487  13.567  0.0682  0.1122  0.4530
15751TIP3    H168668   4.796   0.396  13.577 -3.3015 -0.7583  2.6123
15751TIP3    H268669   4.717   0.488  13.486  0.7173  0.2657  0.0397
15752TIP3   OH268670   1.682   5.505   4.147  0.3665  0.1359  0.2047
15752TIP3    H168671   1.611   5.447   4.118 -0.1902  0.4424  0.9369
15752TIP3    H268672   1.756   5.482   4.091 -0.5805  0.4563 -1.1911
15753TIP3   OH268673   3.994   3.708  10.783 -0.3231  0.5614 -0.2571
15753TIP3    H168674   3.919   3.651  10.802  0.2142 -0.2503 -0.5593
15753TIP3    H268675   3.971   3.792  10.823  0.4103 -0.8322  3.2891
15754TIP3   OH268676   3.729   1.041   1.741  0.4246 -0.3197 -0.2049
15754TIP3    H168677   3.657   1.032   1.678 -2.2013  0.2159  2.6244
15754TIP3    H268678   3.776   1.120   1.714 -0.5208 -0.2161 -1.5734
15755TIP3   OH268679   6.533   6.715  15.078  0.2682  0.4229  1.1843
15755TIP3    H168680   6.493   6.687  15.161  0.3603 -0.2257  1.0149
15755TIP3    H268681   6.459   6.743  15.025  0.2745  1.5088  1.7330
15756TIP3   OH268682   0.725   5.046   1.493 -0.2035  0.4708  0.0694
15756TIP3    H168683   0.676   4.982   1.441 -1.0437  1.4390 -0.3547
15756TIP3    H268684   0.796   5.075   1.436 -0.2053  0.3779  0.0213
15757TIP3   OH268685   3.113   6.466  16.632 -0.2685  0.0419 -0.0297
15757TIP3    H168686   3.198   6.511  16.629  0.5518 -1.5707 -2.1332
15757TIP3    H268687   3.057   6.518  16.574 -1.0311  1.6230  2.0524
15758TIP3   OH268688   4.998   5.462   1.573 -0.1725 -0.1324  0.2019
15758TIP3    H168689   5.046   5.487   1.652  1.2001 -2.1526  0.0225
15758TIP3    H268690   4.925   5.410   1.605 -0.4216  0.2291  0.2288
15759TIP3   OH268691   4.926   6.636  12.879 -0.1231  0.1658 -0.3181
15759TIP3    H168692   4.837   6.646  12.911 -0.9355  2.3712 -3.0467
15759TIP3    H268693   4.973   6.712  12.912  0.6509 -0.7760  0.7716
15760TIP3   OH268694   2.186   1.336  14.815 -0.3445 -0.0297  0.1413
15760TIP3    H168695   2.144   1.353  14.731  1.3290 -1.8296 -1.1075
15760TIP3    H268696   2.258   1.400  14.818  0.9440 -1.3919 -0.8377
15761TIP3   OH268697   4.083   1.902  13.759 -0.7762  0.2156 -0.2227
15761TIP3    H168698   4.017   1.950  13.809 -1.1317  2.0195 -2.3209
15761TIP3    H268699   4.162   1.955  13.766 -0.9793  0.7754 -1.9970
15762TIP3   OH268700   3.901   4.612  14.538  0.1062 -0.2254 -0.4612
15762TIP3    H168701   3.884   4.706  14.531  1.5670  0.0563 -0.3430
15762TIP3    H268702   3.833   4.580  14.598  0.4978  1.0202  0.6835
15763TIP3   OH268703   5.708   0.513   3.499  0.0740  0.7943  0.0357
15763TIP3    H168704   5.626   0.562   3.503  0.1919  0.8947  1.6206
15763TIP3    H268705   5.766   0.559   3.560 -0.0212 -1.6752  2.0523
15764TIP3   OH268706   5.602   5.113   0.445  0.2535 -0.3365  0.1594
15764TIP3    H168707   5.535   5.063   0.491 -0.7163  2.0538  1.4201
15764TIP3    H268708   5.684   5.089   0.488 -0.2725 -0.4030  1.1365
15765TIP3   OH268709   6.553   5.275  15.472 -0.3065  0.3147 -0.5150
15765TIP3    H168710   6.644   5.301  15.490 -0.2400 -0.0007 -0.3903
15765TIP3    H268711   6.503   5.316  15.543 -0.1670 -0.1185 -0.1615
15766TIP3   OH268712   5.855   1.991  11.082 -0.2011 -0.4227  0.1702
15766TIP3    H168713   5.930   2.050  11.071 -0.5707 -0.3756 -2.4444
15766TIP3    H268714   5.782   2.049  11.105 -0.5458  0.1595 -2.3053
15767TIP3   OH268715   1.099   5.798   2.102 -0.0013  0.0149 -0.1421
15767TIP3    H168716   1.167   5.843   2.052 -0.6206  0.0659 -0.9537
15767TIP3    H268717   1.145   5.759   2.176  0.5059  2.3115  0.8127
15768TIP3   OH268718   5.026   2.393  16.579 -0.3013 -0.7722 -0.2823
15768TIP3    H168719   5.041   2.439  16.496 -0.3561 -0.9773 -0.4050
15768TIP3    H268720   4.974   2.316  16.555  1.1435 -1.7460 -0.3017
15769TIP3   OH268721   5.576   2.429  14.670 -0.4098  0.4561 -0.1630
15769TIP3    H168722   5.483   2.410  14.662  0.0246 -1.3306 -1.3247
15769TIP3    H268723   5.609   2.428  14.580  0.8516  0.4541  0.2768
15770TIP3   OH268724   2.248   6.578  14.361 -0.0448  0.1098  0.1345
15770TIP3    H168725   2.163   6.605  14.397  0.1539 -0.0395  0.7126
15770TIP3    H268726   2.274   6.503  14.414 -0.0143 -0.4547 -0.6825
15771TIP3   OH268727   0.761   6.514  11.547 -0.2422  0.1984  0.1970
15771TIP3    H168728   0.817   6.458  11.493  1.7007  2.8810 -0.6427
15771TIP3    H268729   0.675   6.510  11.503  0.4763 -0.2502 -1.2001
15772TIP3   OH268730   5.299   4.429   0.647  0.3985  0.0891  0.2353
15772TIP3    H168731   5.222   4.388   0.687 -0.4292  0.5018 -0.9297
15772TIP3    H268732   5.283   4.424   0.553  2.9762 -2.1093 -0.1210
15773TIP3   OH268733   3.612   0.246   1.281  0.3720 -0.4664 -0.6683
15773TIP3    H168734   3.629   0.322   1.336  3.9390 -0.3799 -1.7840
15773TIP3    H268735   3.629   0.171   1.338 -0.5478 -0.4384 -0.3418
15774TIP3   OH268736   5.238   1.532  11.941 -0.2455  0.0678  0.0881
15774TIP3    H168737   5.257   1.443  11.912  0.8798  0.7434 -1.2843
15774TIP3    H268738   5.209   1.577  11.862 -1.3319  0.7933  0.8848
15775TIP3   OH268739   2.090   0.707  15.706  0.4156  0.3322 -0.0277
15775TIP3    H168740   2.005   0.749  15.692  1.3179  1.6549 -1.6065
15775TIP3    H268741   2.127   0.698  15.619  1.7486 -0.5663  0.6256
15776TIP3   OH268742   4.900   5.722   1.233  0.3792 -0.3204 -0.1683
15776TIP3    H168743   4.984   5.676   1.226 -0.0305 -0.9509 -1.0880
15776TIP3    H268744   4.900   5.782   1.159  0.6878  0.7997  0.7360
15777TIP3   OH268745   6.283   5.606   4.880  0.2476  1.0044 -0.0202
15777TIP3    H168746   6.242   5.632   4.963  0.5634  0.6919  0.2293
15777TIP3    H268747   6.345   5.538   4.904 -2.7966 -2.2744 -1.0709
15778TIP3   OH268748   6.457   4.637   1.704 -0.2860  0.6312  0.1979
15778TIP3    H168749   6.473   4.687   1.784 -1.1015  1.5028 -0.1680
15778TIP3    H268750   6.370   4.598   1.717 -0.2135  0.3746 -0.0678
15779TIP3   OH268751   3.544   1.939  14.854 -0.9677 -0.5843  0.1894
15779TIP3    H168752   3.532   1.895  14.939  0.0493 -0.8337  0.2080
15779TIP3    H268753   3.456   1.942  14.816 -1.3226 -1.0810  0.9551
15780TIP3   OH268754   6.041   0.910  16.021  0.2288  0.2230 -0.4518
15780TIP3    H168755   6.037   0.956  16.105  0.2712 -0.1356 -0.2566
15780TIP3    H268756   6.134   0.909  15.999  0.4950 -1.7668  0.6431
15781TIP3   OH268757   0.980   4.221   5.038 -0.0592 -0.2217  0.0065
15781TIP3    H168758   1.045   4.153   5.057  0.8307  0.6059 -0.0108
15781TIP3    H268759   0.914   4.177   4.984  0.5092 -1.0637 -0.0140
15782TIP3   OH268760   5.032   0.920   2.785  0.0960 -0.3482 -0.2306
15782TIP3    H168761   5.122   0.943   2.809 -0.1251 -0.5281  0.7999
15782TIP3    H268762   4.987   1.004   2.776 -0.0122 -0.2920  0.7772
15783TIP3   OH268763   2.327   3.677   0.520  0.0763  0.1489  0.0211
15783TIP3    H168764   2.327   3.617   0.595 -0.3639  0.1675  0.0370
15783TIP3    H268765   2.268   3.636   0.457 -1.8622  1.5899  0.8529
15784TIP3   OH268766   1.668   1.135  10.422 -0.2701  0.0114 -0.0764
15784TIP3    H168767   1.623   1.160  10.503 -0.6387  0.3118 -0.3724
15784TIP3    H268768   1.757   1.169  10.432 -1.2381  3.0522 -1.2210
15785TIP3   OH268769   1.665   4.897   4.247 -0.0700  0.2578  0.3562
15785TIP3    H168770   1.668   4.888   4.152  1.6865  1.3045  0.2887
15785TIP3    H268771   1.699   4.813   4.279  0.8032  0.4797  0.0249
15786TIP3   OH268772   2.405   5.879   2.282  0.3386  0.4695 -0.4829
15786TIP3    H168773   2.394   5.877   2.187 -0.2761  2.2973 -0.4622
15786TIP3    H268774   2.341   5.942   2.313 -0.9061 -1.6080  1.3810
15787TIP3   OH268775   5.326   2.558   4.596  0.3469 -0.0080  0.4047
15787TIP3    H168776   5.375   2.589   4.519 -0.3843  0.2425  0.0293
15787TIP3    H268777   5.267   2.490   4.561 -0.2542  0.3721  0.6680
15788TIP3   OH268778   3.649   0.850  13.442  0.5115  0.3035  0.4613
15788TIP3    H168779   3.743   0.863  13.456  0.3877  0.3295  1.3034
15788TIP3    H268780   3.642   0.819  13.352  1.4901 -1.3759  0.9394
15789TIP3   OH268781   6.361   4.209  13.712 -0.0076 -0.0746  0.0373
15789TIP3    H168782   6.286   4.238  13.765 -0.6876  0.3571 -1.1442
15789TIP3    H268783   6.322   4.183  13.629  1.1631  0.1591 -0.5797
15790TIP3   OH268784   5.930   2.793   0.310 -0.0227  0.0426 -0.2050
15790TIP3    H168785   5.937   2.699   0.293 -0.4197  0.3645 -2.2666
15790TIP3    H268786   5.847   2.819   0.269 -0.9851  0.9080  2.2083
15791TIP3   OH268787   0.911   2.579  14.572 -0.0124  0.1273  0.6417
15791TIP3    H168788   0.970   2.641  14.612 -0.2916  0.5541  0.3987
15791TIP3    H268789   0.868   2.629  14.502  1.0455 -0.8084 -0.7002
15792TIP3   OH268790   5.255   4.872   2.586  0.6240 -0.3640  0.3015
15792TIP3    H168791   5.162   4.889   2.604  0.9863  0.5165  1.3779
15792TIP3    H268792   5.265   4.778   2.600  0.2124 -0.2199  1.6281
15793TIP3   OH268793   2.570   1.022  11.431  0.2252 -0.1563  0.0657
15793TIP3    H168794   2.521   0.942  11.416 -0.2697  0.0986  0.3108
15793TIP3    H268795   2.645   0.995  11.484 -0.2757 -0.3445  0.6689
15794TIP3   OH268796   2.255   3.802   2.363 -0.3177  0.1021  0.5327
15794TIP3    H168797   2.197   3.847   2.302 -1.4975 -0.2659  1.3661
15794TIP3    H268798   2.286   3.872   2.421  2.8902  0.9322 -2.0334
15795TIP3   OH268799   3.166   4.527   5.744  0.3141  0.0669  0.2083
15795TIP3    H168800   3.165   4.480   5.660 -1.1295 -0.4385  0.5038
15795TIP3    H268801   3.256   4.560   5.752  0.6591 -0.5180 -1.1827
15796TIP3   OH268802   0.143   1.163   2.368  0.2127  0.0029  0.2132
15796TIP3    H168803   0.112   1.204   2.288  0.5039 -0.2802 -0.0493
15796TIP3    H268804   0.141   1.233   2.433 -1.9254 -0.2591  0.4674
15797TIP3   OH268805   5.655   2.980   5.278  0.1857  0.3917  0.0849
15797TIP3    H168806   5.699   3.056   5.240 -0.4249  0.5542 -0.3135
15797TIP3    H268807   5.677   2.908   5.219  2.0662 -0.0866  1.3337
15798TIP3   OH268808   5.753   4.503  15.249  0.4893 -0.5103 -0.0815
15798TIP3    H168809   5.787   4.426  15.295 -2.9178 -1.1845  1.5267
15798TIP3    H268810   5.763   4.483  15.156  0.9869 -2.2522  0.3369
15799TIP3   OH268811   5.164   6.546  13.395  0.6194 -0.4469 -0.4559
15799TIP3    H168812   5.090   6.591  13.352 -0.0277  0.7178  1.7767
15799TIP3    H268813   5.124   6.498  13.467  1.8471 -1.2394 -0.2879
15800TIP3   OH268814   4.059   3.534   0.870  0.0060  0.6145  0.6020
15800TIP3    H168815   4.145   3.575   0.886  0.4231 -0.9464  2.5514
15800TIP3    H268816   4.059   3.517   0.776  1.9110  0.5228  0.5806
15801TIP3   OH268817   5.518   3.040  12.053  0.2678  0.3716  0.2585
15801TIP3    H168818   5.537   3.019  12.145  1.4415  0.7781  0.1139
15801TIP3    H268819   5.447   2.980  12.029  1.4498 -1.2688  0.7713
15802TIP3   OH268820   3.370   0.517  15.344  1.0991 -0.0013 -0.5104
15802TIP3    H168821   3.348   0.536  15.436  3.1029 -0.8755  0.1785
15802TIP3    H268822   3.313   0.575  15.293 -0.9267 -0.3851  1.2506
15803TIP3   OH268823   1.872   0.156   0.295 -0.0116 -0.4493  0.0066
15803TIP3    H168824   1.780   0.132   0.287  0.2423 -1.1480 -0.8261
15803TIP3    H268825   1.920   0.082   0.257  0.8364  0.6635 -1.1353
15804TIP3   OH268826   5.324   2.070  15.117  0.2864 -0.4561  0.4514
15804TIP3    H168827   5.284   2.154  15.139  1.6461 -0.1738  1.9647
15804TIP3    H268828   5.415   2.092  15.095  0.2546 -1.3495 -0.5759
15805TIP3   OH268829   6.044   2.302  13.959  0.2730  0.4022 -0.2962
15805TIP3    H168830   5.964   2.337  13.921 -0.1214  1.7336  1.6877
15805TIP3    H268831   6.019   2.274  14.047  1.9871  0.8524  0.3569
15806TIP3   OH268832   3.991   3.603  13.607  0.1096 -0.1188  0.2100
15806TIP3    H168833   4.055   3.650  13.553 -0.2518  0.1926  0.0478
15806TIP3    H268834   3.942   3.549  13.544 -0.3842  0.3256  0.2122
15807TIP3   OH268835   5.166   1.332   0.378 -0.3791  0.0296 -0.0102
15807TIP3    H168836   5.073   1.326   0.399  0.0048 -1.0578  1.4352
15807TIP3    H268837   5.170   1.319   0.283 -1.6937  0.1046 -0.0768
15808TIP3   OH268838   4.030   3.538  14.138 -0.2055  0.2461 -0.2683
15808TIP3    H168839   3.997   3.551  14.049  2.2739  0.2792 -1.2423
15808TIP3    H268840   4.102   3.601  14.146  0.9755 -1.2282  0.9885
15809TIP3   OH268841   6.206   0.794  11.408  0.1449 -0.1721  0.0403
15809TIP3    H168842   6.131   0.847  11.379  0.2150  0.6767  1.4028
15809TIP3    H268843   6.166   0.723  11.459  0.1208 -0.9371 -1.0234
15810TIP3   OH268844   1.691   1.018   5.137 -0.0837  0.5843 -0.8568
15810TIP3    H168845   1.704   1.111   5.158 -0.6012  0.9278 -2.0255
15810TIP3    H268846   1.596   1.006   5.138  0.0213 -0.1898  0.3553
15811TIP3   OH268847   6.137   1.709  16.994  0.3211 -0.5613 -0.4712
15811TIP3    H168848   6.075   1.693  16.923  0.1880 -1.2855 -0.1927
15811TIP3    H268849   6.187   1.628  17.002  1.5462  0.1271 -0.9129
15812TIP3   OH268850   4.432   0.251   3.398  0.7426 -0.3120 -0.0423
15812TIP3    H168851   4.524   0.230   3.384 -0.5536 -4.8111 -3.2790
15812TIP3    H268852   4.400   0.279   3.312 -1.2018 -0.1596  0.6872
15813TIP3   OH268853   0.642   6.639  14.424 -0.3884  0.3699  0.0739
15813TIP3    H168854   0.645   6.563  14.482 -1.6559 -1.4660 -2.1814
15813TIP3    H268855   0.714   6.695  14.454 -0.6258 -0.8095  2.9735
15814TIP3   OH268856   4.487   2.161   0.865 -0.8592 -0.0134 -0.1029
15814TIP3    H168857   4.481   2.066   0.878  1.9229 -0.1326  0.5962
15814TIP3    H268858   4.476   2.198   0.953 -1.1677  0.2915 -0.2667
15815TIP3   OH268859   3.533   6.072  13.160 -0.3217  0.1074 -0.4292
15815TIP3    H168860   3.615   6.044  13.200 -0.0962 -0.0042 -0.9648
15815TIP3    H268861   3.499   6.139  13.219  0.1838  0.2010 -0.2427
15816TIP3   OH268862   2.505   0.763   5.511  0.0213 -0.0418 -0.3180
15816TIP3    H168863   2.420   0.734   5.543 -0.7863  2.1886 -0.4258
15816TIP3    H268864   2.511   0.724   5.423 -0.6285 -0.6504 -0.1018
15817TIP3   OH268865   6.548   1.673   0.154 -0.0477 -0.6872 -0.1632
15817TIP3    H168866   6.574   1.684   0.063 -1.0445  0.1426 -0.3635
15817TIP3    H268867   6.585   1.588   0.179  2.0504  0.0528 -0.6686
15818TIP3   OH268868   2.743   0.456  11.450 -0.0057 -0.2609  0.2102
15818TIP3    H168869   2.680   0.502  11.395 -1.7581  1.2649  3.3479
15818TIP3    H268870   2.826   0.460  11.402 -1.5642  0.5598 -2.4849
15819TIP3   OH268871   5.662   2.419   4.647  0.2115 -0.2637 -0.6607
15819TIP3    H168872   5.684   2.456   4.561 -1.6465  0.7257 -0.7278
15819TIP3    H268873   5.648   2.496   4.703  0.8735 -0.9005  0.3972
15820TIP3   OH268874   4.944   6.403  12.725  0.0463  0.5577 -0.2628
15820TIP3    H168875   4.996   6.467  12.773  0.3926  0.4477 -0.4867
15820TIP3    H268876   4.861   6.400  12.771  0.1908  0.8354  0.0198
15821TIP3   OH268877   0.682   2.920  15.132  0.7546 -0.7025  0.5088
15821TIP3    H168878   0.616   2.864  15.173 -0.8515  0.0884 -0.9371
15821TIP3    H268879   0.761   2.907  15.185 -0.8361 -0.8565  2.9327
15822TIP3   OH268880   1.019   2.226   2.514 -0.4277 -0.1552  0.2902
15822TIP3    H168881   1.045   2.304   2.563 -0.3963  0.4990 -0.7523
15822TIP3    H268882   1.027   2.154   2.577 -0.9750  0.7557  1.4180
15823TIP3   OH268883   2.173   2.385   4.474  0.1846 -0.0142  0.3992
15823TIP3    H168884   2.148   2.297   4.502  1.5178  0.3876  2.9449
15823TIP3    H268885   2.129   2.444   4.536  0.4099  1.0520 -0.4390
15824TIP3   OH268886   1.568   6.466   5.009 -0.3059 -0.6374  0.6232
15824TIP3    H168887   1.619   6.406   5.063  2.3086  0.6486 -0.3109
15824TIP3    H268888   1.633   6.514   4.958 -2.4594  1.1886 -0.5362
15825TIP3   OH268889   0.314   1.488  13.033  0.4396  0.0903  0.1105
15825TIP3    H168890   0.321   1.396  13.057 -2.4686 -0.0709  0.5183
15825TIP3    H268891   0.359   1.535  13.103  0.0538 -0.8948  1.0198
15826TIP3   OH268892   5.184   5.241   4.995 -0.0622 -0.2926  0.5207
15826TIP3    H168893   5.169   5.287   5.078  0.4684 -0.4129  0.6819
15826TIP3    H268894   5.233   5.163   5.019 -1.4873 -1.2671  0.3213
15827TIP3   OH268895   6.263   0.949   5.163  0.3164 -0.4122 -1.0534
15827TIP3    H168896   6.351   0.965   5.197  1.2993  0.0108 -3.7023
15827TIP3    H268897   6.239   0.863   5.199  0.6577  0.6636  1.9080
15828TIP3   OH268898   1.835   2.201  12.605  0.0765  0.3223 -0.2974
15828TIP3    H168899   1.744   2.204  12.574  0.7421  0.3867 -2.2749
15828TIP3    H268900   1.857   2.108  12.609  0.5865  0.3751 -1.8001
15829TIP3   OH268901   1.530   5.383   6.615 -0.5945 -0.1943  0.2839
15829TIP3    H168902   1.508   5.304   6.664  1.5736 -0.7635  0.3667
15829TIP3    H268903   1.527   5.356   6.523  0.8236 -0.5581  0.3393
15830TIP3   OH268904   4.833   5.021   2.952  0.1444 -0.0381 -0.2019
15830TIP3    H168905   4.831   5.063   3.038 -0.8738  2.1778 -1.2516
15830TIP3    H268906   4.907   5.062   2.907  1.0103 -1.5814 -0.2092
15831TIP3   OH268907   6.611   2.555   2.650 -0.4676 -0.2797 -0.2643
15831TIP3    H168908   6.570   2.475   2.682 -0.2521  0.5249  2.1503
15831TIP3    H268909   6.543   2.622   2.658 -0.1293  0.1213 -0.6795
15832TIP3   OH268910   3.178   3.782   5.653 -0.1005 -0.4599  0.0135
15832TIP3    H168911   3.166   3.877   5.649 -0.8962 -0.6335 -3.4418
15832TIP3    H268912   3.092   3.746   5.632  0.0423 -1.9956  1.8926
15833TIP3   OH268913   1.633   3.221   0.505  0.4403 -0.3950 -0.4908
15833TIP3    H168914   1.545   3.240   0.539  1.3924  0.8865  1.3331
15833TIP3    H268915   1.642   3.277   0.428  0.6447  1.4871  0.8803
15834TIP3   OH268916   3.462   2.850  15.397 -0.0774  0.3597  0.4035
15834TIP3    H168917   3.533   2.915  15.391 -0.4496  0.8701  1.2777
15834TIP3    H268918   3.506   2.766  15.390  0.6193  0.6745  0.8418
15835TIP3   OH268919   5.849   4.520   0.254  0.2888 -0.1823 -0.1148
15835TIP3    H168920   5.874   4.514   0.161  1.1976 -1.3602  0.1877
15835TIP3    H268921   5.782   4.452   0.265  0.1449 -0.0084  0.0846
15836TIP3   OH268922   0.593   4.773  12.026  0.3847  0.5417 -0.4045
15836TIP3    H168923   0.622   4.696  12.076 -0.9780  0.2968  0.0396
15836TIP3    H268924   0.650   4.844  12.055 -0.4321  0.4156  1.5909
15837TIP3   OH268925   2.222   2.333   4.207 -0.2181 -0.3014 -0.3958
15837TIP3    H168926   2.232   2.423   4.175  0.1063 -0.7333 -1.5219
15837TIP3    H268927   2.224   2.342   4.302  0.5810  0.8042 -0.5021
15838TIP3   OH268928   4.938   2.338  17.043  0.6179  0.5970  0.2988
15838TIP3    H168929   4.994   2.370  16.972 -0.6909 -0.6867 -1.3139
15838TIP3    H268930   4.850   2.364  17.018  0.4843  3.4623  3.2944
15839TIP3   OH268931   3.461   4.487  16.678 -0.1713 -0.0862  0.3751
15839TIP3    H168932   3.410   4.406  16.677 -1.6445  0.8283 -1.1457
15839TIP3    H268933   3.419   4.541  16.745 -1.0318  0.5517 -0.6695
15840TIP3   OH268934   0.669   5.288  15.097  0.7151 -0.3793  0.2920
15840TIP3    H168935   0.626   5.227  15.157  2.4264 -1.3039  0.5917
15840TIP3    H268936   0.686   5.236  15.018 -0.4924  0.5252 -0.6026
15841TIP3   OH268937   0.369   5.939  13.139 -0.2410  0.2872 -0.2742
15841TIP3    H168938   0.421   5.910  13.064  1.4974 -1.3543  1.5122
15841TIP3    H268939   0.400   6.027  13.157  0.9647 -0.1803 -0.0636
15842TIP3   OH268940   4.979   6.021   5.121 -0.3629 -0.4109 -0.1087
15842TIP3    H168941   5.063   6.065   5.122  0.1720 -1.3966 -0.4519
15842TIP3    H268942   4.939   6.041   5.205  0.7752 -0.9872  0.5657
15843TIP3   OH268943   4.336   5.198   2.071  0.0788  0.1958 -0.3522
15843TIP3    H168944   4.248   5.214   2.107  0.0023 -2.1577  0.6116
15843TIP3    H268945   4.395   5.215   2.145  0.2363 -0.6011 -0.2898
15844TIP3   OH268946   3.967   2.392  11.611 -0.7732  0.3519 -0.0569
15844TIP3    H168947   4.051   2.383  11.656 -0.4269  0.7288 -0.6148
15844TIP3    H268948   3.969   2.481  11.574 -0.9115 -0.0597 -1.0763
15845TIP3   OH268949   0.534   3.227   5.855 -0.3160 -0.9039  0.0066
15845TIP3    H168950   0.537   3.132   5.839 -1.5297 -1.0599  0.6163
15845TIP3    H268951   0.509   3.234   5.948  0.4826  0.0123  0.1561
15846TIP3   OH268952   3.992   4.271  12.955 -0.1637  0.0695  0.4082
15846TIP3    H168953   3.915   4.225  12.988 -0.3325 -0.1130 -0.2202
15846TIP3    H268954   3.958   4.357  12.927 -0.0286  0.2138  0.6850
15847TIP3   OH268955   3.417   3.618  11.979  0.6168 -0.2543  0.3792
15847TIP3    H168956   3.375   3.552  11.924  1.4069 -1.1147  0.7916
15847TIP3    H268957   3.349   3.646  12.040  0.2164 -0.5190  0.0524
15848TIP3   OH268958   1.765   2.567   0.966  0.5627 -0.0194 -0.4284
15848TIP3    H168959   1.820   2.642   0.991  0.6768  0.2392 -1.4091
15848TIP3    H268960   1.820   2.490   0.982  0.2906  0.0778  0.9922
15849TIP3   OH268961   6.281   4.921   5.318  0.1973 -0.4931 -0.1224
15849TIP3    H168962   6.325   4.842   5.286 -0.2481 -0.6730 -0.3020
15849TIP3    H268963   6.187   4.902   5.308  0.0652 -0.3335  0.7829
15850TIP3   OH268964   2.081   5.072   0.604 -0.1100 -0.2467 -0.3841
15850TIP3    H168965   2.097   5.159   0.640  1.4399 -0.1511 -1.2591
15850TIP3    H268966   2.098   5.081   0.511  1.4271 -1.8137 -0.2747
15851TIP3   OH268967   6.444   4.035  11.168 -1.1289 -0.4427 -0.0252
15851TIP3    H168968   6.484   4.110  11.125 -1.1786  0.5024  1.5673
15851TIP3    H268969   6.516   3.975  11.186 -0.9696 -0.3880 -0.4674
15852TIP3   OH268970   1.275   6.392  17.188  0.0034 -0.4520  0.7613
15852TIP3    H168971   1.343   6.333  17.221 -0.9143 -2.1276 -0.3065
15852TIP3    H268972   1.321   6.448  17.125  1.0495  0.5448  2.3819
15853TIP3   OH268973   3.620   0.178  13.119 -0.0805 -0.0886  0.4197
15853TIP3    H168974   3.698   0.147  13.163 -0.4501  0.3737  1.4191
15853TIP3    H268975   3.563   0.102  13.113  0.5021 -0.4605 -0.4446
15854TIP3   OH268976   5.937   4.811  16.483  0.1056  0.2378 -0.1455
15854TIP3    H168977   5.876   4.867  16.437 -1.1604 -0.1001  1.0867
15854TIP3    H268978   5.947   4.734  16.427  0.3935  0.8493 -0.9450
15855TIP3   OH268979   0.895   6.115  11.744 -0.1281  0.0692  0.6073
15855TIP3    H168980   0.858   6.029  11.762 -1.8080  1.0129  1.7304
15855TIP3    H268981   0.829   6.177  11.773  1.6404  1.7764  1.1349
15856TIP3   OH268982   5.041   5.391   2.477 -0.0092 -0.1676  0.2399
15856TIP3    H168983   5.088   5.310   2.456  2.9377  1.5107  0.1275
15856TIP3    H268984   4.997   5.372   2.561  0.9606 -1.7378  0.4083
15857TIP3   OH268985   4.353   5.442  10.121  0.6320 -0.1655  0.0381
15857TIP3    H168986   4.409   5.482  10.055 -0.0042  1.7937  0.6586
15857TIP3    H268987   4.393   5.357  10.138  2.2640  0.3815 -0.9687
15858TIP3   OH268988   0.236   3.387   1.107 -0.0277 -0.0174  0.5563
15858TIP3    H168989   0.224   3.303   1.063  0.4798  0.2780 -0.1465
15858TIP3    H268990   0.295   3.366   1.180 -0.5582 -0.4276  0.8724
15859TIP3   OH268991   5.568   5.814  13.767 -0.0875  0.0224  0.4783
15859TIP3    H168992   5.600   5.771  13.846  1.4533  1.7127  0.7993
15859TIP3    H268993   5.507   5.881  13.800 -0.8558 -0.4899  0.1131
15860TIP3   OH268994   2.004   4.328   3.997 -0.4533  0.0580 -0.3432
15860TIP3    H168995   1.920   4.338   4.042 -0.4349 -1.1385 -0.0322
15860TIP3    H268996   1.980   4.317   3.905 -0.5894  0.4238 -0.3558
15861TIP3   OH268997   3.484   4.077   1.598  0.2827  0.5550 -0.2098
15861TIP3    H168998   3.462   4.017   1.669  0.3652  0.6240 -0.1275
15861TIP3    H268999   3.578   4.093   1.608 -0.1444  2.3708  1.0219
15862TIP3   OH269000   0.172   1.151  12.780  0.2214 -0.0982  0.6102
15862TIP3    H169001   0.202   1.231  12.738  3.2655  0.0413  2.8585
15862TIP3    H269002   0.079   1.165  12.796  0.0475  1.7276 -1.7240
15863TIP3   OH269003   2.720   2.641  14.130 -0.6128  0.0024 -0.4253
15863TIP3    H169004   2.717   2.628  14.035  0.8194  0.4361 -0.5494
15863TIP3    H269005   2.636   2.607  14.162 -1.3126  0.2961 -1.8943
15864TIP3   OH269006   0.837   4.513   1.351 -0.2023  0.6428  0.5975
15864TIP3    H169007   0.774   4.441   1.343  0.9354 -0.3026 -0.0290
15864TIP3    H269008   0.820   4.568   1.274 -1.0798  1.0691  1.0822
15865TIP3   OH269009   4.273   1.131   1.922 -0.2609 -0.0072 -0.0636
15865TIP3    H169010   4.308   1.124   1.833 -0.7636  0.4951 -0.3047
15865TIP3    H269011   4.204   1.065   1.926  0.5434 -0.8354  0.3356
15866TIP3   OH269012   1.546   2.839  14.744  0.0185  0.2423  0.2344
15866TIP3    H169013   1.547   2.846  14.649  2.5709  3.9215  0.4374
15866TIP3    H269014   1.589   2.755  14.762  1.1422  0.3543 -1.8160
15867TIP3   OH269015   2.995   3.330  15.701 -0.2878  0.0932 -0.4523
15867TIP3    H169016   3.028   3.288  15.780 -2.0134  3.6785  2.3479
15867TIP3    H269017   2.940   3.264  15.659 -0.7960 -1.3358  2.3643
15868TIP3   OH269018   6.386   5.687   0.147  0.4276  0.6704 -0.0948
15868TIP3    H169019   6.321   5.619   0.130  1.0567 -0.5756  2.1864
15868TIP3    H269020   6.431   5.658   0.226  2.0728  2.7657 -0.1960
15869TIP3   OH269021   6.277   2.175  17.149 -0.0810 -0.3124 -0.2779
15869TIP3    H169022   6.287   2.193  17.243  1.1768 -1.2791 -0.2187
15869TIP3    H269023   6.359   2.205  17.110 -0.3379 -0.5310 -0.9838
15870TIP3   OH269024   3.851   2.151   0.057  0.0702 -0.2199  0.1955
15870TIP3    H169025   3.793   2.217   0.020  0.1186 -0.3197 -0.0640
15870TIP3    H269026   3.900   2.196   0.125  0.0860  0.0040  0.0350
15871TIP3   OH269027   0.009   6.481  16.263 -0.1454 -0.9969 -0.0169
15871TIP3    H169028   0.007   6.573  16.288  2.1778 -1.0985  0.6140
15871TIP3    H269029  -0.016   6.434  16.343  0.8298 -1.0170  0.2763
15872TIP3   OH269030   4.255   1.354   1.577  0.0244  0.0879 -0.0718
15872TIP3    H169031   4.171   1.375   1.616 -0.5534 -2.4205  0.1295
15872TIP3    H269032   4.254   1.397   1.491 -1.6857 -0.3386 -0.2793
15873TIP3   OH269033   2.198   4.107  16.013 -0.3202  0.0801  0.7809
15873TIP3    H169034   2.170   4.042  16.078  2.0292 -1.9811 -0.1768
15873TIP3    H269035   2.117   4.135  15.971 -1.5436 -1.0171  2.3469
15874TIP3   OH269036   2.686   3.776  15.811  0.0701 -0.3198 -0.3774
15874TIP3    H169037   2.606   3.799  15.762 -0.5936 -0.5824  0.5661
15874TIP3    H269038   2.738   3.726  15.748 -0.2234  0.3924 -1.2076
15875TIP3   OH269039   4.917   5.074  14.805  0.2979 -0.2942  0.6875
15875TIP3    H169040   4.851   5.115  14.749  0.6392 -2.5051 -1.4393
15875TIP3    H269041   4.908   5.118  14.889 -0.6909  2.6666 -0.9059
15876TIP3   OH269042   5.187   4.288   3.598 -0.2138 -0.0056 -0.1594
15876TIP3    H169043   5.128   4.320   3.529  1.9069  2.7073 -0.8068
15876TIP3    H269044   5.215   4.202   3.568 -1.8271 -0.2184 -1.1067
15877TIP3   OH269045   1.440   0.866   4.092 -0.4857 -0.0117  0.1211
15877TIP3    H169046   1.532   0.890   4.085 -0.8125  1.0892 -0.4399
15877TIP3    H269047   1.392   0.938   4.051 -1.6658 -0.0676  1.3463
15878TIP3   OH269048   6.362   4.504   4.781  0.3037  0.2688 -0.1641
15878TIP3    H169049   6.420   4.477   4.709  0.5944  0.0172  0.1643
15878TIP3    H269050   6.344   4.423   4.828  0.9543  0.6016  0.6631
15879TIP3   OH269051   4.944   3.337  16.651 -0.0814  0.3245 -0.0046
15879TIP3    H169052   5.028   3.348  16.606  1.3411 -0.0839  2.4093
15879TIP3    H269053   4.940   3.410  16.712 -1.8155  0.6974 -0.5321
15880TIP3   OH269054   0.689   1.295   5.404  0.2297  0.3786 -0.8309
15880TIP3    H169055   0.657   1.364   5.463 -0.0713  0.6243 -1.2762
15880TIP3    H269056   0.692   1.337   5.318 -0.7751 -0.4016 -1.2674
15881TIP3   OH269057   1.824   1.994  11.862  0.3655  0.4478 -0.1598
15881TIP3    H169058   1.893   1.952  11.811 -2.2503 -1.6469 -2.1164
15881TIP3    H269059   1.788   1.924  11.916 -2.2737  0.7284 -1.4684
15882TIP3   OH269060   1.541   0.315   0.411 -0.4110  0.1672 -0.8107
15882TIP3    H169061   1.563   0.233   0.456 -2.4002 -0.4898 -0.9775
15882TIP3    H269062   1.622   0.365   0.412  0.5685 -1.3799  0.2142
15883TIP3   OH269063   5.277   3.518   0.722  0.4413 -0.3086  0.1148
15883TIP3    H169064   5.231   3.589   0.677 -0.1310 -0.7719 -0.0413
15883TIP3    H269065   5.322   3.471   0.652  3.2362  1.6158  0.5225
15884TIP3   OH269066   5.065   0.391  16.773 -0.3148  0.0536 -0.0163
15884TIP3    H169067   5.138   0.423  16.720 -0.0535  1.6252  1.2503
15884TIP3    H269068   5.075   0.435  16.857 -1.7040 -1.0954  0.7832
15885TIP3   OH269069   5.019   3.863   2.782  0.3580 -0.1224  0.1972
15885TIP3    H169070   4.969   3.904   2.713 -0.0682 -0.7984  0.0986
15885TIP3    H269071   5.110   3.873   2.755  0.3817  2.4417  1.1166
15886TIP3   OH269072   4.618   1.325  14.286  0.1334  0.1456 -0.3602
15886TIP3    H169073   4.697   1.326  14.232 -0.7361  0.0546 -1.6638
15886TIP3    H269074   4.574   1.243  14.262 -1.0944  0.9132 -0.7357
15887TIP3   OH269075   4.902   0.892  11.308  0.2168 -0.3614 -0.3013
15887TIP3    H169076   4.910   0.898  11.403 -0.8353  2.1520 -0.3403
15887TIP3    H269077   4.968   0.953  11.274 -0.3455 -0.2006 -1.1401
15888TIP3   OH269078   4.242   5.809  13.411 -0.1933 -0.4413  0.8524
15888TIP3    H169079   4.235   5.896  13.448  0.4897  0.3007 -0.7217
15888TIP3    H269080   4.193   5.753  13.471  0.0166  0.8866  2.2849
15889TIP3   OH269081   6.331   3.958   1.257 -0.5311  0.1383 -0.1062
15889TIP3    H169082   6.316   3.870   1.223 -2.1684  1.2654 -2.4921
15889TIP3    H269083   6.395   3.996   1.197 -2.2127  1.6048 -1.0150
15890TIP3   OH269084   1.750   0.764   4.268 -0.2078  0.0746  0.0148
15890TIP3    H169085   1.843   0.786   4.271 -0.1740  0.0070 -0.6185
15890TIP3    H269086   1.710   0.834   4.217 -0.3365 -0.4927 -0.6623
15891TIP3   OH269087   4.047   1.227  13.941  0.5155  0.3743  0.7007
15891TIP3    H169088   4.055   1.143  13.895  0.3115  0.6431  0.1729
15891TIP3    H269089   4.007   1.285  13.877 -2.0223  0.1037  2.0066
15892TIP3   OH269090   1.907   0.620   5.288  0.0532  0.1826 -0.1160
15892TIP3    H169091   1.817   0.621   5.323  0.2539 -0.5368  0.4319
15892TIP3    H269092   1.922   0.710   5.258 -0.5803  0.4975  0.4905
15893TIP3   OH269093   5.510   4.918  15.035  0.9079 -0.0288 -0.1288
15893TIP3    H169094   5.569   4.844  15.020  0.2980 -0.0232 -2.8459
15893TIP3    H269095   5.433   4.880  15.078  1.6404 -0.5314  0.7485
15894TIP3   OH269096   3.762   4.277  13.560 -0.5210 -0.4442  0.3514
15894TIP3    H169097   3.845   4.232  13.571 -0.4671  0.1332  2.4398
15894TIP3    H269098   3.712   4.257  13.639 -1.2636  1.4913  0.4164
15895TIP3   OH269099   6.723   5.179   4.956 -0.0142 -0.3532  0.4433
15895TIP3    H169100   6.647   5.163   4.899 -0.5333 -0.3501  1.1321
15895TIP3    H269101   6.776   5.241   4.907 -0.7079  0.0382  0.1782
15896TIP3   OH269102   4.961   5.189   0.995  0.1801 -0.0369 -0.0398
15896TIP3    H169103   4.982   5.240   0.917 -0.4961 -0.5193 -0.5465
15896TIP3    H269104   5.033   5.207   1.056  0.0113  1.4171 -0.2481
15897TIP3   OH269105   5.524   4.936   0.174  0.5055 -0.3215 -0.1255
15897TIP3    H169106   5.504   4.845   0.194  0.6252 -0.1850  0.6011
15897TIP3    H269107   5.515   4.942   0.078  0.4590 -1.0807 -0.1677
15898TIP3   OH269108   1.051   2.361   5.532  0.0159  0.3480  0.3016
15898TIP3    H169109   0.969   2.405   5.554  0.0024  1.1408 -1.2257
15898TIP3    H269110   1.108   2.376   5.608 -0.8565  0.8113  0.8681
15899TIP3   OH269111   0.488   0.566   1.340 -0.0755 -0.0966  0.3640
15899TIP3    H169112   0.427   0.601   1.276  1.0325  1.3158  0.0502
15899TIP3    H269113   0.454   0.596   1.425  0.0804  0.5463  0.2034
15900TIP3   OH269114   0.082   6.308   1.597 -0.2524 -0.1514 -0.3980
15900TIP3    H169115   0.142   6.361   1.650 -0.0381  0.9992 -1.7616
15900TIP3    H269116   0.126   6.224   1.587 -0.0112 -0.1668  0.7113
15901TIP3   OH269117   6.292   3.130  16.065 -0.2577 -1.0057 -0.2032
15901TIP3    H169118   6.341   3.155  15.986 -2.6558  1.6237 -0.9698
15901TIP3    H269119   6.358   3.099  16.126  1.9258 -0.9068 -2.4401
15902TIP3   OH269120   4.917   1.973   5.800  0.5005 -0.2965  0.2443
15902TIP3    H169121   4.855   1.913   5.841  0.2771 -1.1289 -1.2750
15902TIP3    H269122   5.002   1.949   5.837  0.3291 -1.1863  0.0703
15903TIP3   OH269123   2.456   4.622  16.810  0.1662  0.7113 -0.1124
15903TIP3    H169124   2.480   4.691  16.872  0.2686  0.7807 -0.2300
15903TIP3    H269125   2.360   4.617  16.816  0.1315  1.0733 -0.3271
15904TIP3   OH269126   2.668   2.820   3.080 -0.7896 -0.1660 -0.0797
15904TIP3    H169127   2.582   2.833   3.040 -0.4428 -0.1758 -0.8238
15904TIP3    H269128   2.715   2.901   3.063  0.0103 -0.8808 -1.3318
15905TIP3   OH269129   5.936   5.682   3.584  0.2337  0.2497  0.1020
15905TIP3    H169130   5.877   5.642   3.519  0.2687  2.3514 -1.2636
15905TIP3    H269131   6.011   5.711   3.533  1.5996 -0.6613  1.5549
15906TIP3   OH269132   0.906   6.686   2.648  0.5071  0.5405 -0.2785
15906TIP3    H169133   0.872   6.756   2.593  0.5918  1.7910  1.2455
15906TIP3    H269134   0.830   6.655   2.697  0.3534 -0.8306 -1.3585
15907TIP3   OH269135   2.529   5.959  12.689 -0.6226 -0.0025 -0.0253
15907TIP3    H169136   2.490   6.031  12.739 -0.9721  0.8051 -1.4297
15907TIP3    H269137   2.589   6.002  12.628 -0.0268 -0.9870 -0.1371
15908TIP3   OH269138   0.786   3.987  10.911 -1.3049  0.0643 -0.0211
15908TIP3    H169139   0.738   3.904  10.917  1.0461 -1.3282  0.1530
15908TIP3    H269140   0.819   4.002  11.000 -2.0414  1.3941  0.0328
15909TIP3   OH269141   1.630   6.599   6.672  0.8106 -0.0289 -0.0976
15909TIP3    H169142   1.626   6.675   6.730 -0.9126 -1.0285  1.1725
15909TIP3    H269143   1.556   6.610   6.613  2.3359  0.7842 -1.8828
15910TIP3   OH269144   0.116   6.624   5.309  0.2820  0.3968 -0.2786
15910TIP3    H169145   0.158   6.603   5.393 -0.0391 -0.3444 -0.3025
15910TIP3    H269146   0.103   6.719   5.312 -2.5186  0.0208  1.8210
15911TIP3   OH269147   1.951   0.278   4.242 -0.0239 -0.4233 -0.5528
15911TIP3    H169148   1.929   0.200   4.293  0.0203 -0.4333 -0.5483
15911TIP3    H269149   2.018   0.248   4.180  1.9594  0.1919  1.1964
15912TIP3   OH269150   2.568   0.402  12.494 -0.6844  0.0877  0.1224
15912TIP3    H169151   2.620   0.322  12.500 -1.3576 -0.3939 -0.4235
15912TIP3    H269152   2.558   0.418  12.400  0.3925  1.4395  0.2199
15913TIP3   OH269153   3.474   5.770   4.896 -0.3455  0.1766  0.8005
15913TIP3    H169154   3.564   5.795   4.913 -0.0962  0.7245 -1.2451
15913TIP3    H269155   3.480   5.689   4.845 -0.9873  0.9021 -0.4369
15914TIP3   OH269156   3.682   4.517  14.690  0.0291 -0.3570 -0.2455
15914TIP3    H169157   3.588   4.533  14.702  0.0809 -1.4393  1.9123
15914TIP3    H269158   3.691   4.422  14.693  1.1590 -0.2864 -0.9054
15915TIP3   OH269159   3.351   0.519  16.843  0.0394  0.4334 -0.2204
15915TIP3    H169160   3.287   0.449  16.855  0.8953  0.0109  1.9824
15915TIP3    H269161   3.432   0.474  16.817  0.4252  0.6586  0.5849
15916TIP3   OH269162   6.766   6.257   4.963 -1.0912  0.0915 -0.4921
15916TIP3    H169163   6.797   6.344   4.987  0.0468 -0.3054 -0.5056
15916TIP3    H269164   6.671   6.262   4.974 -1.0749  1.4373 -0.8346
15917TIP3   OH269165   0.764   3.380  13.960  0.0768  0.4561  0.3541
15917TIP3    H169166   0.693   3.404  14.019 -1.6182  0.7445 -1.7371
15917TIP3    H269167   0.843   3.388  14.012 -1.4311  0.0429  2.7616
15918TIP3   OH269168   2.445   0.591   2.511  0.1504 -0.1775 -0.0012
15918TIP3    H169169   2.512   0.565   2.575 -0.9734 -0.1498  1.2263
15918TIP3    H269170   2.486   0.578   2.426  0.0827 -4.8447  0.5434
15919TIP3   OH269171   3.360   1.100  13.399  0.4961  0.0524  0.0422
15919TIP3    H169172   3.329   1.075  13.312  0.8214  1.1207 -0.3984
15919TIP3    H269173   3.280   1.113  13.451  0.3146 -1.2270  0.1015
15920TIP3   OH269174   5.395   0.496  12.000 -0.1818 -0.0023 -0.6606
15920TIP3    H169175   5.455   0.561  11.965  1.2463 -1.0788 -0.2535
15920TIP3    H269176   5.415   0.494  12.094  0.8028 -2.0523 -0.8946
15921TIP3   OH269177   2.459   4.891   4.229 -0.6148  0.2669  0.2146
15921TIP3    H169178   2.440   4.865   4.320  0.9892 -0.1890  0.4262
15921TIP3    H269179   2.544   4.851   4.210 -0.0239  2.0004 -0.8422
15922TIP3   OH269180   6.338   5.835  14.698 -0.2552 -0.3196  0.2162
15922TIP3    H169181   6.414   5.848  14.640 -1.2814  0.3597 -0.9947
15922TIP3    H269182   6.266   5.815  14.638 -1.5739  1.4777  1.1709
15923TIP3   OH269183   4.829   3.877  13.712 -0.2880  0.2455  0.0220
15923TIP3    H169184   4.834   3.793  13.666  1.6730 -0.0947  0.7972
15923TIP3    H269185   4.887   3.866  13.788  0.6924  2.5890 -0.3589
15924TIP3   OH269186   5.637   3.749   2.402  0.7692  0.1934 -0.2162
15924TIP3    H169187   5.553   3.763   2.445  0.8927  0.2660  0.0050
15924TIP3    H269188   5.680   3.682   2.456  0.0653 -1.2675 -1.4334
15925TIP3   OH269189   6.125   1.104  12.704  0.8776  0.7012 -0.1253
15925TIP3    H169190   6.050   1.098  12.763  1.1278  0.6999  0.1924
15925TIP3    H269191   6.163   1.017  12.704  0.6796  0.6118 -0.5528
15926TIP3   OH269192   3.428   6.131   1.621 -0.3171  0.5034 -0.1439
15926TIP3    H169193   3.451   6.207   1.567  1.5414 -0.9219 -1.4376
15926TIP3    H269194   3.418   6.167   1.710 -0.4615  2.3998 -0.8903
15927TIP3   OH269195   0.204   1.099  17.193 -0.1059  0.5477 -0.0347
15927TIP3    H169196   0.296   1.088  17.216  0.1840  0.5575 -1.1257
15927TIP3    H269197   0.168   1.010  17.193 -0.7603  0.7747  2.9567
15928TIP3   OH269198   1.186   3.375  13.017 -0.6065 -0.2206  0.4538
15928TIP3    H169199   1.167   3.329  12.936  0.9186 -0.9744  0.5013
15928TIP3    H269200   1.245   3.446  12.992 -0.6210 -0.0853  0.7927
15929TIP3   OH269201   4.650   3.033   4.544  0.0821 -0.0872 -0.4291
15929TIP3    H169202   4.602   3.115   4.552  0.0257 -0.2616  1.1312
15929TIP3    H269203   4.738   3.053   4.576  0.0660 -0.6356 -0.0353
15930TIP3   OH269204   0.710   2.398   5.314 -0.5779 -0.1111  0.9907
15930TIP3    H169205   0.626   2.442   5.328 -0.1252  0.5641  1.6598
15930TIP3    H269206   0.761   2.418   5.393 -0.0139 -1.0405  0.8722
15931TIP3   OH269207   1.321   4.832   5.754  0.6046 -0.2697  0.0117
15931TIP3    H169208   1.300   4.739   5.759  0.7763 -0.2800  0.6113
15931TIP3    H269209   1.237   4.876   5.748  0.5977 -0.5990 -2.7094
15932TIP3   OH269210   2.775   5.958  11.152 -0.0763 -0.4853 -0.8231
15932TIP3    H169211   2.766   6.043  11.194  2.1513 -0.1877 -0.9094
15932TIP3    H269212   2.864   5.929  11.174 -1.1045 -3.2273  0.0304
15933TIP3   OH269213   4.827   4.126  13.524  0.2336  0.6538  0.1951
15933TIP3    H169214   4.844   4.158  13.613  0.3543  0.7774  0.1274
15933TIP3    H269215   4.841   4.032  13.529 -0.7434  0.5179  0.5516
15934TIP3   OH269216   1.406   6.312   4.500  0.1049  0.7516 -0.3864
15934TIP3    H169217   1.422   6.257   4.576  1.2294  0.0019 -1.1498
15934TIP3    H269218   1.489   6.355   4.483  0.0685  0.3746 -1.6135
15935TIP3   OH269219   1.388   1.060   5.635  0.2076 -0.2940 -0.3771
15935TIP3    H169220   1.392   1.015   5.720  0.3505 -0.0440 -0.2531
15935TIP3    H269221   1.299   1.043   5.604 -0.4207  1.0766  0.6206
15936TIP3   OH269222   4.659   2.307  12.327  0.1569 -0.1268 -0.4567
15936TIP3    H169223   4.595   2.284  12.393  0.8487 -0.6820  0.0261
15936TIP3    H269224   4.717   2.231  12.322  0.2857  0.0303 -1.4810
15937TIP3   OH269225   3.434   1.689   0.516  0.1005  0.3443  0.1572
15937TIP3    H169226   3.470   1.643   0.592  1.0862  1.5986  0.4614
15937TIP3    H269227   3.455   1.781   0.531 -1.0885  0.8029 -0.8743
15938TIP3   OH269228   4.348   4.022   3.613 -0.2376  0.3811  0.4288
15938TIP3    H169229   4.411   3.984   3.675 -1.5911  2.1166  2.9326
15938TIP3    H269230   4.283   3.953   3.600  0.0458  0.0058  0.9753
15939TIP3   OH269231   6.049   4.154  15.745 -0.1135  0.3823 -0.8317
15939TIP3    H169232   6.128   4.188  15.704  2.2530 -3.1664  0.5469
15939TIP3    H269233   5.997   4.121  15.671  0.6850  0.7449 -1.5703
15940TIP3   OH269234   6.466   2.218   5.592  0.5609  0.5866 -0.3282
15940TIP3    H169235   6.493   2.236   5.502 -0.1477 -0.7041 -0.8123
15940TIP3    H269236   6.498   2.129   5.610  1.1805  1.0419  0.8937
15941TIP3   OH269237   4.860   1.261  16.639 -0.5887 -0.3263 -0.5050
15941TIP3    H169238   4.837   1.209  16.562  0.1989 -1.4749  0.0267
15941TIP3    H269239   4.850   1.352  16.610 -0.3104 -0.7483 -1.9675
15942TIP3   OH269240   3.055   2.233  14.801 -0.4853  0.0872  0.0673
15942TIP3    H169241   2.965   2.245  14.771 -0.7066  0.7365  0.9620
15942TIP3    H269242   3.102   2.308  14.766 -0.4259  0.0681  0.1068
15943TIP3   OH269243   2.616   3.618   5.338  0.1715 -0.0532 -0.3590
15943TIP3    H169244   2.549   3.672   5.296  1.0436  0.3694 -1.2077
15943TIP3    H269245   2.699   3.656   5.310  0.7734 -0.1360  1.2537
15944TIP3   OH269246   0.504   4.852  11.494 -0.0010  0.0650 -0.0241
15944TIP3    H169247   0.521   4.805  11.412 -0.4003 -0.4503  0.1873
15944TIP3    H269248   0.565   4.815  11.557 -0.1330  0.0206  0.0768
15945TIP3   OH269249   4.788   5.157  16.524  0.8564  0.5688  0.4456
15945TIP3    H169250   4.696   5.179  16.533  0.2702 -1.3640 -0.5683
15945TIP3    H269251   4.828   5.184  16.607 -0.8712  0.1457  1.4364
15946TIP3   OH269252   1.106   2.526   0.012  0.3816  0.0848 -0.0038
15946TIP3    H169253   1.059   2.608   0.022 -0.5713 -0.3402 -0.9564
15946TIP3    H269254   1.052   2.461   0.058 -0.0824 -0.4470 -1.2987
15947TIP3   OH269255   2.306   5.385   2.475  0.2067 -0.1653 -0.0550
15947TIP3    H169256   2.261   5.302   2.491 -0.1663  0.0112 -0.1809
15947TIP3    H269257   2.239   5.443   2.439  0.2612  0.4646  0.8382
15948TIP3   OH269258   0.941   5.760  12.674  0.1103  0.3091  0.4758
15948TIP3    H169259   1.031   5.734  12.694  0.0860  0.3373  0.6236
15948TIP3    H269260   0.939   5.854  12.688  0.0025  0.2765  0.6858
15949TIP3   OH269261   0.788   4.604  15.901 -0.6342  0.4509  0.0091
15949TIP3    H169262   0.856   4.543  15.929  0.4341  1.5148 -0.2476
15949TIP3    H269263   0.710   4.549  15.890  0.3969 -0.9288 -0.5604
15950TIP3   OH269264   2.998   1.313   1.236 -0.2230 -0.0209 -0.5526
15950TIP3    H169265   2.980   1.219   1.242 -1.8632  0.2245 -1.4417
15950TIP3    H269266   2.913   1.355   1.255  0.6402  1.3027  0.5076
15951TIP3   OH269267   1.886   1.890   4.422 -0.1439  0.2701 -0.3813
15951TIP3    H169268   1.799   1.858   4.398  0.2185 -1.6047  0.6997
15951TIP3    H269269   1.946   1.842   4.365  0.2033  1.6698 -1.2299
15952TIP3   OH269270   2.003   5.492  13.322  0.3507 -0.1699 -0.2504
15952TIP3    H169271   2.019   5.404  13.290  1.4045 -0.1680  0.2319
15952TIP3    H269272   2.071   5.545  13.280 -0.1053  0.3558 -0.3233
15953TIP3   OH269273   2.772   4.467   1.833  0.4290  0.3074  0.3246
15953TIP3    H169274   2.706   4.498   1.894  0.7594 -1.9921  1.9139
15953TIP3    H269275   2.789   4.542   1.776 -0.3067  2.3259  2.6784
15954TIP3   OH269276   5.747   2.108   4.402  0.3681  0.1934  0.6908
15954TIP3    H169277   5.670   2.057   4.378  0.2274 -0.0122  1.5686
15954TIP3    H269278   5.781   2.140   4.319 -1.3403  1.2895  0.3982
15955TIP3   OH269279   0.676   5.834   3.465 -0.2210  0.1239  0.3566
15955TIP3    H169280   0.618   5.881   3.406 -0.3478 -1.0632 -0.4872
15955TIP3    H269281   0.625   5.758   3.494 -0.5626  1.2836  2.8996
15956TIP3   OH269282   5.690   0.086  11.406 -0.0365  0.0144  0.3238
15956TIP3    H169283   5.734   0.098  11.322 -0.6170 -0.9439 -0.1232
15956TIP3    H269284   5.614   0.145  11.402 -0.1808 -0.1850  0.0874
15957TIP3   OH269285   5.130   4.688  12.038 -0.0190 -0.7532 -0.2600
15957TIP3    H169286   5.137   4.762  11.978 -0.0004  1.3788  2.2466
15957TIP3    H269287   5.059   4.712  12.098  0.4605 -2.4389  1.0461
15958TIP3   OH269288   6.518   5.423   1.365 -0.3045  0.0406  0.1995
15958TIP3    H169289   6.613   5.419   1.362 -0.3487  0.0227 -1.8370
15958TIP3    H269290   6.498   5.503   1.414  0.7561  1.0853 -1.0548
15959TIP3   OH269291   5.099   6.001   4.344 -0.6342  0.0245  0.3479
15959TIP3    H169292   5.099   6.071   4.409  1.5515  1.0874 -0.7738
15959TIP3    H269293   5.109   5.921   4.396  1.5847  0.8995  1.3098
15960TIP3   OH269294   3.562   2.265   5.570 -0.5997  0.0728  0.2168
15960TIP3    H169295   3.578   2.171   5.559 -1.8907 -0.2538  0.9085
15960TIP3    H269296   3.612   2.307   5.501 -0.0441 -1.1389 -0.1251
15961TIP3   OH269297   2.358   2.238  16.054  0.0894 -0.0038 -0.8502
15961TIP3    H169298   2.397   2.206  16.136  1.4273  0.6595 -1.2144
15961TIP3    H269299   2.266   2.251  16.075  0.8429  2.3534  1.2391
15962TIP3   OH269300   0.746   4.122  15.893  0.1671  0.0924  0.3816
15962TIP3    H169301   0.802   4.071  15.952 -0.7503 -1.3491  0.0317
15962TIP3    H269302   0.705   4.188  15.949  0.4421 -0.3144  1.0654
15963TIP3   OH269303   5.470   2.780   5.149 -0.2690 -0.2702  0.7972
15963TIP3    H169304   5.426   2.796   5.065 -0.7099 -1.2054  0.8452
15963TIP3    H269305   5.451   2.688   5.169  2.6221 -1.0282  0.2867
15964TIP3   OH269306   5.485   5.717   5.949 -0.8150  0.1633 -0.5933
15964TIP3    H169307   5.553   5.670   5.998 -2.0335 -1.6081 -0.5512
15964TIP3    H269308   5.433   5.761   6.016 -0.3311  0.6599 -0.5479
15965TIP3   OH269309   5.795   2.283  15.508  0.1054  0.0127 -0.1212
15965TIP3    H169310   5.752   2.240  15.582 -0.5753 -0.7570 -0.9299
15965TIP3    H269311   5.765   2.232  15.432  4.0631 -1.8436 -0.5362
15966TIP3   OH269312   2.687   5.881  16.263  0.5615  0.2958 -0.3697
15966TIP3    H169313   2.774   5.844  16.250  0.5873  0.6412 -1.2085
15966TIP3    H269314   2.676   5.944  16.191  0.6111  2.0966  1.1653
15967TIP3   OH269315   0.344   4.981  17.182  0.3185  0.2102  0.1064
15967TIP3    H169316   0.377   4.919  17.247 -0.2400 -0.4462 -0.2295
15967TIP3    H269317   0.376   4.946  17.098  2.9671  2.2686  0.1807
15968TIP3   OH269318   3.137   5.525  14.273  0.2277  0.3156 -0.0616
15968TIP3    H169319   3.228   5.498  14.278 -0.3727 -1.7130  0.3796
15968TIP3    H269320   3.107   5.495  14.188 -0.2542  0.2369  0.1317
15969TIP3   OH269321   0.276   5.235   2.689  0.0598  0.3812 -0.5883
15969TIP3    H169322   0.223   5.303   2.729 -0.1938  0.3542 -0.8746
15969TIP3    H269323   0.280   5.165   2.754 -1.1404 -0.0549 -0.9828
15970TIP3   OH269324   2.950   6.752   1.725 -0.4537  0.1157  0.0490
15970TIP3    H169325   2.933   6.705   1.643 -1.6445 -0.7725  0.7792
15970TIP3    H269326   2.978   6.684   1.786  0.2171  0.7369  0.4383
15971TIP3   OH269327   5.977   4.898   3.948  0.8856  0.4958  0.4872
15971TIP3    H169328   5.916   4.833   3.983  0.9794 -0.0770 -0.4024
15971TIP3    H269329   5.932   4.938   3.874  1.6088 -0.0025 -0.2380
15972TIP3   OH269330   3.799   0.996   0.816 -0.5686 -0.1519 -0.1225
15972TIP3    H169331   3.838   0.925   0.867 -2.9126 -0.5581  1.1660
15972TIP3    H269332   3.844   0.992   0.731  0.9589 -1.6622  0.7365
15973TIP3   OH269333   1.220   2.124   5.906  0.2304 -0.2321 -1.0239
15973TIP3    H169334   1.154   2.118   5.976  0.3003  0.4954 -0.8984
15973TIP3    H269335   1.293   2.070   5.938  0.6121  0.7874 -0.1371
15974TIP3   OH269336   2.133   5.500   5.099 -0.2561 -0.1560 -0.4728
15974TIP3    H169337   2.159   5.564   5.166 -0.3611  0.3483 -0.9132
15974TIP3    H269338   2.040   5.517   5.085 -0.2228 -0.2263 -0.7825
15975TIP3   OH269339   1.190   3.303   5.633  0.3015  0.1590 -0.2756
15975TIP3    H169340   1.250   3.230   5.645 -0.3312 -0.4892 -1.0382
15975TIP3    H269341   1.188   3.346   5.718 -0.2377 -1.3991  0.5105
15976TIP3   OH269342   2.821   3.791  15.385 -0.0559  0.0948  0.3710
15976TIP3    H169343   2.819   3.866  15.325 -0.2178 -0.5822 -0.4708
15976TIP3    H269344   2.842   3.830  15.470  1.1934  0.9554 -0.2996
15977TIP3   OH269345   3.934   0.526  15.001  0.3770 -0.0982  0.1770
15977TIP3    H169346   3.989   0.574  14.940 -1.0724 -1.9493 -2.6881
15977TIP3    H269347   3.968   0.437  15.000 -2.2306 -1.1285 -1.1961
15978TIP3   OH269348   2.204   2.059  11.160  0.2658  0.4197 -0.0700
15978TIP3    H169349   2.223   2.144  11.119  0.7594  0.3078 -0.0754
15978TIP3    H269350   2.148   2.081  11.234  2.6459  1.0742  1.5844
15979TIP3   OH269351   6.369   6.583   6.243  0.1228  0.5906  0.0654
15979TIP3    H169352   6.427   6.605   6.316  0.1704 -1.0748  0.5504
15979TIP3    H269353   6.421   6.522   6.189  0.3813  2.3921 -1.7877
15980TIP3   OH269354   3.972   1.363   5.650 -0.3017  0.0852  0.1735
15980TIP3    H169355   3.943   1.368   5.559  2.1053 -0.0993 -0.6494
15980TIP3    H269356   3.978   1.269   5.668 -0.8708  0.1235  0.5399
15981TIP3   OH269357   3.622   4.759  11.113 -0.5902 -0.2387  0.1114
15981TIP3    H169358   3.623   4.855  11.117  1.1852 -0.2895  1.3556
15981TIP3    H269359   3.530   4.736  11.131 -0.7159  1.1860  1.4404
15982TIP3   OH269360   5.017   3.064  16.706 -0.1566  0.0577 -0.4194
15982TIP3    H169361   5.052   3.142  16.751 -1.7979  0.6413 -0.1244
15982TIP3    H269362   5.021   3.086  16.613 -1.4334  0.8639 -0.2958
15983TIP3   OH269363   0.395   0.038   5.226  0.2435 -0.1143  0.2545
15983TIP3    H169364   0.301   0.051   5.243 -0.0150 -1.9302  0.2679
15983TIP3    H269365   0.420  -0.034   5.284  1.3711 -0.4776 -0.6744
15984TIP3   OH269366   5.843   2.202  12.184 -0.1929  0.5363 -0.1608
15984TIP3    H169367   5.923   2.160  12.154 -0.3695 -1.2516  1.7645
15984TIP3    H269368   5.859   2.296  12.172  1.6611  0.1296 -1.0231
15985TIP3   OH269369   1.570   1.432  16.153  0.3990  1.0121  0.2127
15985TIP3    H169370   1.611   1.387  16.079 -3.3013 -0.3123 -1.1543
15985TIP3    H269371   1.555   1.521  16.122  1.5380  1.2982  0.4643
15986TIP3   OH269372   4.978   5.261  11.515 -0.5097 -0.3179  0.6217
15986TIP3    H169373   5.028   5.336  11.547 -0.6937  0.6662 -1.3410
15986TIP3    H269374   5.015   5.242  11.429 -1.6725 -1.3259  0.3229
15987TIP3   OH269375   6.324   2.571   0.956 -0.3028 -0.1505  0.1425
15987TIP3    H169376   6.297   2.487   0.919 -0.9826 -0.1758  0.6872
15987TIP3    H269377   6.349   2.624   0.880  0.0499 -0.8126 -0.2073
15988TIP3   OH269378   1.654   0.268   2.800 -0.4079  0.2315  0.7035
15988TIP3    H169379   1.592   0.339   2.818  0.9384  1.6536 -0.1584
15988TIP3    H269380   1.738   0.300   2.834  0.8433  0.3423 -2.3000
15989TIP3   OH269381   0.315   2.467  10.647 -0.7323 -0.1908 -0.0415
15989TIP3    H169382   0.410   2.472  10.643 -0.7746  0.1316 -0.7922
15989TIP3    H269383   0.297   2.391  10.702 -0.0349 -0.7263 -0.5500
15990TIP3   OH269384   6.030   3.212  15.597  0.1803  0.2727 -0.4757
15990TIP3    H169385   6.014   3.241  15.507 -0.1980 -0.2570 -0.5810
15990TIP3    H269386   6.125   3.221  15.608  0.0270  1.8871 -0.3873
15991TIP3   OH269387   3.612   6.283  11.365 -0.6641 -0.0597  0.0236
15991TIP3    H169388   3.655   6.282  11.279  0.9405  0.7696  0.8023
15991TIP3    H269389   3.554   6.207  11.364 -0.4953 -0.1893 -1.7104
15992TIP3   OH269390   4.414   1.743   2.638  0.6509 -0.3631 -0.3427
15992TIP3    H169391   4.399   1.681   2.567 -1.2757 -1.5576  1.0691
15992TIP3    H269392   4.332   1.791   2.646  0.4450 -0.9892  1.7642
15993TIP3   OH269393   6.253   6.671  16.125  0.5613  0.0795  0.4795
15993TIP3    H169394   6.307   6.664  16.203 -1.0584  1.3206  1.7558
15993TIP3    H269395   6.314   6.661  16.052  2.1282 -0.8801  1.8830
15994TIP3   OH269396   0.939   2.092  13.067  0.0111  0.3392 -0.0293
15994TIP3    H169397   0.947   2.118  12.975 -0.1197 -1.8722 -0.6760
15994TIP3    H269398   0.867   2.030  13.069 -0.5449  0.9999  1.7200
15995TIP3   OH269399   4.928   4.294  13.302 -0.0312  0.2257 -0.2245
15995TIP3    H169400   4.872   4.238  13.357 -1.0329  1.3650 -0.0696
15995TIP3    H269401   4.991   4.333  13.363  0.9451 -1.0392 -0.3951
15996TIP3   OH269402   4.585   3.124  16.150 -0.5329 -0.4117  0.4918
15996TIP3    H169403   4.560   3.216  16.138  0.4780  0.0284  1.6713
15996TIP3    H269404   4.510   3.075  16.117 -1.3614  0.8434  0.4529
15997TIP3   OH269405   0.492   4.043  10.522  0.0940 -0.2421  0.3310
15997TIP3    H169406   0.414   3.991  10.504 -0.3767  0.7021 -0.4610
15997TIP3    H269407   0.459   4.126  10.555  0.8117 -0.2385  1.0673
15998TIP3   OH269408   3.230   0.267  12.617 -0.2564 -0.1598  0.1192
15998TIP3    H169409   3.153   0.244  12.565 -0.4532 -0.3594  0.5011
15998TIP3    H269410   3.209   0.237  12.706 -0.9458  2.3695  0.8515
15999TIP3   OH269411   5.279   6.350  14.578  0.1827  0.0891 -0.7464
15999TIP3    H169412   5.207   6.377  14.635  0.6872 -0.9702  0.4095
15999TIP3    H269413   5.315   6.272  14.619 -1.1160 -2.2962 -3.9358
16000TIP3   OH269414   2.522   6.132  11.404 -0.0876 -0.1085  0.1208
16000TIP3    H169415   2.610   6.165  11.386 -0.3168 -0.3938 -1.5454
16000TIP3    H269416   2.476   6.135  11.320 -1.7729  0.3136  1.0290
16001TIP3   OH269417   1.689   1.156   3.249 -0.0091  0.2518 -0.6102
16001TIP3    H169418   1.767   1.147   3.195 -0.0531  0.0940 -0.6488
16001TIP3    H269419   1.677   1.250   3.258  0.1118  0.2780 -0.7113
16002TIP3   OH269420   4.761   0.234   4.086  0.4701  0.3765 -0.0713
16002TIP3    H169421   4.725   0.323   4.084 -0.5162 -0.0212  0.0842
16002TIP3    H269422   4.854   0.247   4.103  0.0768  1.3110  1.5028
16003TIP3   OH269423   5.720   5.672   4.671  0.8305 -0.1280 -0.1166
16003TIP3    H169424   5.722   5.662   4.766 -0.3306  2.0416  0.1645
16003TIP3    H269425   5.807   5.705   4.648  1.0668 -0.5305  0.1889
16004TIP3   OH269426   1.851   5.028  13.417 -0.4028 -0.0966 -0.0726
16004TIP3    H169427   1.795   5.039  13.494 -0.4494  0.1781 -0.1462
16004TIP3    H269428   1.846   4.934  13.397  0.7604 -0.4429  1.1362
16005TIP3   OH269429   0.044   3.022   6.220  0.0216  0.3074 -0.5298
16005TIP3    H169430   0.133   3.030   6.185  0.6537  1.5505  1.2649
16005TIP3    H269431   0.009   3.111   6.215 -0.5973  0.1019  0.1187
16006TIP3   OH269432   2.166   1.094   6.507 -0.0807  0.4188  0.8540
16006TIP3    H169433   2.083   1.050   6.526 -0.4330  0.6429 -0.1502
16006TIP3    H269434   2.141   1.184   6.487  0.4917  0.7011  1.3977
16007TIP3   OH269435   1.414   0.444   4.968  0.3655 -0.1206  0.6200
16007TIP3    H169436   1.368   0.429   5.051  0.8962  1.6788  1.2733
16007TIP3    H269437   1.473   0.517   4.987  0.2462  0.5339 -1.4410
16008TIP3   OH269438   0.381   1.680   2.974 -0.2997  0.1116  0.4409
16008TIP3    H169439   0.337   1.751   2.926  0.1428  0.7944  1.0412
16008TIP3    H269440   0.387   1.712   3.064  2.3499  0.4625  0.1712
16009TIP3   OH269441   1.510   1.036  11.704  0.2794  0.9779  0.0812
16009TIP3    H169442   1.450   1.081  11.764  1.8888  0.4199  2.1909
16009TIP3    H269443   1.521   1.097  11.631 -3.1779  0.8856 -0.6022
16010TIP3   OH269444   5.137   1.632   1.394 -0.0486 -0.1718  0.0928
16010TIP3    H169445   5.151   1.597   1.482 -0.5884  1.4184  0.8185
16010TIP3    H269446   5.075   1.571   1.354 -1.2404  0.1120  1.4569
16011TIP3   OH269447   2.917   3.401   0.781 -0.1250  0.7115 -0.8648
16011TIP3    H169448   2.840   3.345   0.791 -1.3585  2.2088 -1.8635
16011TIP3    H269449   2.891   3.485   0.818  1.2447  1.0544 -0.6468
16012TIP3   OH269450   0.724   4.554  12.143 -0.2099  0.0028 -0.1163
16012TIP3    H169451   0.720   4.529  12.235  0.5204 -1.7434 -0.5383
16012TIP3    H269452   0.700   4.475  12.095  0.3689  0.6152 -1.4519
16013TIP3   OH269453   1.567   0.323   5.189  0.3159  0.3290 -0.6284
16013TIP3    H169454   1.483   0.284   5.168  0.3008  0.5051 -0.8966
16013TIP3    H269455   1.629   0.251   5.186 -0.0579 -0.0771  1.0109
16014TIP3   OH269456   1.822   0.144   1.224  0.1332  0.0838 -0.0984
16014TIP3    H169457   1.783   0.213   1.277  0.8174 -0.2382  0.8308
16014TIP3    H269458   1.748   0.090   1.197 -0.4791  1.5057 -1.3232
16015TIP3   OH269459   6.480   0.365  11.866 -0.1482  0.0806 -0.3115
16015TIP3    H169460   6.561   0.405  11.835 -1.7584  1.3701 -3.0484
16015TIP3    H269461   6.480   0.277  11.830  1.3466 -0.9576  2.1027
16016TIP3   OH269462   2.942   3.598  12.232  0.0796  0.1885 -0.3851
16016TIP3    H169463   2.857   3.634  12.257  0.7751  1.4069  0.2933
16016TIP3    H269464   2.946   3.608  12.137 -1.2218 -1.4355 -0.6336
16017TIP3   OH269465   4.271   2.501  16.131  0.4465 -0.2752  0.2635
16017TIP3    H169466   4.298   2.410  16.119 -0.1615 -0.4771  0.4123
16017TIP3    H269467   4.183   2.496  16.168 -0.4662  0.3808 -1.7732
16018TIP3   OH269468   2.957   6.192  11.809  0.3417  0.0475  0.0017
16018TIP3    H169469   2.987   6.121  11.866 -0.8055  0.9582  1.8030
16018TIP3    H269470   2.862   6.190  11.816  0.3014  1.9651  0.3668
16019TIP3   OH269471   2.440   2.301   6.397  0.3547  0.0458 -0.2789
16019TIP3    H169472   2.388   2.298   6.478  1.6124  0.1296  0.5588
16019TIP3    H269473   2.433   2.391   6.368  0.4229  0.1748  0.0951
16020TIP3   OH269474   1.318   6.587  14.437 -0.5456  0.1825  0.1916
16020TIP3    H169475   1.388   6.557  14.379 -0.1137  1.7275 -0.0989
16020TIP3    H269476   1.247   6.525  14.423  0.3389 -0.7231 -0.3780
16021TIP3   OH269477   3.988   6.040  15.133  0.7170  0.5450  0.9334
16021TIP3    H169478   4.054   6.035  15.202 -0.5853 -0.1085  2.1651
16021TIP3    H269479   3.983   5.950  15.099  2.0059  1.0550 -0.6583
16022TIP3   OH269480   4.492   5.315   5.319  0.6543  0.1991 -0.1142
16022TIP3    H169481   4.571   5.339   5.272  0.5014 -1.8987 -1.5317
16022TIP3    H269482   4.430   5.289   5.251 -0.6571  0.1317  1.0672
16023TIP3   OH269483   0.532   2.176   2.780  0.2414  0.3041 -0.4749
16023TIP3    H169484   0.464   2.119   2.815  1.1157  0.6180  1.8312
16023TIP3    H269485   0.573   2.125   2.710  0.6828 -1.7361  1.2210
16024TIP3   OH269486   0.890   0.579   5.923  0.1410  1.3294  0.6520
16024TIP3    H169487   0.979   0.606   5.903  0.3759 -0.6721 -1.1503
16024TIP3    H269488   0.897   0.530   6.005  1.0201 -0.3318 -0.3792
16025TIP3   OH269489   6.441   4.219  14.240 -0.2997  0.2485 -0.5936
16025TIP3    H169490   6.428   4.128  14.213  0.6653 -0.6158  1.7210
16025TIP3    H269491   6.353   4.254  14.248 -0.7848 -1.2206  0.8511
16026TIP3   OH269492   2.877   3.086  15.633  0.2631  0.0291  0.0990
16026TIP3    H169493   2.783   3.071  15.634  0.6047 -2.2134  0.6203
16026TIP3    H269494   2.916   3.000  15.646  2.4109  0.7891 -0.9225
16027TIP3   OH269495   1.603   2.193   4.025  0.1759 -0.1307 -0.5330
16027TIP3    H169496   1.680   2.241   4.057 -0.1126 -0.0393  0.0275
16027TIP3    H269497   1.544   2.261   3.993 -1.2522  0.1095  2.4275
16028TIP3   OH269498   5.177   5.150   3.289  0.2472  0.0793 -0.4510
16028TIP3    H169499   5.185   5.064   3.331  1.3386 -0.6851 -2.1541
16028TIP3    H269500   5.251   5.201   3.322 -0.0042  0.1343  0.0300
16029TIP3   OH269501   5.242   2.837  13.689  0.0275  0.2653 -0.1179
16029TIP3    H169502   5.174   2.850  13.623 -0.1626  0.0358  0.0328
16029TIP3    H269503   5.214   2.759  13.737 -0.5900  1.2713  1.1842
16030TIP3   OH269504   2.315   0.390   4.078 -0.1395  0.4937 -0.2057
16030TIP3    H169505   2.399   0.389   4.124 -0.2763  0.2824  0.0447
16030TIP3    H269506   2.313   0.474   4.033  0.2248  0.4805 -0.2487
16031TIP3   OH269507   2.123   0.758   1.745  0.6092  0.3273  0.0452
16031TIP3    H169508   2.154   0.844   1.771 -0.1083  0.1876  1.3828
16031TIP3    H269509   2.201   0.711   1.716  1.2708  0.7921  1.0981
16032TIP3   OH269510   6.566   2.151  13.825 -0.2384 -0.0761 -0.1907
16032TIP3    H169511   6.527   2.112  13.904  0.5888 -1.5078 -0.4706
16032TIP3    H269512   6.639   2.093  13.804 -0.2300  0.5107 -1.7985
16033TIP3   OH269513   1.770   1.952   5.783 -0.1503 -0.3205  0.3542
16033TIP3    H169514   1.802   1.985   5.867  0.3169  1.1275 -0.3766
16033TIP3    H269515   1.779   2.026   5.722 -0.2827 -1.4067 -1.0264
16034TIP3   OH269516   3.520   3.750   2.594  0.4639  0.0842  0.2984
16034TIP3    H169517   3.544   3.840   2.614  1.2675  0.1862 -1.0945
16034TIP3    H269518   3.603   3.705   2.579  0.0193 -0.6356 -0.0717
16035TIP3   OH269519   2.511   3.365  16.447  0.2922  0.5593 -0.1985
16035TIP3    H169520   2.564   3.443  16.431  2.7885 -0.6615  1.8646
16035TIP3    H269521   2.455   3.389  16.521  0.0883  0.8464 -0.4416
16036TIP3   OH269522   1.613   6.764  14.025 -0.0065 -0.1597 -0.5271
16036TIP3    H169523   1.669   6.719  13.961 -1.7254  0.0332 -2.2202
16036TIP3    H269524   1.604   6.853  13.990 -1.1879 -0.1305 -0.1560
16037TIP3   OH269525   3.808   2.160  14.944 -0.2479 -0.3049  0.1627
16037TIP3    H169526   3.719   2.182  14.970  0.2469  0.7393  1.0286
16037TIP3    H269527   3.801   2.134  14.853 -1.3350  0.4860  0.0142
16038TIP3   OH269528   3.355   0.442  11.254  0.3015 -0.0846 -0.0806
16038TIP3    H169529   3.411   0.442  11.177 -1.4799 -0.4750 -1.4090
16038TIP3    H269530   3.368   0.355  11.293  0.7889 -0.0966 -0.2735
16039TIP3   OH269531   3.042   1.812  15.046  0.1917  0.3146  0.1309
16039TIP3    H169532   3.024   1.906  15.044 -1.3706  0.0381  0.2999
16039TIP3    H269533   3.101   1.800  15.121  0.3634  1.1493  0.1322
16040TIP3   OH269534   3.544   0.118  11.510  0.0056 -0.3345 -0.2360
16040TIP3    H169535   3.538   0.071  11.594 -0.7044 -0.8761 -0.5794
16040TIP3    H269536   3.535   0.210  11.534 -2.0059 -0.5891  0.1254
16041TIP3   OH269537   5.350   3.816   1.021  0.1595 -0.2050 -0.1110
16041TIP3    H169538   5.429   3.865   1.000 -0.3888  1.0214  0.6447
16041TIP3    H269539   5.292   3.831   0.947  0.5710 -0.9679 -0.5877
16042TIP3   OH269540   4.375   2.390   6.024  0.3033 -0.0282  0.7212
16042TIP3    H169541   4.361   2.300   6.055  0.7538  0.0869  1.2917
16042TIP3    H269542   4.288   2.424   6.008  0.1132 -0.4699  0.7982
16043TIP3   OH269543   2.980   6.175  15.296 -0.1613 -1.0294 -0.0407
16043TIP3    H169544   2.895   6.218  15.293  0.7608  0.8645  0.3175
16043TIP3    H269545   2.971   6.107  15.362 -0.8154  0.4837  1.4654
16044TIP3   OH269546   6.156   6.160   4.971 -0.5490  0.1074 -0.6608
16044TIP3    H169547   6.156   6.065   4.980 -1.9331  0.1353 -0.2350
16044TIP3    H269548   6.211   6.177   4.894  0.0143 -1.0069 -0.5132
16045TIP3   OH269549   3.746   6.291  12.303 -0.5514 -0.9785  0.9253
16045TIP3    H169550   3.795   6.247  12.233 -0.4848 -3.9069  2.7008
16045TIP3    H269551   3.812   6.341  12.351  0.0980 -2.0233  1.1454
16046TIP3   OH269552   3.553   3.929   3.903  0.3249  0.6923 -0.2372
16046TIP3    H169553   3.473   3.982   3.904  0.8514  1.4961 -0.8750
16046TIP3    H269554   3.624   3.992   3.903  1.0087 -0.0266  2.5560
16047TIP3   OH269555   2.754   5.598  13.516  0.0084 -0.1754  0.2701
16047TIP3    H169556   2.689   5.550  13.567  0.6828 -1.2387  0.1390
16047TIP3    H269557   2.707   5.676  13.486  0.4970  2.1995  5.2204
16048TIP3   OH269558   0.480   0.325  14.237 -0.1925 -0.5276 -0.7642
16048TIP3    H169559   0.555   0.358  14.288  0.0873 -0.1698 -1.3982
16048TIP3    H269560   0.493   0.230  14.234 -1.2463 -0.7514  1.4678
16049TIP3   OH269561   4.827   6.083  13.790  0.6811 -0.2237  0.7323
16049TIP3    H169562   4.811   6.020  13.860 -0.0085 -0.6875  0.1737
16049TIP3    H269563   4.827   6.168  13.833  2.2298 -0.6482  1.5880
16050TIP3   OH269564   0.845   5.910  14.325 -0.3656  0.3259 -0.4666
16050TIP3    H169565   0.797   5.903  14.408 -0.5488 -1.4862 -0.7052
16050TIP3    H269566   0.927   5.864  14.341 -0.5909 -0.4186 -1.4261
16051TIP3   OH269567   5.347   0.636   2.807 -0.1128  0.0320  0.2715
16051TIP3    H169568   5.286   0.614   2.877  0.6756 -2.0723  0.3239
16051TIP3    H269569   5.291   0.667   2.735 -1.2448 -1.6913  0.3851
16052TIP3   OH269570   4.370   4.099  13.623  0.3101 -0.0358  0.6623
16052TIP3    H169571   4.372   4.193  13.642  2.4842  0.4684 -1.8277
16052TIP3    H269572   4.328   4.093  13.537 -1.1807 -1.5026  1.4598
16053TIP3   OH269573   6.145   1.978  16.675 -0.3454 -0.1872 -0.2869
16053TIP3    H169574   6.133   1.906  16.737  1.4648  0.8008  1.2518
16053TIP3    H269575   6.056   1.999  16.646 -1.2265 -0.7343  1.9091
16054TIP3   OH269576   4.234   4.881  17.142  0.2175  0.4554  0.6693
16054TIP3    H169577   4.159   4.940  17.147  0.3182  0.5532  1.1038
16054TIP3    H269578   4.201   4.798  17.176  0.0451  0.2273 -0.0444
16055TIP3   OH269579   4.082   2.339  12.456 -0.7025  0.0631  0.0761
16055TIP3    H169580   4.171   2.341  12.421 -0.6429 -2.2722 -0.0326
16055TIP3    H269581   4.053   2.430  12.454  1.0904  0.6401 -1.3916
16056TIP3   OH269582   2.258   1.240   0.060 -0.7800 -0.3299 -0.5930
16056TIP3    H169583   2.300   1.200  -0.017 -1.5987 -0.5539 -0.9365
16056TIP3    H269584   2.198   1.304   0.023 -1.5478 -0.7902 -0.1652
16057TIP3   OH269585   4.170   6.623   5.924  0.2352  0.0247  0.2321
16057TIP3    H169586   4.169   6.652   6.015 -2.0366 -0.8983  0.5176
16057TIP3    H269587   4.163   6.528   5.929  1.6718 -0.1721 -0.8908
16058TIP3   OH269588   6.613   0.207  15.327  0.5693  0.6878 -0.0548
16058TIP3    H169589   6.531   0.257  15.326  1.1358  1.7449  2.0425
16058TIP3    H269590   6.679   0.269  15.297  0.6236 -0.1476 -1.6912
16059TIP3   OH269591   0.882   4.592   1.601  0.0520 -0.0562 -0.4285
16059TIP3    H169592   0.876   4.566   1.509 -0.9639  0.3049 -0.4760
16059TIP3    H269593   0.824   4.668   1.608 -0.5870 -0.6375  0.7021
16060TIP3   OH269594   4.345   2.486  12.371 -0.8355  0.1439 -0.2830
16060TIP3    H169595   4.354   2.577  12.343 -0.5037  0.3985  0.6337
16060TIP3    H269596   4.372   2.435  12.295  0.8393  0.8291 -0.1693
16061TIP3   OH269597   6.545   3.760   6.103 -0.1484  0.0408 -0.2498
16061TIP3    H169598   6.565   3.849   6.075  1.7309 -1.0021 -2.4277
16061TIP3    H269599   6.631   3.719   6.114 -0.9512 -1.0551  2.3573
16062TIP3   OH269600   6.383   6.515  15.878  0.3141 -0.3618 -0.3023
16062TIP3    H169601   6.340   6.506  15.793 -0.0268 -0.0502 -0.1625
16062TIP3    H269602   6.471   6.546  15.857 -0.3993  1.6200 -0.4260
16063TIP3   OH269603   3.592   5.903  10.488  0.0811  0.1532 -0.3994
16063TIP3    H169604   3.499   5.885  10.503 -0.0005  0.2102 -0.8286
16063TIP3    H269605   3.627   5.924  10.575  0.2926 -2.6541  0.2460
16064TIP3   OH269606   1.576   4.699  15.591  0.3129 -0.7838 -0.2253
16064TIP3    H169607   1.544   4.748  15.667  1.6768  0.5457 -0.4755
16064TIP3    H269608   1.615   4.620  15.628  1.0693 -0.0921  0.4878
16065TIP3   OH269609   3.612   5.316  15.349  0.3615  0.0205 -0.0321
16065TIP3    H169610   3.616   5.283  15.259 -2.4511  2.5232 -1.1226
16065TIP3    H269611   3.590   5.408  15.340  0.3291  0.3774  3.2526
16066TIP3   OH269612   5.472   2.903  12.593 -0.6595 -0.4773  0.1785
16066TIP3    H169613   5.397   2.933  12.645 -0.4049 -0.9199  0.7976
16066TIP3    H269614   5.533   2.867  12.657  0.7874  1.3250 -0.1626
16067TIP3   OH269615   5.693   0.924  15.483  0.2325 -0.0160  0.4235
16067TIP3    H169616   5.624   0.931  15.417  1.2332 -0.0819 -0.6478
16067TIP3    H269617   5.655   0.965  15.561 -1.1919 -0.4957  0.0088
16068TIP3   OH269618   1.442   0.102   0.144 -0.0630  0.0385  0.2486
16068TIP3    H169619   1.476   0.138   0.062 -2.3809 -0.5820 -1.0037
16068TIP3    H269620   1.519   0.097   0.201  1.6376  0.1733 -1.9771
16069TIP3   OH269621   4.882   3.664   4.596 -0.1394  0.0669 -0.1895
16069TIP3    H169622   4.834   3.666   4.679  0.1380  0.8888 -0.0507
16069TIP3    H269623   4.972   3.685   4.620  0.3049 -1.4562 -0.4494
16070TIP3   OH269624   3.889   1.917  14.324 -0.9143  0.5950  0.0239
16070TIP3    H169625   3.976   1.939  14.358 -1.6487  2.4858  0.7602
16070TIP3    H269626   3.861   1.842  14.376  0.1640  0.1235 -0.0557
16071TIP3   OH269627   3.462   1.589   0.783 -0.6376  0.3428 -0.1427
16071TIP3    H169628   3.373   1.599   0.816 -0.4775  0.2267  0.3288
16071TIP3    H269629   3.502   1.525   0.842  0.5123  2.1964  1.1595
16072TIP3   OH269630   3.512   5.151   0.178 -0.2481 -0.0789 -0.2564
16072TIP3    H169631   3.532   5.173   0.269 -0.1984  0.9859 -0.5216
16072TIP3    H269632   3.570   5.207   0.126 -1.2717  0.3303 -0.9656
16073TIP3   OH269633   2.365   6.141  11.190  0.0674 -0.0554 -0.0733
16073TIP3    H169634   2.410   6.115  11.110  0.5668  0.4300  0.0442
16073TIP3    H269635   2.289   6.192  11.160 -1.9101 -3.0398 -0.3761
16074TIP3   OH269636   4.660   6.474  10.911 -0.1947 -0.1879  0.2838
16074TIP3    H169637   4.580   6.507  10.870  0.5731 -1.5676 -2.4560
16074TIP3    H269638   4.650   6.378  10.908  1.8863 -0.3963 -0.8515
16075TIP3   OH269639   1.548   2.204   6.021 -0.4848 -0.9398 -0.7480
16075TIP3    H169640   1.461   2.206   6.059 -1.7457 -3.4408 -3.3745
16075TIP3    H269641   1.600   2.150   6.081 -0.8532  0.0731  0.5070
16076TIP3   OH269642   2.880   6.537   5.557 -0.6012 -0.6062  0.1258
16076TIP3    H169643   2.881   6.469   5.490 -0.2644  1.3577 -1.9259
16076TIP3    H269644   2.970   6.542   5.588 -0.5486 -0.8308  0.0099
16077TIP3   OH269645   4.740   5.201   0.136 -0.1330 -0.1268  0.2626
16077TIP3    H169646   4.813   5.263   0.132  0.6686 -1.0836 -0.3469
16077TIP3    H269647   4.663   5.255   0.148  0.5170  1.0235 -0.6566
16078TIP3   OH269648   4.247   3.619  16.418 -0.1300 -0.2937 -0.3916
16078TIP3    H169649   4.262   3.536  16.373 -0.8340 -1.0280  0.7018
16078TIP3    H269650   4.175   3.601  16.479 -1.9612  1.7500 -1.8419
16079TIP3   OH269651   3.296   6.117  16.574 -0.4040 -0.2624 -0.0035
16079TIP3    H169652   3.388   6.115  16.598 -0.2747  1.5384 -0.2687
16079TIP3    H269653   3.251   6.142  16.654 -0.4461  0.9286 -0.3886
16080TIP3   OH269654   6.522   3.298   1.665  0.2944  0.0840  0.2589
16080TIP3    H169655   6.563   3.272   1.583 -0.4259  0.7923 -0.3333
16080TIP3    H269656   6.442   3.246   1.670 -1.0116  1.9321 -0.7948
16081TIP3   OH269657   0.782   5.348  12.789 -0.2921  0.2242 -0.3390
16081TIP3    H169658   0.728   5.294  12.732  0.6622  0.3348 -1.3622
16081TIP3    H269659   0.824   5.286  12.848 -1.6697  0.1538  0.5839
16082TIP3   OH269660   1.544   0.664   3.136 -0.0764 -0.0856  0.5295
16082TIP3    H169661   1.466   0.675   3.082 -0.1015  0.5752  0.6929
16082TIP3    H269662   1.553   0.570   3.147 -1.3487 -0.1274  1.2277
16083TIP3   OH269663   3.149   3.149  15.513 -0.1036 -0.6594  0.3216
16083TIP3    H169664   3.193   3.103  15.442  1.6624  0.6550  0.5438
16083TIP3    H269665   3.058   3.156  15.484  0.4051 -0.9553 -1.3791
16084TIP3   OH269666   6.483   4.270  11.848 -0.2776  0.4357 -0.2160
16084TIP3    H169667   6.473   4.216  11.769 -0.4287 -1.8900  1.3316
16084TIP3    H269668   6.403   4.254  11.898 -0.4941  2.4352  0.1227
16085TIP3   OH269669   2.227   5.887  16.988 -0.1797  0.5678  0.1299
16085TIP3    H169670   2.198   5.966  17.033  0.2182  1.0594 -0.4782
16085TIP3    H269671   2.321   5.882  17.008 -0.5208 -0.6448  1.5275
16086TIP3   OH269672   5.302   5.314  10.971  0.4260 -0.4027 -0.4104
16086TIP3    H169673   5.393   5.335  10.951  1.0661 -1.3437  1.3612
16086TIP3    H269674   5.251   5.383  10.929  1.9716  0.2416 -1.2546
16087TIP3   OH269675   4.014   5.932  10.714 -0.5437  0.0875 -0.0387
16087TIP3    H169676   4.061   5.952  10.796 -0.4190  0.7107 -0.2619
16087TIP3    H269677   4.083   5.927  10.648 -0.7946  0.9828 -0.3655
16088TIP3   OH269678   5.156   6.013   3.858  0.6657  0.0936 -0.1686
16088TIP3    H169679   5.119   5.926   3.844  0.4679  0.3481 -1.2160
16088TIP3    H269680   5.106   6.049   3.931  1.8918 -1.3392  1.4366
16089TIP3   OH269681   6.095   2.196   4.374  0.9249 -0.4438 -0.8320
16089TIP3    H169682   6.098   2.273   4.431  1.1979 -1.3250  0.3724
16089TIP3    H269683   6.021   2.212   4.315  0.4179  0.3252  0.0065
16090TIP3   OH269684   3.008   0.378   2.461  0.5337  0.3643 -0.4587
16090TIP3    H169685   2.971   0.290   2.474 -1.1782  1.3185  1.3545
16090TIP3    H269686   3.054   0.372   2.377 -0.0939 -2.0826 -0.6797
16091TIP3   OH269687   6.668   4.744   4.017  0.8661  0.0226  0.7739
16091TIP3    H169688   6.686   4.658   3.980  1.5561  0.7957 -0.7386
16091TIP3    H269689   6.647   4.727   4.108 -1.4520 -1.9963 -0.0821
16092TIP3   OH269690   0.271   4.479  16.015 -0.6822 -0.5266  0.3512
16092TIP3    H169691   0.290   4.389  15.990 -1.1634 -0.9248  1.3676
16092TIP3    H269692   0.315   4.533  15.949  1.6346 -1.4533  1.0625
16093TIP3   OH269693   2.519   6.663   0.883 -0.3056  0.4505 -0.1419
16093TIP3    H169694   2.595   6.681   0.937  0.8284 -4.0357 -0.0921
16093TIP3    H269695   2.553   6.665   0.793 -0.6530  0.8516 -0.2646
16094TIP3   OH269696   1.444   3.885   2.476  0.2893  0.7711 -0.4002
16094TIP3    H169697   1.452   3.919   2.387  2.6550  3.5202  0.7603
16094TIP3    H269698   1.361   3.920   2.508  1.3312  3.1605 -0.2118
16095TIP3   OH269699   3.799   0.902  11.429  0.0699  0.2342 -0.1960
16095TIP3    H169700   3.815   0.862  11.343  1.2589 -0.6642  0.4225
16095TIP3    H269701   3.886   0.907  11.469 -0.4698  0.7518  0.9092
16096TIP3   OH269702   0.800   1.900  14.053 -0.5256 -0.4123 -0.3234
16096TIP3    H169703   0.824   1.981  14.009  1.2774 -0.8862 -0.2803
16096TIP3    H269704   0.867   1.888  14.120 -0.7082 -1.9758 -0.3882
16097TIP3   OH269705   3.206   6.248  12.516 -0.2394 -0.2842 -0.1913
16097TIP3    H169706   3.259   6.318  12.554 -0.1568 -0.9462  0.9225
16097TIP3    H269707   3.229   6.170  12.566 -2.9503 -0.3923  0.9525
16098TIP3   OH269708   3.500   2.354  12.166  0.1012  0.0082  0.0199
16098TIP3    H169709   3.533   2.369  12.078 -1.3924 -1.0711 -0.7345
16098TIP3    H269710   3.424   2.412  12.174 -0.0906 -0.2962  0.4172
16099TIP3   OH269711   6.724   5.745  14.354 -0.5503  0.0642  0.0600
16099TIP3    H169712   6.713   5.825  14.303 -0.9088 -1.4519 -2.3319
16099TIP3    H269713   6.818   5.728  14.352 -0.5603  0.0240 -0.0993
16100TIP3   OH269714   5.382   4.137  13.266  0.0190  0.2898  0.7838
16100TIP3    H169715   5.293   4.102  13.274  0.1767  0.0811  1.6524
16100TIP3    H269716   5.430   4.095  13.337  1.7750 -2.5420 -1.9455
16101TIP3   OH269717   4.612   2.163   4.980  0.2979  0.0029  0.0945
16101TIP3    H169718   4.582   2.089   5.033  1.3877 -0.6999 -0.2488
16101TIP3    H269719   4.533   2.211   4.958 -0.4364 -1.1183  0.2554
16102TIP3   OH269720   2.378   0.675   3.411 -0.1516  0.3386  0.6263
16102TIP3    H169721   2.314   0.737   3.446 -0.9925 -0.4700  0.5403
16102TIP3    H269722   2.462   0.718   3.424 -0.7687  1.7710 -0.0066
16103TIP3   OH269723   1.232   1.904  15.756 -0.2064  0.1576  0.4306
16103TIP3    H169724   1.158   1.851  15.786 -0.0041  0.7550  1.9957
16103TIP3    H269725   1.293   1.840  15.718 -0.8415 -0.5002  0.4992
16104TIP3   OH269726   0.217   1.760  16.348  0.0289  0.2987 -1.0017
16104TIP3    H169727   0.256   1.693  16.292  1.3454 -0.7863  1.1631
16104TIP3    H269728   0.256   1.842  16.317  1.5778 -0.4061 -0.9638
16105TIP3   OH269729   2.624   6.571   4.281 -0.3171 -0.0480  0.0059
16105TIP3    H169730   2.624   6.484   4.240  1.3933  0.3617 -0.8971
16105TIP3    H269731   2.574   6.559   4.362 -0.6269 -1.7234 -0.4111
16106TIP3   OH269732   0.957   0.573   5.337  0.4829  0.3066 -0.7207
16106TIP3    H169733   0.929   0.663   5.321 -1.5824 -0.1034  0.3948
16106TIP3    H269734   0.961   0.534   5.250  1.0878  1.3722 -1.1875
16107TIP3   OH269735   4.920   3.308   5.460  0.4480  0.1431 -0.0021
16107TIP3    H169736   5.005   3.274   5.431 -0.1413 -0.6546 -0.8328
16107TIP3    H269737   4.905   3.384   5.405  0.8147  0.5319  0.4317
16108TIP3   OH269738   4.174   5.093  11.233  0.0692 -0.0357 -0.1914
16108TIP3    H169739   4.242   5.103  11.167  0.8051 -1.3674  0.3346
16108TIP3    H269740   4.110   5.033  11.194 -0.8312  1.2287 -0.6923
16109TIP3   OH269741   6.155   6.649   4.528  0.0308  0.2177 -0.0401
16109TIP3    H169742   6.175   6.742   4.539 -0.1216  0.0683  1.5101
16109TIP3    H269743   6.090   6.648   4.457 -1.6297  1.5129  1.3918
16110TIP3   OH269744   6.208   0.113  13.610  0.0276  0.1628 -0.0509
16110TIP3    H169745   6.117   0.102  13.638 -1.0323  1.9811 -2.5457
16110TIP3    H269746   6.203   0.117  13.514  2.6120  1.3020 -0.1800
16111TIP3   OH269747   2.183   5.509  11.803  0.4019  0.6339 -0.4240
16111TIP3    H169748   2.205   5.585  11.856 -0.4920 -0.8219  2.1009
16111TIP3    H269749   2.100   5.533  11.760 -0.6179  0.5848  1.4664
16112TIP3   OH269750   3.992   5.966   3.013 -0.6268 -0.0151  0.1892
16112TIP3    H169751   4.081   5.933   2.999 -1.4057 -3.2431  2.1894
16112TIP3    H269752   3.935   5.900   2.973 -2.1988  0.6304  1.2788
16113TIP3   OH269753   0.774   6.167   0.882 -0.4997  0.2290 -0.7496
16113TIP3    H169754   0.695   6.213   0.851  0.2892  1.9513 -0.2810
16113TIP3    H269755   0.846   6.217   0.845  0.3844 -0.9816 -0.6640
16114TIP3   OH269756   3.056   5.302  12.910  0.2189 -0.1727 -0.5750
16114TIP3    H169757   3.064   5.245  12.833 -2.8062  1.9298 -2.5241
16114TIP3    H269758   3.139   5.349  12.913 -0.1022  0.6681 -3.3844
16115TIP3   OH269759   1.129   5.429   0.535  0.2569  0.1716  0.4938
16115TIP3    H169760   1.171   5.478   0.464  0.7428  0.9866  1.3438
16115TIP3    H269761   1.096   5.350   0.492 -1.1010  1.5037 -1.0329
16116TIP3   OH269762   5.528   2.735   6.328  0.3217  0.0708 -0.2316
16116TIP3    H169763   5.594   2.667   6.343 -0.0904 -0.2162  0.2994
16116TIP3    H269764   5.558   2.809   6.381  1.4268  0.7484 -1.7621
16117TIP3   OH269765   1.390   4.890  15.514  0.9533 -0.0201 -0.3365
16117TIP3    H169766   1.363   4.938  15.592  0.4857  0.0934 -0.5672
16117TIP3    H269767   1.466   4.840  15.542 -0.9514 -2.2623  1.0253
16118TIP3   OH269768   4.086   1.777   3.998  0.1251  0.2898  0.3046
16118TIP3    H169769   3.993   1.775   3.977  0.1345  0.2972  0.2622
16118TIP3    H269770   4.092   1.833   4.075  0.2757  1.5956 -0.6256
16119TIP3   OH269771   3.524   0.969   2.139  0.0761  0.2179 -0.3710
16119TIP3    H169772   3.469   0.975   2.061 -1.3564 -1.3621  0.4983
16119TIP3    H269773   3.463   0.979   2.212  1.3015  0.8599  0.5783
16120TIP3   OH269774   5.533   6.498   1.884 -0.3452  0.2206  0.5313
16120TIP3    H169775   5.484   6.557   1.942 -1.4361 -1.1137  0.9900
16120TIP3    H269776   5.567   6.430   1.942  1.9378  1.0355  0.1833
16121TIP3   OH269777   0.571   0.763   0.115 -0.0484 -0.4533 -0.1212
16121TIP3    H169778   0.657   0.805   0.115 -0.7915  1.1461  1.8474
16121TIP3    H269779   0.550   0.750   0.023  1.2158  1.4233 -0.6899
16122TIP3   OH269780   1.025   2.454  13.932  0.3566  0.1160 -0.4965
16122TIP3    H169781   1.027   2.487  14.022  1.7357  0.2164 -0.5566
16122TIP3    H269782   0.979   2.370  13.939 -1.3313  1.0410 -0.0274
16123TIP3   OH269783   4.389   5.457  11.402  0.2983 -0.6882  0.2949
16123TIP3    H169784   4.469   5.404  11.407  0.8070  0.0749  0.2607
16123TIP3    H269785   4.410   5.527  11.340 -0.2581 -0.2432  0.6021
16124TIP3   OH269786   5.419   2.517   5.128 -0.2853  0.4986 -0.8789
16124TIP3    H169787   5.512   2.495   5.123 -0.0593  0.8873  1.0598
16124TIP3    H269788   5.380   2.474   5.053  1.0037 -2.1516 -0.0931
16125TIP3   OH269789   6.413   4.746   4.884  0.0492  0.4207 -0.2304
16125TIP3    H169790   6.385   4.757   4.975 -1.3740 -0.0548 -0.5980
16125TIP3    H269791   6.390   4.656   4.862  0.8039  0.3911 -0.9159
16126TIP3   OH269792   5.485   4.442   1.436 -0.3177  0.0517  0.3895
16126TIP3    H169793   5.440   4.357   1.433  2.5484 -1.5458  0.6042
16126TIP3    H269794   5.499   4.459   1.529  1.6196 -0.6837  0.2676
16127TIP3   OH269795   1.385   5.609   5.439 -0.3113  0.4342  0.1567
16127TIP3    H169796   1.361   5.519   5.460  2.1047  0.0018  1.1802
16127TIP3    H269797   1.332   5.662   5.498 -2.7083 -0.2114 -1.3460
16128TIP3   OH269798   2.927   2.821  13.435 -0.2436  0.0468 -0.3680
16128TIP3    H169799   2.969   2.900  13.400 -1.0668  0.0541 -1.3578
16128TIP3    H269800   2.970   2.749  13.388  0.8860 -0.1546  0.9156
16129TIP3   OH269801   3.885   2.589  14.546  0.0195  0.0112  0.0977
16129TIP3    H169802   3.921   2.677  14.538 -2.2469  1.0093  0.5041
16129TIP3    H269803   3.825   2.594  14.621 -1.3409 -1.4173 -0.8570
16130TIP3   OH269804   1.172   0.753   1.173 -0.6304 -0.4671  0.1612
16130TIP3    H169805   1.173   0.663   1.205  2.7798 -1.5450 -2.5447
16130TIP3    H269806   1.236   0.799   1.228 -0.1904 -0.4634 -0.3497
16131TIP3   OH269807   0.961   6.529  15.467 -0.3863 -0.3760 -0.2794
16131TIP3    H169808   0.984   6.569  15.551  1.1193 -0.7205 -0.5139
16131TIP3    H269809   1.030   6.465  15.452  0.1042  0.6254 -2.4480
16132TIP3   OH269810   1.976   1.147  12.497 -0.2603  0.5430 -0.3614
16132TIP3    H169811   1.892   1.190  12.486 -0.0210  1.3829  1.0109
16132TIP3    H269812   1.954   1.056  12.517 -0.8422  0.7392 -0.0997
16133TIP3   OH269813   3.623   6.757   4.100  0.2110 -0.0138  0.5273
16133TIP3    H169814   3.590   6.751   4.190  3.4986  1.4888  1.9133
16133TIP3    H269815   3.603   6.847   4.074  2.1087  0.5629  0.9792
16134TIP3   OH269816   0.092   3.500   1.807 -0.0919 -0.3067  0.6188
16134TIP3    H169817   0.012   3.511   1.756 -0.7769  0.1950  1.7660
16134TIP3    H269818   0.117   3.409   1.793 -1.6575 -0.8723  1.3623
16135TIP3   OH269819   3.249   2.698  14.240 -0.2061  0.5616  0.0425
16135TIP3    H169820   3.339   2.672  14.220 -0.1004  1.1681 -0.2928
16135TIP3    H269821   3.194   2.632  14.199  0.1183 -0.5131  1.3180
16136TIP3   OH269822   6.172   6.142  14.327 -0.3664  0.3447 -0.4527
16136TIP3    H169823   6.090   6.122  14.373  0.1344  0.1672  0.3692
16136TIP3    H269824   6.149   6.213  14.267 -1.0565  0.4815 -0.0324
16137TIP3   OH269825   6.464   5.925  14.416 -0.3163  0.2275  0.6733
16137TIP3    H169826   6.487   5.834  14.401  0.4853  0.5767 -0.3005
16137TIP3    H269827   6.376   5.935  14.378  0.0872  0.1504 -0.2743
16138TIP3   OH269828   4.097   1.473  15.027  0.3598  0.0956  0.1103
16138TIP3    H169829   4.022   1.475  14.967  1.5412  1.1029 -1.3466
16138TIP3    H269830   4.058   1.450  15.112 -1.0459 -3.9499 -1.4622
16139TIP3   OH269831   4.427   1.078  17.239  0.2842  0.0088 -0.0353
16139TIP3    H169832   4.340   1.063  17.201 -0.3202  0.4147  1.1807
16139TIP3    H269833   4.441   1.172  17.231  0.3413  0.0331  0.3344
16140TIP3   OH269834   3.351   6.743  14.325  0.0596  0.9269  0.4137
16140TIP3    H169835   3.441   6.721  14.349 -0.0706 -0.7615 -0.5960
16140TIP3    H269836   3.337   6.700  14.241 -2.0385  0.2932  1.0650
16141TIP3   OH269837   6.285   5.211   4.648  0.0607 -0.0421  0.2251
16141TIP3    H169838   6.300   5.295   4.606 -1.7325 -0.0082 -0.3766
16141TIP3    H269839   6.232   5.161   4.586  0.6583 -1.4349  0.7934
16142TIP3   OH269840   0.680   3.054  11.576  0.5247 -0.3421  0.1348
16142TIP3    H169841   0.720   3.139  11.594  0.5731 -0.2619 -0.3443
16142TIP3    H269842   0.748   2.990  11.599 -0.0925 -0.3252  2.0842
16143TIP3   OH269843   4.841   5.330   3.833  0.3699  0.2496 -0.4366
16143TIP3    H169844   4.878   5.364   3.915 -0.6896 -1.3337  0.7449
16143TIP3    H269845   4.862   5.236   3.836 -4.8093 -1.0343  0.9799
16144TIP3   OH269846   6.603   3.772  11.090  0.7823  0.2643 -0.0504
16144TIP3    H169847   6.525   3.723  11.064  0.4065  1.0541 -0.4341
16144TIP3    H269848   6.656   3.777  11.010  1.1799 -0.1768  0.1818
16145TIP3   OH269849   4.772   6.650  15.393 -0.2428 -0.1256 -0.5624
16145TIP3    H169850   4.765   6.689  15.480  0.2763  0.3989 -0.7536
16145TIP3    H269851   4.864   6.627  15.384 -0.2596 -0.0064 -1.0485
16146TIP3   OH269852   6.158   6.264  14.868  0.3276 -0.1988 -0.3640
16146TIP3    H169853   6.112   6.315  14.801 -0.4044 -0.3758  0.0012
16146TIP3    H269854   6.179   6.327  14.937  1.7975  0.1493 -1.1157
16147TIP3   OH269855   2.185   2.271  15.807  0.3717  0.0182  0.0021
16147TIP3    H169856   2.258   2.285  15.868 -0.4611 -1.2873  1.3324
16147TIP3    H269857   2.178   2.176  15.800 -2.5844  0.0589  1.6426
16148TIP3   OH269858   6.695   1.251  13.638  0.3099  0.0232 -0.2921
16148TIP3    H169859   6.764   1.242  13.573  2.4608 -0.2804  1.9702
16148TIP3    H269860   6.719   1.191  13.708 -1.4934  0.9366  1.1650
16149TIP3   OH269861   3.799   5.573   3.338 -0.2917  0.5133 -0.4694
16149TIP3    H169862   3.888   5.587   3.306  0.4763 -1.2681  0.7683
16149TIP3    H269863   3.801   5.604   3.428 -0.9879  0.6354 -0.4922
16150TIP3   OH269864   0.118   2.132  13.289  0.3869  0.1928  0.1147
16150TIP3    H169865   0.040   2.180  13.317 -0.1890 -0.8703  0.3698
16150TIP3    H269866   0.110   2.047  13.332  2.4822  0.6199  1.4158
16151TIP3   OH269867   2.748   6.291   6.185 -0.2522 -0.1950 -0.0332
16151TIP3    H169868   2.797   6.280   6.103  0.3122  0.8164  0.1654
16151TIP3    H269869   2.811   6.269   6.254 -0.0944  1.0384  0.2212
16152TIP3   OH269870   0.275   6.411  12.463 -0.1372 -0.1251  0.0146
16152TIP3    H169871   0.252   6.328  12.420 -0.1122 -0.5881  0.8973
16152TIP3    H269872   0.362   6.433  12.428  0.5203 -1.2505  0.9122
16153TIP3   OH269873   2.771   3.043  13.624  0.1529  0.8953 -0.6492
16153TIP3    H169874   2.800   3.118  13.572 -0.1184  1.8316  0.5354
16153TIP3    H269875   2.794   3.066  13.714 -0.5849 -0.1251 -0.1969
16154TIP3   OH269876   2.224   3.879  13.699  0.1837 -0.4572  0.1746
16154TIP3    H169877   2.307   3.926  13.687  0.2395 -0.3897  0.8075
16154TIP3    H269878   2.248   3.802  13.751 -0.3477  0.1970  1.4288
16155TIP3   OH269879   3.889   1.072  14.805  0.3179 -0.2023  0.1573
16155TIP3    H169880   3.971   1.089  14.852  1.1339 -3.0053 -0.1417
16155TIP3    H269881   3.903   1.110  14.718  0.7173  0.6423  0.5871
16156TIP3   OH269882   1.663   4.431  15.870  0.7434 -0.6050  0.5690
16156TIP3    H169883   1.749   4.440  15.830  0.3208 -2.4440 -0.8570
16156TIP3    H269884   1.661   4.341  15.903 -0.7828 -0.7273  0.1807
16157TIP3   OH269885   3.553   4.461   5.511 -0.3191  0.2219  0.3453
16157TIP3    H169886   3.475   4.411   5.537 -0.4966 -0.3866 -1.3331
16157TIP3    H269887   3.626   4.409   5.544 -0.5770  0.3703  1.1859
16158TIP3   OH269888   1.412   4.678  17.075  0.2120  0.0632  0.2622
16158TIP3    H169889   1.507   4.689  17.079  0.1893  0.1999  0.4381
16158TIP3    H269890   1.384   4.726  16.997  0.2193  0.5024  0.5281
16159TIP3   OH269891   2.235   2.899  13.376  0.6121 -0.4326 -0.0973
16159TIP3    H169892   2.324   2.918  13.405  0.2109 -2.1665  2.3817
16159TIP3    H269893   2.243   2.888  13.281  2.6449  1.5259 -0.1967
16160TIP3   OH269894   4.162   2.829  11.485 -0.0177  0.9296  0.0143
16160TIP3    H169895   4.219   2.895  11.444  1.4658 -0.2600  0.1087
16160TIP3    H269896   4.222   2.772  11.533 -1.0172 -1.7310 -1.7600
16161TIP3   OH269897   2.345   6.442   5.153 -0.1788 -0.1247  0.1048
16161TIP3    H169898   2.322   6.481   5.237 -0.1424  0.4576 -0.1524
16161TIP3    H269899   2.440   6.451   5.147 -0.1862 -0.1269 -0.0153
16162TIP3   OH269900   2.011   4.590   3.670  0.1423 -0.2951 -0.0654
16162TIP3    H169901   2.020   4.505   3.712  1.6226 -0.6321 -1.0238
16162TIP3    H269902   1.926   4.586   3.626  0.1100 -1.2115  0.0653
16163TIP3   OH269903   3.815   0.807  15.495  0.5827  0.2431  0.2941
16163TIP3    H169904   3.739   0.795  15.437  2.2300  0.9676 -2.1042
16163TIP3    H269905   3.851   0.719  15.505 -1.0104 -0.2335  2.1140
16164TIP3   OH269906   1.463   2.613   1.829  0.2180 -0.5684  0.4340
16164TIP3    H169907   1.461   2.518   1.837 -0.8964 -0.3762  2.7378
16164TIP3    H269908   1.396   2.644   1.889  0.8821  1.7035  0.0546
16165TIP3   OH269909   0.976   0.267   2.117 -0.6744  0.2981  0.3566
16165TIP3    H169910   0.986   0.172   2.105  1.3661  0.5089  0.2250
16165TIP3    H269911   0.955   0.277   2.210  1.0392 -0.1683  0.8077
16166TIP3   OH269912   4.533   2.556  16.037 -0.0019 -0.1048  0.7638
16166TIP3    H169913   4.527   2.637  16.088 -0.4611  0.7733 -0.6384
16166TIP3    H269914   4.442   2.533  16.018  0.1772  0.0794 -0.3959
16167TIP3   OH269915   6.720   0.595   2.464  0.0871 -0.1734 -0.0537
16167TIP3    H169916   6.754   0.684   2.470 -0.1739 -0.1315  1.0506
16167TIP3    H269917   6.779   0.543   2.518  1.0624 -0.9337 -1.8410
16168TIP3   OH269918   4.573   6.517  16.281 -0.2595  0.2590 -0.1131
16168TIP3    H169919   4.573   6.459  16.357  2.2112 -0.1413 -0.3947
16168TIP3    H269920   4.596   6.603  16.317  2.6253 -0.2561 -0.5819
16169TIP3   OH269921   2.922   3.938   2.022  0.0784  0.0377  0.3575
16169TIP3    H169922   2.831   3.916   2.037 -0.5904  2.8611  0.8168
16169TIP3    H269923   2.964   3.924   2.107  0.2717 -2.0191 -0.0539
16170TIP3   OH269924   1.851   0.294   3.442  0.1468  0.6015 -0.1563
16170TIP3    H169925   1.841   0.354   3.516  0.5205  1.6453 -0.9434
16170TIP3    H269926   1.840   0.349   3.364  1.2722 -0.1957 -0.8967
16171TIP3   OH269927   0.565   5.967  14.796 -0.2577 -0.4641 -0.2884
16171TIP3    H169928   0.495   6.032  14.789 -1.3154 -1.5835 -0.3982
16171TIP3    H269929   0.534   5.905  14.862  0.1413 -1.5441 -1.0866
16172TIP3   OH269930   3.381   5.651   1.323 -0.5159 -0.3836  0.2886
16172TIP3    H169931   3.347   5.638   1.412  0.5852  2.6164  1.2160
16172TIP3    H269932   3.457   5.708   1.335  0.5609 -1.1637 -2.4588
16173TIP3   OH269933   2.425   1.521  11.189  0.0764  0.0541  0.2865
16173TIP3    H169934   2.334   1.549  11.193 -1.3459 -4.0520 -0.9144
16173TIP3    H269935   2.447   1.526  11.096  1.2533  1.4381  0.6223
16174TIP3   OH269936   3.090   5.527  13.989  0.2105 -0.8087 -0.2089
16174TIP3    H169937   3.038   5.591  13.942 -1.6309 -1.0292  1.4625
16174TIP3    H269938   3.180   5.557  13.979 -0.5200  1.4343 -0.3706
16175TIP3   OH269939   0.103   5.240   3.391 -0.1475  0.3282  0.0222
16175TIP3    H169940   0.139   5.268   3.475  1.1923 -0.2579 -0.3475
16175TIP3    H269941   0.008   5.241   3.404  0.0656 -0.2306  1.6914
16176TIP3   OH269942   2.506   2.148  14.587  0.1470  0.1412 -0.1539
16176TIP3    H169943   2.421   2.121  14.553 -1.4173  3.5212  0.9508
16176TIP3    H269944   2.543   2.067  14.625 -2.4198 -1.4145 -0.8689
16177TIP3   OH269945   3.891   5.905  10.196 -0.0209  0.4180 -0.4205
16177TIP3    H169946   3.952   5.842  10.157  1.1695  0.8937  0.6515
16177TIP3    H269947   3.844   5.854  10.262 -0.3434  0.2236 -0.7899
16178TIP3   OH269948   4.458   1.859  14.040 -0.6927  0.3854 -0.3070
16178TIP3    H169949   4.507   1.811  14.106 -2.7646  1.4202  2.0336
16178TIP3    H269950   4.446   1.795  13.969  1.9055 -0.6015  0.0608
16179TIP3   OH269951   6.751   4.231  13.958  0.7575  0.2624 -0.8269
16179TIP3    H169952   6.710   4.293  13.898  1.2805  0.7865 -0.6506
16179TIP3    H269953   6.845   4.241  13.942  0.7833 -1.8785 -2.1757
16180TIP3   OH269954   2.678   0.834  15.139  0.5475  0.0778 -0.2521
16180TIP3    H169955   2.609   0.890  15.175  0.9768 -0.0101  0.7109
16180TIP3    H269956   2.759   0.872  15.172  0.8959 -0.5031 -0.4403
16181TIP3   OH269957   1.781   2.165   3.711 -0.7373 -0.3388  0.5293
16181TIP3    H169958   1.769   2.071   3.705 -0.1242 -0.4399  0.8322
16181TIP3    H269959   1.692   2.201   3.710 -0.9652 -0.9094  0.2855
16182TIP3   OH269960   0.624   6.309  10.927 -0.2147  0.3318 -0.0894
16182TIP3    H169961   0.678   6.367  10.873 -0.7181 -0.5027 -1.5343
16182TIP3    H269962   0.652   6.221  10.902 -0.7095 -0.0711  0.7621
16183TIP3   OH269963   5.338   0.737  16.660 -0.1496  0.1960  0.3133
16183TIP3    H169964   5.271   0.758  16.596 -1.5745 -1.4395  1.2115
16183TIP3    H269965   5.307   0.778  16.741  1.0351  1.2490  0.2463
16184TIP3   OH269966   0.549   4.816   1.114  0.7459 -0.1102 -0.5289
16184TIP3    H169967   0.548   4.844   1.023  0.3681 -0.5052 -0.6489
16184TIP3    H269968   0.517   4.726   1.112  0.3217  0.0229  0.0422
16185TIP3   OH269969   5.331   1.175   4.141 -0.2161 -0.7214  0.3612
16185TIP3    H169970   5.247   1.220   4.143 -0.5325 -1.2707 -0.5376
16185TIP3    H269971   5.395   1.245   4.126 -0.5744 -0.3968  0.3469
16186TIP3   OH269972   1.562   2.124  13.949  0.3135 -0.0387  0.2082
16186TIP3    H169973   1.544   2.181  14.023 -0.0509 -0.1449  0.2025
16186TIP3    H269974   1.640   2.076  13.974 -0.2099 -0.5763  0.8139
16187TIP3   OH269975   2.785   0.269  16.597  0.1327  0.0825  0.8012
16187TIP3    H169976   2.765   0.176  16.609  0.7141 -0.0949  0.4190
16187TIP3    H269977   2.878   0.277  16.619  0.3938  0.3435 -0.3794
16188TIP3   OH269978   6.730   0.547   3.790  0.1834 -0.0627  0.0876
16188TIP3    H169979   6.792   0.500   3.735  0.7204  1.2190 -0.4131
16188TIP3    H269980   6.772   0.552   3.876  1.0312  1.2940 -0.3961
16189TIP3   OH269981   6.572   6.573  14.810  0.1638  0.3425  0.0982
16189TIP3    H169982   6.556   6.480  14.793  2.1780  0.2660 -1.5434
16189TIP3    H269983   6.569   6.581  14.906  1.7078 -1.7631  0.3509
16190TIP3   OH269984   2.614   5.252   3.131 -0.2386  0.1102 -0.0467
16190TIP3    H169985   2.611   5.321   3.196 -0.2249 -0.6560  0.7824
16190TIP3    H269986   2.680   5.281   3.067  1.1844 -0.0409  1.3267
16191TIP3   OH269987   3.430   2.009  16.017 -0.4657  0.1074 -0.5391
16191TIP3    H169988   3.458   1.933  16.068  1.7869  0.7908 -0.6963
16191TIP3    H269989   3.439   1.981  15.926 -0.6341  0.2085 -0.5857
16192TIP3   OH269990   3.238   6.670  10.322 -0.0752 -0.0940  0.5824
16192TIP3    H169991   3.150   6.633  10.309  0.0456 -0.5729  1.1186
16192TIP3    H269992   3.232   6.759  10.286 -0.0497 -1.0209 -1.8081
16193TIP3   OH269993   5.581   3.197   3.219  0.7697  0.3554 -0.1293
16193TIP3    H169994   5.501   3.153   3.190  2.1671 -1.5634 -1.1760
16193TIP3    H269995   5.586   3.275   3.162 -0.0283  0.1756 -0.4596
16194TIP3   OH269996   1.446   0.924  14.217 -0.8414  0.3501 -0.2797
16194TIP3    H169997   1.463   0.830  14.204 -1.1059  0.2856 -0.1638
16194TIP3    H269998   1.351   0.932  14.213 -0.7829  0.7236 -1.0151
16195TIP3   OH269999   3.489   3.400  16.546  0.3143 -0.0653 -0.3309
16195TIP3    H170000   3.520   3.427  16.459  1.5664 -2.1969 -0.5907
16195TIP3    H270001   3.472   3.483  16.592  2.6433  1.1626 -1.5539
16196TIP3   OH270002   1.947   2.855   1.094  0.9633 -0.2500  0.3826
16196TIP3    H170003   2.000   2.815   1.163  2.3313 -0.6661 -0.8749
16196TIP3    H270004   2.009   2.869   1.022 -0.3166  0.6980 -0.5497
16197TIP3   OH270005   0.215   4.500   2.344 -0.6293  0.2841  0.1378
16197TIP3    H170006   0.253   4.491   2.432 -0.9241 -1.4058  0.1181
16197TIP3    H270007   0.157   4.576   2.351 -0.1656  0.5493  1.2408
16198TIP3   OH270008   5.810   1.765   3.572  0.2012  0.4195 -0.3723
16198TIP3    H170009   5.779   1.717   3.495 -0.9654  0.2450  0.1900
16198TIP3    H270010   5.817   1.698   3.640 -2.2610  1.1329  0.6585
16199TIP3   OH270011   5.390   0.821   0.397 -0.5347 -0.3342 -0.2943
16199TIP3    H170012   5.450   0.767   0.448 -0.2129  0.5501  0.2826
16199TIP3    H270013   5.334   0.863   0.462 -0.5008  0.3561 -0.7066
16200TIP3   OH270014   1.408   6.606  15.650 -0.1820  0.6497  0.0073
16200TIP3    H170015   1.493   6.647  15.661 -0.8335  1.9030  0.4421
16200TIP3    H270016   1.400   6.548  15.726 -1.1281  3.0549  1.7991
16201TIP3   OH270017   0.159   6.389  11.459  0.7185  0.1028 -0.1784
16201TIP3    H170018   0.222   6.335  11.506  0.1561  0.3692  0.8953
16201TIP3    H270019   0.103   6.327  11.413  0.1756 -0.2296  0.9229
16202TIP3   OH270020   3.840   1.599  16.781  0.7739 -0.3869 -0.6568
16202TIP3    H170021   3.753   1.618  16.816  1.3477 -0.3731  0.7947
16202TIP3    H270022   3.877   1.535  16.842  1.9802  0.0048 -0.9719
16203TIP3   OH270023   6.418   2.009  11.399 -0.0210  0.2919  0.5030
16203TIP3    H170024   6.369   1.997  11.480 -1.7312 -0.8323 -0.6447
16203TIP3    H270025   6.355   1.985  11.330  0.5696  3.5671 -1.2783
16204TIP3   OH270026   2.303   1.223   1.977  0.0082  0.4863  0.5989
16204TIP3    H170027   2.329   1.191   2.064 -0.6384 -1.9258 -0.0684
16204TIP3    H270028   2.218   1.183   1.961  0.2451  0.6968 -1.2618
16205TIP3   OH270029   5.081   3.320  13.358  0.1024  0.3064 -0.4715
16205TIP3    H170030   5.055   3.230  13.379 -0.3911  0.1598 -1.6574
16205TIP3    H270031   5.045   3.373  13.429 -1.3230 -0.2076 -0.7876
16206TIP3   OH270032   5.197   0.459   2.972  0.2765 -0.4101 -0.0802
16206TIP3    H170033   5.172   0.449   3.064  0.5347  0.8914  0.1519
16206TIP3    H270034   5.151   0.389   2.927  0.1385 -1.0612  1.0471
16207TIP3   OH270035   1.925   1.961  15.346 -0.2578  0.0985 -0.2637
16207TIP3    H170036   1.961   2.036  15.393 -1.4276  0.0607  0.7168
16207TIP3    H270037   1.904   1.898  15.415  1.4133 -1.4381 -1.1292
16208TIP3   OH270038   4.393   1.744  11.756  0.3808  0.2535 -0.2478
16208TIP3    H170039   4.378   1.734  11.662 -1.0198 -0.0768 -0.0080
16208TIP3    H270040   4.487   1.728  11.767  0.7745  1.4008 -1.7303
16209TIP3   OH270041   6.733   4.990   3.604 -0.1915  0.6532  0.2902
16209TIP3    H170042   6.651   4.946   3.584  0.5225  0.2115 -1.8241
16209TIP3    H270043   6.788   4.974   3.527  0.9579  3.1388  0.5351
16210TIP3   OH270044   4.375   3.627   5.511 -0.1499  0.0454 -0.7337
16210TIP3    H170045   4.367   3.711   5.554  1.1755 -1.0758  1.8064
16210TIP3    H270046   4.469   3.611   5.507 -0.4134 -1.6912 -0.4023
16211TIP3   OH270047   1.917   5.291  11.770  0.3049  0.1455 -0.0380
16211TIP3    H170048   1.983   5.354  11.798 -1.7647  1.5152  1.8987
16211TIP3    H270049   1.955   5.206  11.791  2.3052  0.8006 -0.8815
16212TIP3   OH270050   0.792   3.882  14.897 -0.8831 -0.1818  0.2026
16212TIP3    H170051   0.772   3.791  14.916 -0.6927 -0.3088 -0.2033
16212TIP3    H270052   0.861   3.905  14.959  0.1829 -0.7825 -0.7296
16213TIP3   OH270053   2.700   0.960  16.236  0.0088 -0.1156 -0.0858
16213TIP3    H170054   2.675   0.902  16.309 -1.5727  1.7849  0.9326
16213TIP3    H270055   2.728   1.041  16.278 -1.0004  1.0416 -1.5718
16214TIP3   OH270056   5.168   2.741   0.285 -0.0157  0.0410 -0.0358
16214TIP3    H170057   5.163   2.777   0.374 -1.4042  0.7670 -0.3902
16214TIP3    H270058   5.099   2.787   0.237 -0.3989 -1.5473 -1.0583
16215TIP3   OH270059   3.548   4.299   3.755 -0.6190  0.0035 -0.8310
16215TIP3    H170060   3.584   4.335   3.836 -1.9683  0.4259 -0.4106
16215TIP3    H270061   3.624   4.259   3.711  0.2482  0.3659  0.3049
16216TIP3   OH270062   1.260   1.260  16.763  0.4669 -0.1320 -0.4546
16216TIP3    H170063   1.262   1.165  16.756 -1.6433 -0.1976 -0.5197
16216TIP3    H270064   1.309   1.279  16.843 -1.5796 -1.5223  1.2121
16217TIP3   OH270065   1.554   0.449  16.012  0.7987  0.7163  0.3582
16217TIP3    H170066   1.470   0.463  16.056 -0.0517 -2.5524 -0.1195
16217TIP3    H270067   1.571   0.531  15.966 -1.9399  1.5663  0.7942
16218TIP3   OH270068   2.068   0.282  12.421  0.3405  0.2172  0.5150
16218TIP3    H170069   2.040   0.213  12.361  1.3282 -0.3114  0.6518
16218TIP3    H270070   2.032   0.363  12.383 -0.7458 -0.3497  0.3043
16219TIP3   OH270071   1.282   1.811   0.054  0.3655 -0.1520  0.0994
16219TIP3    H170072   1.368   1.850   0.040  0.6691 -2.0363 -4.2846
16219TIP3    H270073   1.276   1.741  -0.012 -4.4682 -0.1523  0.3078
16220TIP3   OH270074   4.692   4.921  15.071  0.3242 -0.1578 -0.1224
16220TIP3    H170075   4.671   4.898  14.980  1.7481  0.1695 -0.5353
16220TIP3    H270076   4.719   4.838  15.111  0.5357 -0.1383 -0.2274
16221TIP3   OH270077   1.210   5.526  12.404 -0.4557  0.3001 -0.2897
16221TIP3    H170078   1.278   5.459  12.408  0.1561  0.9132 -0.2007
16221TIP3    H270079   1.147   5.501  12.471 -0.3050 -0.2576 -0.3523
16222TIP3   OH270080   6.736   5.594   4.334  0.0523  0.1500  0.4001
16222TIP3    H170081   6.784   5.615   4.254 -1.8038 -1.5814 -1.1987
16222TIP3    H270082   6.654   5.644   4.327 -0.5750 -0.8195  0.7069
16223TIP3   OH270083   6.722   3.299   6.159 -0.4484  0.2614 -0.1407
16223TIP3    H170084   6.746   3.289   6.251 -0.6817 -0.8087 -0.1898
16223TIP3    H270085   6.631   3.328   6.161 -0.6760 -0.4577 -0.0455
16224TIP3   OH270086   5.807   2.476   2.613 -0.4014  0.5715  0.1763
16224TIP3    H170087   5.737   2.506   2.672 -1.4240  1.1077 -1.2673
16224TIP3    H270088   5.761   2.424   2.547  0.5160  1.2457 -1.0044
16225TIP3   OH270089   4.419   5.073  12.297  0.0179  0.3488 -0.3299
16225TIP3    H170090   4.331   5.066  12.260  0.2848  0.2041 -0.9326
16225TIP3    H270091   4.447   5.162  12.277  0.5344 -0.0346 -1.2957
16226TIP3   OH270092   2.290   6.533  11.981  0.2007 -0.4249 -0.9499
16226TIP3    H170093   2.261   6.479  11.908 -1.4590  1.5707 -1.8294
16226TIP3    H270094   2.215   6.535  12.040  0.4501  0.4226 -0.6572
16227TIP3   OH270095   1.188   0.807   2.236 -0.5314  0.5468 -0.1000
16227TIP3    H170096   1.200   0.823   2.330 -0.7685  1.2783 -0.1911
16227TIP3    H270097   1.120   0.740   2.232 -0.3297  0.3181  0.2609
16228TIP3   OH270098   2.496   1.452  16.761  0.8344  0.1825  0.1149
16228TIP3    H170099   2.542   1.444  16.678 -0.3883  0.9267 -0.6558
16228TIP3    H270100   2.461   1.541  16.760  0.0182 -0.1217  1.0127
16229TIP3   OH270101   3.433   5.019   4.030  0.2905 -0.0607 -0.2305
16229TIP3    H170102   3.528   5.022   4.044  0.2168 -0.5432  0.3878
16229TIP3    H270103   3.405   4.938   4.072 -0.2416 -0.4778 -1.3515
16230TIP3   OH270104   3.824   5.751  12.781 -0.5216 -0.0588  0.1582
16230TIP3    H170105   3.773   5.828  12.807  0.9893  0.9950  0.0593
16230TIP3    H270106   3.831   5.699  12.861  0.3080  0.9818  0.7714
16231TIP3   OH270107   2.759   1.642   2.646 -0.0629 -0.0178  0.3449
16231TIP3    H170108   2.752   1.560   2.597  0.0019  0.9541 -1.3313
16231TIP3    H270109   2.721   1.623   2.731 -1.0809 -1.4659 -0.4219
16232TIP3   OH270110   4.613   3.756  11.898 -0.3580 -0.2325 -0.4189
16232TIP3    H170111   4.596   3.848  11.920  1.1831  0.2106 -1.0317
16232TIP3    H270112   4.553   3.737  11.826  0.9605  0.9984 -1.8651
16233TIP3   OH270113   6.320   5.686  12.534 -0.1109 -0.2290  1.1917
16233TIP3    H170114   6.395   5.727  12.577  0.3905  0.8685 -0.6667
16233TIP3    H270115   6.249   5.749  12.545 -0.0802 -0.1164  0.7749
16234TIP3   OH270116   5.553   4.177   6.011 -0.6463 -0.1013 -0.0268
16234TIP3    H170117   5.603   4.237   6.067  0.2191 -0.1747 -0.7060
16234TIP3    H270118   5.478   4.151   6.065  0.0157  0.0629  0.9880
16235TIP3   OH270119   6.110   6.541  11.786 -0.4180 -0.1931  0.2105
16235TIP3    H170120   6.105   6.453  11.749 -1.0316 -0.5568  1.1388
16235TIP3    H270121   6.140   6.528  11.876 -0.8116  0.5181  0.4551
16236TIP3   OH270122   3.604   5.971   0.336 -0.3276 -0.9670  0.0387
16236TIP3    H170123   3.580   6.040   0.398  0.5061  1.0959 -1.8854
16236TIP3    H270124   3.674   5.923   0.380  0.5522  0.7286  0.5424
16237TIP3   OH270125   0.566   0.033   5.935  0.3453  0.2644  0.1897
16237TIP3    H170126   0.623   0.104   5.964  1.1850 -0.8701  1.3251
16237TIP3    H270127   0.617  -0.013   5.868  0.6587 -0.6018  1.0282
16238TIP3   OH270128   0.122   0.619   0.448 -0.2241 -0.5392  0.0961
16238TIP3    H170129   0.041   0.578   0.481 -0.8514  0.6287  0.0143
16238TIP3    H270130   0.170   0.547   0.408 -0.7580 -1.4443  1.0492
16239TIP3   OH270131   3.044   5.678   2.479  0.5941  0.0571  0.3353
16239TIP3    H170132   3.014   5.724   2.558 -0.3195 -0.8265  0.5065
16239TIP3    H270133   3.122   5.727   2.451 -0.9287  2.3303 -0.0638
16240TIP3   OH270134   1.694   6.215   2.109 -0.2991  0.2365  0.8306
16240TIP3    H170135   1.729   6.304   2.107 -2.2618  1.0922  2.5891
16240TIP3    H270136   1.635   6.214   2.185 -1.1929 -2.2182  0.1565
16241TIP3   OH270137   0.412   5.209   4.745  0.0622 -0.8039  0.1124
16241TIP3    H170138   0.402   5.296   4.782  1.1554  0.1257 -1.7322
16241TIP3    H270139   0.322   5.179   4.731 -0.3798 -0.8678  2.6776
16242TIP3   OH270140   3.000   4.391  17.010 -0.3573 -0.7626  0.4297
16242TIP3    H170141   2.911   4.354  17.009 -1.4395  1.7393 -2.4112
16242TIP3    H270142   2.989   4.479  17.047  0.4711  0.5391 -2.3134
16243TIP3   OH270143   1.710   6.637  12.713  0.5813  0.1525 -0.2839
16243TIP3    H170144   1.756   6.713  12.676  0.3886  0.6327  0.4454
16243TIP3    H270145   1.650   6.675  12.777 -2.6087 -0.2583 -2.9173
16244TIP3   OH270146   4.489   4.311   3.724 -0.2414  0.2764 -0.2599
16244TIP3    H170147   4.528   4.253   3.789  1.1786  1.0155 -0.4163
16244TIP3    H270148   4.449   4.381   3.775 -1.0892 -0.3173 -0.1079
16245TIP3   OH270149   6.371   0.529  13.389 -0.3700 -0.1377 -1.0937
16245TIP3    H170150   6.326   0.482  13.459 -1.8639  0.0681 -1.8821
16245TIP3    H270151   6.335   0.618  13.394  0.2034  0.1217 -1.5424
16246TIP3   OH270152   0.695   0.790  14.667  0.1774 -0.1029  0.1298
16246TIP3    H170153   0.614   0.841  14.671  1.1477  1.4004  1.7093
16246TIP3    H270154   0.667   0.701  14.649 -1.7584  0.5595 -0.2371
16247TIP3   OH270155   3.818   4.632   2.453  0.1085 -0.0383 -0.0958
16247TIP3    H170156   3.868   4.571   2.400 -0.9099 -0.7387 -0.2645
16247TIP3    H270157   3.838   4.718   2.416  1.8826 -0.2152  0.4214
16248TIP3   OH270158   2.779   1.611  11.109 -0.2420  0.1992  0.0884
16248TIP3    H170159   2.699   1.660  11.090 -1.3307 -1.3022  0.7406
16248TIP3    H270160   2.841   1.639  11.041 -0.9895  2.1121  0.1695
16249TIP3   OH270161   5.442   6.415   1.346 -0.2226  0.5341 -0.1386
16249TIP3    H170162   5.352   6.393   1.324 -0.4761 -0.3769  1.7823
16249TIP3    H270163   5.441   6.433   1.440  1.3671  1.6862 -0.3113
16250TIP3   OH270164   3.738   3.683  13.881 -0.1455 -0.2633  0.4149
16250TIP3    H170165   3.817   3.733  13.859 -1.0940  1.7722  1.4810
16250TIP3    H270166   3.767   3.617  13.943  0.8007  0.1444  0.4050
16251TIP3   OH270167   0.669   2.146  12.517 -0.0729 -0.3340  0.3300
16251TIP3    H170168   0.700   2.189  12.596  0.4242 -1.2912  0.6585
16251TIP3    H270169   0.741   2.156  12.454 -0.2595 -0.0320  0.1623
16252TIP3   OH270170   1.478   6.787   6.043  0.5568 -0.1309  0.1925
16252TIP3    H170171   1.461   6.773   6.137 -2.0855  1.0358 -0.0469
16252TIP3    H270172   1.537   6.862   6.040  1.6205 -0.9213  0.9494
16253TIP3   OH270173   1.181   0.685  15.450 -0.7125  0.4995  0.6303
16253TIP3    H170174   1.154   0.615  15.509  0.5949  0.5343  1.2757
16253TIP3    H270175   1.103   0.703  15.397 -0.6300 -2.4895 -0.5971
16254TIP3   OH270176   2.954   5.823   1.964 -0.5382  1.0909  0.5734
16254TIP3    H170177   2.933   5.823   2.057 -1.3627 -1.8805  0.4474
16254TIP3    H270178   3.028   5.763   1.956 -0.6050  1.1629 -0.7183
16255TIP3   OH270179   3.676   6.374   1.212 -0.0564 -0.5892  0.3634
16255TIP3    H170180   3.601   6.330   1.171  0.4286 -0.9892 -0.1005
16255TIP3    H270181   3.657   6.467   1.204  0.2633 -0.6485 -1.2053
16256TIP3   OH270182   2.918   4.952  12.113 -0.0672  0.8640  0.2804
16256TIP3    H170183   2.994   4.967  12.170  0.5165  0.1995 -0.3141
16256TIP3    H270184   2.850   5.009  12.149  0.7647  1.6059  0.7158
16257TIP3   OH270185   2.217   3.457  15.230 -0.3742 -0.1851 -0.3696
16257TIP3    H170186   2.305   3.484  15.204 -0.1944 -0.0710  0.3556
16257TIP3    H270187   2.231   3.382  15.288 -0.7125  0.4405  0.5236
16258TIP3   OH270188   6.720   2.375  11.407 -0.2394 -0.2092 -0.2284
16258TIP3    H170189   6.805   2.418  11.409 -0.5400  0.3767  2.8055
16258TIP3    H270190   6.737   2.291  11.365  2.7435 -1.7243  3.6343
16259TIP3   OH270191   4.712   5.999  14.039 -0.4149  0.3217  0.3782
16259TIP3    H170192   4.621   5.992  14.067  0.1857  0.6449  2.5319
16259TIP3    H270193   4.743   6.080  14.079  1.4173 -0.8921  1.5342
16260TIP3   OH270194   2.074   1.174  14.218  0.1350 -0.1414 -0.2242
16260TIP3    H170195   2.023   1.168  14.298 -0.1732  0.8915 -0.3370
16260TIP3    H270196   2.098   1.084  14.198 -1.1037 -0.5688  0.1721
16261TIP3   OH270197   2.630   3.368  15.711 -0.2008  0.0153 -0.0806
16261TIP3    H170198   2.565   3.380  15.780  0.3378 -1.3473  0.6770
16261TIP3    H270199   2.626   3.275  15.690  0.7007  0.1343 -0.8235
16262TIP3   OH270200   5.499   3.360   4.884  0.1477  0.2400  0.0482
16262TIP3    H170201   5.530   3.337   4.972  0.1358 -0.1028 -0.0351
16262TIP3    H270202   5.574   3.403   4.843 -0.5035  2.2844  0.9306
16263TIP3   OH270203   5.749   0.196   4.534  0.1787 -0.3316 -0.0238
16263TIP3    H170204   5.840   0.195   4.503 -0.0268  0.4492 -0.6896
16263TIP3    H270205   5.739   0.282   4.575  0.1045 -0.9120  1.1945
16264TIP3   OH270206   5.613   0.755  16.591  0.0465 -0.1326 -0.1498
16264TIP3    H170207   5.518   0.750  16.602  0.1082  1.0846  1.0869
16264TIP3    H270208   5.640   0.665  16.574 -1.2168 -0.6512  0.5419
16265TIP3   OH270209   6.238   2.934   5.618  0.0716  0.0485 -0.2008
16265TIP3    H170210   6.147   2.957   5.638  0.4476 -0.2204  1.8757
16265TIP3    H270211   6.289   2.975   5.687  1.4435 -0.7046 -0.7531
16266TIP3   OH270212   5.717   5.418  11.232  0.2755  0.1596 -0.6174
16266TIP3    H170213   5.794   5.366  11.211  1.1063  1.0664  0.1278
16266TIP3    H270214   5.720   5.492  11.172 -0.8902 -0.6240 -1.6578
16267TIP3   OH270215   3.165   5.626  11.963 -0.0455  0.7109 -0.5402
16267TIP3    H170216   3.074   5.597  11.956 -0.6038  2.2146  0.1482
16267TIP3    H270217   3.184   5.623  12.057  0.1130  1.8133 -0.5287
16268TIP3   OH270218   3.935   0.753  11.786  0.4119 -0.3588 -0.1730
16268TIP3    H170219   3.930   0.658  11.778  1.7363 -0.8109  3.6289
16268TIP3    H270220   3.868   0.776  11.851  1.4449  1.0638  0.4243
16269TIP3   OH270221   2.443   1.718   5.207  0.2975 -0.1192 -0.5235
16269TIP3    H170222   2.401   1.642   5.168 -0.4973  0.9896 -1.8932
16269TIP3    H270223   2.400   1.793   5.166  0.7418  1.0796  1.1309
16270TIP3   OH270224   3.998   1.833  16.755 -0.2615  0.5212 -0.3817
16270TIP3    H170225   4.038   1.800  16.835 -2.1802  0.6019  0.6299
16270TIP3    H270226   3.945   1.761  16.722 -0.5799  0.9550 -0.8301
16271TIP3   OH270227   6.554   4.871   4.407 -0.1073  1.0017 -0.4153
16271TIP3    H170228   6.512   4.825   4.479  0.7299 -0.4681 -0.8553
16271TIP3    H270229   6.508   4.841   4.329  0.6350  0.6616 -0.7327
16272TIP3   OH270230   0.175   4.610   4.808  0.1241 -0.0273  0.4757
16272TIP3    H170231   0.162   4.701   4.779  2.3011  0.1522 -0.0892
16272TIP3    H270232   0.152   4.610   4.901  0.9584  1.3259  0.6936
16273TIP3   OH270233   4.328   0.364  14.732 -0.3617 -0.3159  0.0643
16273TIP3    H170234   4.233   0.351  14.726 -0.0807 -2.4570 -0.2251
16273TIP3    H270235   4.363   0.277  14.751  1.5771  0.3944 -0.1281
16274TIP3   OH270236   4.852   1.556  13.590  0.6099 -0.1959 -0.6687
16274TIP3    H170237   4.902   1.584  13.513 -0.2998  0.6102 -0.9872
16274TIP3    H270238   4.838   1.637  13.640  1.6361 -0.8004  0.6104
16275TIP3   OH270239   3.285   2.753   4.054  0.0975 -0.4318  0.1502
16275TIP3    H170240   3.351   2.817   4.028 -2.0472  1.2814 -1.2389
16275TIP3    H270241   3.220   2.803   4.103 -1.9722 -1.3850 -1.5520
16276TIP3   OH270242   3.377   0.682  12.274 -0.5426 -0.2256  0.1456
16276TIP3    H170243   3.364   0.602  12.326 -1.2159  0.1197  0.5247
16276TIP3    H270244   3.434   0.736  12.328 -1.7968  0.4182  0.8560
16277TIP3   OH270245   0.740   1.997  12.163 -0.5307 -0.3147  0.0678
16277TIP3    H170246   0.705   2.070  12.112 -1.6085 -1.1802 -0.4374
16277TIP3    H270247   0.829   1.985  12.130 -0.3052  0.8286  0.2211
16278TIP3   OH270248   0.464   0.687  12.377 -0.7496  0.2546  0.2624
16278TIP3    H170249   0.475   0.763  12.320 -2.2925 -0.6052 -1.2417
16278TIP3    H270250   0.551   0.668  12.410  0.1489  0.8709 -1.7177
16279TIP3   OH270251   3.987   4.898   0.660  0.0817 -0.5392  0.0462
16279TIP3    H170252   4.021   4.823   0.610 -0.5946 -0.6060 -0.3221
16279TIP3    H270253   3.905   4.866   0.698  1.1595 -0.8536  2.1767
16280TIP3   OH270254   1.821   6.091   5.875  0.1057  0.5037  0.4179
16280TIP3    H170255   1.790   6.002   5.858 -0.8365  1.0239 -0.6349
16280TIP3    H270256   1.784   6.114   5.960 -0.8169  0.4161  0.0412
16281TIP3   OH270257   3.553   0.204   3.527 -0.3276  0.0583  0.0322
16281TIP3    H170258   3.587   0.146   3.459  1.7156  0.9025  0.2650
16281TIP3    H270259   3.628   0.217   3.585 -1.6684  0.4152  1.7047
16282TIP3   OH270260   2.333   2.676   5.677 -0.3008  0.4272  0.2797
16282TIP3    H170261   2.249   2.685   5.722  0.1953  0.3827  1.2495
16282TIP3    H270262   2.311   2.672   5.584 -1.4567 -0.7088  0.5870
16283TIP3   OH270263   0.996   3.011   0.544  0.0769 -0.1935  0.0425
16283TIP3    H170264   0.967   2.925   0.513 -1.1176 -0.1317  1.0036
16283TIP3    H270265   1.062   3.038   0.479  0.9110 -2.0855  0.0563
16284TIP3   OH270266   0.645   4.712  14.811  0.4709  0.0698 -0.4705
16284TIP3    H170267   0.714   4.656  14.778  1.0684  0.7609 -0.4021
16284TIP3    H270268   0.685   4.799  14.820 -0.0205  0.1835  0.8582
16285TIP3   OH270269   5.005   5.113   4.844 -0.0453  0.6457 -0.0208
16285TIP3    H170270   4.978   5.027   4.876  0.7025  0.5957  0.4960
16285TIP3    H270271   5.060   5.148   4.914  0.2097  1.2549 -0.5240
16286TIP3   OH270272   6.505   5.179   3.700  0.0167 -0.7164 -0.0680
16286TIP3    H170273   6.540   5.168   3.612 -1.0830 -0.3777 -0.5559
16286TIP3    H270274   6.412   5.201   3.687  0.0657  0.2975  1.1352
16287TIP3   OH270275   5.475   5.297  13.316 -0.1965 -0.5200 -0.0082
16287TIP3    H170276   5.516   5.240  13.381  0.1380  0.0691  0.3015
16287TIP3    H270277   5.396   5.329  13.360 -0.8111 -1.3654 -0.4679
16288TIP3   OH270278   4.244   4.259   1.177 -0.0775  0.4053 -0.0238
16288TIP3    H170279   4.166   4.244   1.124  0.4143  0.8138 -0.8846
16288TIP3    H270280   4.269   4.173   1.209 -0.4628  0.1743 -0.3487
16289TIP3   OH270281   5.951   5.104   5.609 -0.9040 -0.2045 -0.1758
16289TIP3    H170282   5.993   5.157   5.541  1.0884  1.2555  2.0982
16289TIP3    H270283   6.007   5.026   5.616 -1.1570 -0.3948 -0.2600
16290TIP3   OH270284   6.224   2.348   3.706  0.3066  0.3685  0.1419
16290TIP3    H170285   6.144   2.319   3.663  1.0281  0.5127 -1.3324
16290TIP3    H270286   6.251   2.426   3.657  0.9009  0.7987  1.1385
16291TIP3   OH270287   3.450   3.047  12.930  0.1409 -0.2523 -0.6137
16291TIP3    H170288   3.404   2.964  12.916 -1.3842  0.7371 -1.6089
16291TIP3    H270289   3.385   3.104  12.971  0.7183  0.8997 -1.2805
16292TIP3   OH270290   5.546   5.166  16.528 -0.1856 -0.9772 -0.3750
16292TIP3    H170291   5.637   5.180  16.556 -1.0925  3.6656  0.5920
16292TIP3    H270292   5.539   5.211  16.445 -1.2874 -2.6193 -1.2034
16293TIP3   OH270293   4.897   1.955  12.893 -0.5523  0.0576 -0.2432
16293TIP3    H170294   4.856   2.031  12.852 -0.3243  2.3975  3.5370
16293TIP3    H270295   4.984   1.986  12.918 -0.8466 -1.0573  2.3026
16294TIP3   OH270296   2.569   5.477  17.217 -0.5662 -0.3950  0.2814
16294TIP3    H170297   2.529   5.545  17.163 -1.1167  0.5125  1.8099
16294TIP3    H270298   2.579   5.402  17.158 -2.1186  0.2236 -0.7870
16295TIP3   OH270299   0.778   1.041  12.939 -0.1405 -0.8245 -0.2294
16295TIP3    H170300   0.690   1.009  12.924  0.5167 -2.5086 -0.5426
16295TIP3    H270301   0.783   1.056  13.033 -0.9453 -0.1283 -0.2917
16296TIP3   OH270302   2.830   2.564   1.423 -0.3053 -0.3763 -0.0574
16296TIP3    H170303   2.801   2.639   1.370  0.8362 -0.6209 -1.0480
16296TIP3    H270304   2.769   2.494   1.400 -0.8196 -0.0174  0.1945
16297TIP3   OH270305   4.501   5.405   2.506  0.1427 -0.6814 -0.7547
16297TIP3    H170306   4.554   5.392   2.585  0.6646  2.1894 -0.5750
16297TIP3    H270307   4.410   5.404   2.539  0.2816 -1.1147 -0.3749
16298TIP3   OH270308   2.333   2.560  14.388  0.4396  0.2322  0.7195
16298TIP3    H170309   2.410   2.508  14.363  1.2348  1.9335 -0.5052
16298TIP3    H270310   2.280   2.501  14.441  0.2942 -2.5530 -2.3198
16299TIP3   OH270311   4.656   1.661  11.721 -0.0249  0.5442 -0.3620
16299TIP3    H170312   4.695   1.638  11.637  0.4923 -0.9031  0.2543
16299TIP3    H270313   4.721   1.717  11.763  0.3344  0.0982 -0.3273
16300TIP3   OH270314   4.349   6.685   0.775 -0.2184 -0.5755 -0.3588
16300TIP3    H170315   4.430   6.666   0.821 -1.3994 -1.8341  1.2712
16300TIP3    H270316   4.374   6.686   0.682  2.0765  1.4383  0.2493
16301TIP3   OH270317   1.586   5.298  13.087 -0.0634  0.3008 -0.3827
16301TIP3    H170318   1.584   5.222  13.146  3.8888  1.1651  1.0026
16301TIP3    H270319   1.547   5.265  13.006 -3.5707 -1.5529  1.9406
16302TIP3   OH270320   3.543   6.162   0.503  0.1446 -0.7056  0.7296
16302TIP3    H170321   3.469   6.222   0.491 -0.0177 -1.1561 -0.5980
16302TIP3    H270322   3.571   6.177   0.593 -1.5951 -0.5605  1.2762
16303TIP3   OH270323   3.251   5.263  13.347 -0.2192  0.6852  0.3770
16303TIP3    H170324   3.235   5.190  13.407 -2.3885  1.4178  0.7192
16303TIP3    H270325   3.290   5.331  13.402 -0.2770  0.6056  0.5172
16304TIP3   OH270326   4.789   3.223   1.925 -0.0395 -0.0987 -0.0012
16304TIP3    H170327   4.723   3.191   1.987 -1.0878 -1.1852 -1.6463
16304TIP3    H270328   4.756   3.309   1.898 -1.1082 -0.8949 -1.2699
16305TIP3   OH270329   4.152   5.345   0.003 -0.1393 -0.4211 -0.1497
16305TIP3    H170330   4.158   5.392   0.086  0.6328 -0.2388 -0.3070
16305TIP3    H270331   4.120   5.411  -0.059  0.4263 -0.2403 -0.2535
16306TIP3   OH270332   0.987   3.150   4.750  0.6011  0.2057  0.3800
16306TIP3    H170333   0.968   3.224   4.807 -0.1011  0.1614  0.2118
16306TIP3    H270334   0.903   3.129   4.710  1.1875  0.6004 -1.0999
16307TIP3   OH270335   5.151   1.836   3.577  0.0395 -0.4034  0.0321
16307TIP3    H170336   5.091   1.797   3.642  1.9110  1.1907  2.8291
16307TIP3    H270337   5.171   1.922   3.612  1.6675  0.2317 -2.3728
16308TIP3   OH270338   0.331   4.375  15.492 -0.6383 -0.6210  0.3409
16308TIP3    H170339   0.380   4.415  15.419 -0.4174  0.2810  0.9767
16308TIP3    H270340   0.241   4.403  15.478 -0.3189  0.9444  1.3444
16309TIP3   OH270341   6.512   1.004   5.200  0.3484  0.2804  0.6375
16309TIP3    H170342   6.501   1.098   5.212 -0.2207  0.1389  1.2105
16309TIP3    H270343   6.607   0.993   5.188  0.5368  0.8053  1.6009
16310TIP3   OH270344   2.163   1.829  15.085 -0.3118 -0.2386 -0.0925
16310TIP3    H170345   2.074   1.860  15.099 -1.1187 -1.6663 -1.7862
16310TIP3    H270346   2.159   1.735  15.102  1.0127 -0.2330  0.3718
16311TIP3   OH270347   1.405   1.067  12.990  0.1643  0.3023 -0.0994
16311TIP3    H170348   1.336   1.125  12.957 -0.8205 -1.8439 -1.9277
16311TIP3    H270349   1.378   1.046  13.080 -1.3104 -0.0727 -0.6101
16312TIP3   OH270350   3.075   3.119  14.241  0.4074 -0.0482  0.2800
16312TIP3    H170351   3.163   3.147  14.265  0.5164 -0.9553  0.9804
16312TIP3    H270352   3.086   3.070  14.160  0.3098  1.3075 -0.5668
16313TIP3   OH270353   6.426   1.350  11.845  0.1276  0.7234 -0.8245
16313TIP3    H170354   6.331   1.348  11.842  0.0173  0.6506  1.6850
16313TIP3    H270355   6.451   1.258  11.857  0.6589  0.4206 -3.9004
16314TIP3   OH270356   0.451   5.433  15.318  0.0054  0.1795  0.1544
16314TIP3    H170357   0.451   5.339  15.299  1.7776  0.0321  0.8067
16314TIP3    H270358   0.462   5.475  15.233 -0.0546 -0.2218 -0.0513
16315TIP3   OH270359   2.618   1.096  14.351 -0.1850  0.9304  0.2653
16315TIP3    H170360   2.692   1.112  14.410 -1.3190  0.4955  1.8384
16315TIP3    H270361   2.586   1.009  14.376 -1.3788  1.2160 -0.2417
16316TIP3   OH270362   4.183   2.150   3.457 -0.0298  0.4367 -0.4382
16316TIP3    H170363   4.253   2.151   3.392  0.1250 -2.2116 -0.3414
16316TIP3    H270364   4.183   2.061   3.492 -2.0468  0.9928  1.0997
16317TIP3   OH270365   1.593   1.271   5.247  0.0818 -0.1962 -0.1345
16317TIP3    H170366   1.545   1.322   5.182  1.0809 -1.3943 -1.8652
16317TIP3    H270367   1.526   1.224   5.296 -0.8179  2.2936  1.1074
16318TIP3   OH270368   2.737   5.286   4.037  0.6652  0.9093  0.1062
16318TIP3    H170369   2.660   5.329   3.998  0.3436  0.2139 -0.0326
16318TIP3    H270370   2.812   5.330   3.996  0.3709  2.7437  1.4907
16319TIP3   OH270371   1.438   2.132  15.877 -0.8735 -0.2709 -0.3820
16319TIP3    H170372   1.517   2.123  15.930 -0.7533  0.4811 -0.4283
16319TIP3    H270373   1.469   2.157  15.790 -1.1644  0.2811 -0.3351
16320TIP3   OH270374   3.493   1.615   1.551  0.4116 -1.0001 -0.0003
16320TIP3    H170375   3.568   1.663   1.585  0.0076 -0.3336 -0.0532
16320TIP3    H270376   3.419   1.643   1.605  0.1750 -1.5639 -0.0259
16321TIP3   OH270377   2.889   1.822  14.466  0.3276  0.2853 -0.8447
16321TIP3    H170378   2.960   1.879  14.495 -0.0349  0.0021  0.6383
16321TIP3    H270379   2.816   1.882  14.449  1.1355  0.6546 -3.1114
16322TIP3   OH270380   4.551   0.251   5.682 -0.5870 -0.0902  0.1521
16322TIP3    H170381   4.468   0.238   5.636 -0.9196  0.9761  0.4407
16322TIP3    H270382   4.547   0.341   5.715  1.2178  0.4092 -0.9223
16323TIP3   OH270383   4.197   3.104   2.392 -0.1046  0.4072  0.1165
16323TIP3    H170384   4.166   3.046   2.461  1.0898 -0.4818 -0.0709
16323TIP3    H270385   4.180   3.056   2.311  0.3494  0.5658 -0.0749
16324TIP3   OH270386   3.537   6.736   5.841  0.1455  0.4862 -0.6824
16324TIP3    H170387   3.614   6.720   5.785  1.2798 -0.5264  1.1138
16324TIP3    H270388   3.572   6.739   5.930 -2.0571 -1.2713  0.3061
16325TIP3   OH270389   6.279   4.205  13.436  0.1130  0.8842 -0.2488
16325TIP3    H170390   6.337   4.137  13.402 -0.2225 -0.5940  1.9991
16325TIP3    H270391   6.191   4.170  13.423 -0.0431  0.6168  1.4355
16326TIP3   OH270392   6.691   2.937   3.875 -0.7269  0.2985 -0.1628
16326TIP3    H170393   6.741   3.018   3.866 -0.9260  0.4237 -0.1429
16326TIP3    H270394   6.703   2.892   3.791 -0.1412  0.0773  0.0368
16327TIP3   OH270395   2.569   0.809   0.688  0.2011 -0.0884  0.7604
16327TIP3    H170396   2.620   0.814   0.607 -0.0210  1.2478  0.6883
16327TIP3    H270397   2.616   0.746   0.742  0.4223 -0.8957 -0.3670
16328TIP3   OH270398   4.608   1.765   1.981 -0.1324  0.1505  1.0788
16328TIP3    H170399   4.535   1.720   2.025  0.4125 -1.3329  0.4858
16328TIP3    H270400   4.685   1.744   2.034  0.2366 -0.1809  0.4157
16329TIP3   OH270401   2.262   6.065   3.321  0.5278 -0.6964 -0.3166
16329TIP3    H170402   2.319   6.026   3.387 -2.3251 -0.1658  2.6024
16329TIP3    H270403   2.202   5.995   3.296 -2.9790  0.9348  3.0543
16330TIP3   OH270404   1.536   1.885  14.144  0.2977 -0.1358  0.2470
16330TIP3    H170405   1.474   1.942  14.097  0.6811 -0.9612 -1.2843
16330TIP3    H270406   1.616   1.889  14.091 -0.1531 -3.3241 -0.7590
16331TIP3   OH270407   3.619   3.584   3.265  0.1687  0.5101  0.0767
16331TIP3    H170408   3.687   3.535   3.312  0.3174 -0.6594 -1.3177
16331TIP3    H270409   3.591   3.652   3.327  1.2294 -0.2159  1.3808
16332TIP3   OH270410   0.294   3.823  10.544 -0.1907  0.2205  0.0045
16332TIP3    H170411   0.360   3.804  10.611  0.6985  0.8436 -0.6834
16332TIP3    H270412   0.245   3.741  10.534 -0.3815  0.1532  1.4657
16333TIP3   OH270413   0.164   3.012   5.669 -0.5292  0.2436  0.4426
16333TIP3    H170414   0.071   2.992   5.659 -1.0071  0.7265  3.3024
16333TIP3    H270415   0.207   2.927   5.677 -1.1697  0.0586  2.1864
16334TIP3   OH270416   0.448   6.344   5.649 -0.1128 -0.5753  0.1672
16334TIP3    H170417   0.497   6.363   5.569  0.4769  0.2553  0.7170
16334TIP3    H270418   0.492   6.267   5.685  0.1963 -0.4003  0.1657
16335TIP3   OH270419   0.918   0.903   2.823 -0.1259  0.4394 -0.5603
16335TIP3    H170420   0.875   0.867   2.901  0.9335 -1.8568 -0.9938
16335TIP3    H270421   1.008   0.920   2.851 -0.4103  2.1028 -0.5863
16336TIP3   OH270422   0.833   0.948  15.777 -0.1362 -0.2860 -0.4997
16336TIP3    H170423   0.812   0.934  15.685 -1.0214  0.0983 -0.3601
16336TIP3    H270424   0.928   0.936  15.782  0.1490  1.3703 -1.7584
16337TIP3   OH270425   2.850   1.146   4.785 -0.0504 -0.1699 -0.3072
16337TIP3    H170426   2.762   1.178   4.801 -0.2716  0.1752 -2.0517
16337TIP3    H270427   2.837   1.059   4.747  0.2946  0.2625 -1.4625
16338TIP3   OH270428   3.698   0.664  17.166  0.1960 -0.0097  0.2367
16338TIP3    H170429   3.712   0.575  17.133  0.6816  0.5407 -1.0463
16338TIP3    H270430   3.780   0.688  17.207 -0.3857 -0.6682  1.8324
16339TIP3   OH270431   6.609   6.250   4.131  0.4100 -0.5907 -0.7415
16339TIP3    H170432   6.684   6.189   4.129  0.8265 -0.0644 -1.4641
16339TIP3    H270433   6.643   6.328   4.174 -0.1559 -0.8978  0.2758
16340TIP3   OH270434   3.512   0.626   0.288  0.6025  0.5229 -0.2465
16340TIP3    H170435   3.440   0.604   0.347 -0.8491  0.5300 -2.0085
16340TIP3    H270436   3.558   0.698   0.333  1.4800 -1.5915  2.4077
16341TIP3   OH270437   0.792   1.454   4.088 -0.0727  0.7017 -0.3695
16341TIP3    H170438   0.750   1.485   4.168 -1.1316 -1.6795  0.0565
16341TIP3    H270439   0.722   1.457   4.022  0.4764  1.5492 -0.9119
16342TIP3   OH270440   2.053   4.599  14.994  0.0241 -0.0558  0.1766
16342TIP3    H170441   2.082   4.645  15.072 -0.4270 -0.2417  0.4506
16342TIP3    H270442   2.059   4.506  15.017  0.1437 -0.1164 -0.0957
16343TIP3   OH270443   5.577   5.167  13.527 -0.0062  0.1786 -0.7530
16343TIP3    H170444   5.496   5.158  13.578  0.4281  0.7276  0.0440
16343TIP3    H270445   5.647   5.161  13.593  0.5035  3.3288 -0.9311
16344TIP3   OH270446   2.281   4.907   2.965  0.4049 -0.0879 -0.3909
16344TIP3    H170447   2.218   4.871   3.027 -1.2372  0.6274 -1.6047
16344TIP3    H270448   2.291   4.999   2.989 -0.0986  0.1479 -1.0597
16345TIP3   OH270449   4.465   1.075  10.683  0.6614  0.6359 -0.0418
16345TIP3    H170450   4.538   1.122  10.643  0.1183  0.5561 -1.1531
16345TIP3    H270451   4.400   1.143  10.701  0.8686  0.6580  0.6295
16346TIP3   OH270452   0.037   2.396   0.514  0.3062 -0.4297 -0.3755
16346TIP3    H170453   0.129   2.418   0.496  0.0763  0.9651  0.0763
16346TIP3    H270454   0.040   2.309   0.552  1.3447 -0.8874 -1.4743
16347TIP3   OH270455   4.963   3.933  14.261 -0.0135  0.0732  0.0938
16347TIP3    H170456   4.872   3.963  14.271 -0.7185 -1.5146 -1.3593
16347TIP3    H270457   4.964   3.846  14.301  0.7044 -0.1549 -0.4069
16348TIP3   OH270458   1.739   6.169   4.536 -0.6424  0.1954  0.0030
16348TIP3    H170459   1.678   6.104   4.500  1.4568 -2.2733  0.7136
16348TIP3    H270460   1.775   6.214   4.460 -0.5851 -0.9204 -0.6334
16349TIP3   OH270461   3.169   4.602  12.839 -0.6607  0.5175  0.4612
16349TIP3    H170462   3.188   4.511  12.813 -0.7677  1.0701 -1.6377
16349TIP3    H270463   3.079   4.598  12.872 -1.0668  0.0391 -0.6537
16350TIP3   OH270464   2.928   6.048   6.046  0.6206 -0.0238 -0.8903
16350TIP3    H170465   2.991   5.982   6.018  1.6926  1.0201 -0.9409
16350TIP3    H270466   2.938   6.119   5.982 -1.0016 -0.0885 -1.2407
16351TIP3   OH270467   4.492   4.233  10.722 -0.3303  0.3600 -0.5612
16351TIP3    H170468   4.520   4.145  10.696  0.7263  1.5300 -3.6677
16351TIP3    H270469   4.399   4.236  10.698 -0.6873 -0.2951  0.6984
16352TIP3   OH270470   6.333   5.740   3.018  0.3084 -0.6249 -0.2716
16352TIP3    H170471   6.270   5.768   3.084  1.0436 -0.2877  0.2922
16352TIP3    H270472   6.396   5.686   3.066  0.3552 -1.0984 -0.8628
16353TIP3   OH270473   2.497   3.397  14.003 -0.4496 -0.3054 -0.0974
16353TIP3    H170474   2.503   3.319  13.949 -0.2768 -0.2726 -0.1264
16353TIP3    H270475   2.504   3.365  14.093  2.8499 -0.0310 -0.1884
16354TIP3   OH270476   4.376   3.636   4.789 -0.4954  1.1296 -0.5589
16354TIP3    H170477   4.322   3.705   4.829 -1.0515 -0.5126  1.6553
16354TIP3    H270478   4.325   3.556   4.802  2.1225 -0.3656  0.9265
16355TIP3   OH270479   5.860   1.904   4.556  0.1541  0.2115  0.4957
16355TIP3    H170480   5.872   1.988   4.511 -1.8239  1.8779  2.8965
16355TIP3    H270481   5.839   1.929   4.646  1.2636 -2.9458  1.6891
16356TIP3   OH270482   6.418   1.386   6.142 -0.1286 -0.0460  0.4154
16356TIP3    H170483   6.378   1.431   6.068 -0.3555  1.4397  1.4331
16356TIP3    H270484   6.510   1.411   6.139 -0.2043  0.2892  0.8281
16357TIP3   OH270485   3.531   4.706  11.435 -0.1957  0.1737 -0.7834
16357TIP3    H170486   3.464   4.664  11.489  1.3368 -0.3936  0.7472
16357TIP3    H270487   3.521   4.666  11.349 -1.4126 -0.3407 -0.4185
16358TIP3   OH270488   3.526   2.271  13.171 -0.4585  0.2058 -0.1649
16358TIP3    H170489   3.574   2.222  13.104 -0.9469  0.0955 -0.4356
16358TIP3    H270490   3.563   2.241  13.254 -1.1015 -1.0119 -0.3009
16359TIP3   OH270491   3.539   3.170   1.308 -0.0394  0.6266  0.1386
16359TIP3    H170492   3.556   3.240   1.371  1.4335  0.2806  0.1513
16359TIP3    H270493   3.507   3.097   1.360  0.0424  0.7390  0.3457
16360TIP3   OH270494   2.077   6.551  13.303 -0.6272  0.2053  0.6349
16360TIP3    H170495   2.079   6.603  13.223 -0.1808  0.0345  0.5353
16360TIP3    H270496   2.169   6.542  13.328 -0.5567 -2.1684 -0.3828
16361TIP3   OH270497   6.306   1.396  12.722  0.6332  0.0259  0.0543
16361TIP3    H170498   6.348   1.441  12.649  2.0256  2.0049  2.0014
16361TIP3    H270499   6.361   1.319  12.737  0.7670  0.0074 -0.5045
16362TIP3   OH270500   5.020   5.820   1.681  0.3470 -0.6495  0.1222
16362TIP3    H170501   5.098   5.875   1.688 -1.1233  1.2408  1.9842
16362TIP3    H270502   4.961   5.869   1.623  0.0046 -1.4719 -0.2416
16363TIP3   OH270503   4.843   5.948   4.297  0.3436  0.0833  0.5420
16363TIP3    H170504   4.798   6.009   4.355  0.6027  0.9036 -0.1174
16363TIP3    H270505   4.936   5.969   4.306  0.3775  0.3008 -0.2549
16364TIP3   OH270506   3.256   4.274  12.546 -0.4100 -0.7752  0.0142
16364TIP3    H170507   3.201   4.352  12.542 -0.1490 -0.5252  1.0802
16364TIP3    H270508   3.327   4.292  12.484 -0.2018 -0.0275  0.4497
16365TIP3   OH270509   1.689   3.496  16.451 -0.4974  0.3485 -0.0684
16365TIP3    H170510   1.663   3.575  16.500 -0.4167 -0.4270  1.2292
16365TIP3    H270511   1.606   3.449  16.437 -0.2147 -0.6778  1.5434
16366TIP3   OH270512   3.629   3.977   2.380 -0.0290 -0.3122 -0.0630
16366TIP3    H170513   3.674   3.905   2.426 -0.4377 -1.4180 -1.3499
16366TIP3    H270514   3.591   4.030   2.450  0.6260 -1.1163  0.9277
16367TIP3   OH270515   3.758   2.753  16.371  0.2264  0.7209 -0.8493
16367TIP3    H170516   3.722   2.842  16.371 -1.5619 -0.0028 -0.8125
16367TIP3    H270517   3.840   2.761  16.420  1.8607  3.0436 -3.7854
16368TIP3   OH270518   1.788   5.834   5.537 -0.8839 -0.2153  0.3030
16368TIP3    H170519   1.714   5.779   5.509 -0.3541 -1.9718  2.2378
16368TIP3    H270520   1.859   5.771   5.551  0.8357  1.3926 -0.9848
16369TIP3   OH270521   1.759   6.170   3.037 -0.1920 -0.0119 -0.1249
16369TIP3    H170522   1.682   6.159   3.093  0.7834 -0.0543  1.2162
16369TIP3    H270523   1.777   6.083   3.003 -0.6054 -0.0409 -0.2768
16370TIP3   OH270524   0.314   2.339  13.820  0.2621 -0.0637  0.0984
16370TIP3    H170525   0.365   2.284  13.760  0.4343  1.6066 -1.3491
16370TIP3    H270526   0.376   2.406  13.849  0.4512 -1.4160  2.9880
16371TIP3   OH270527   0.583   2.414  16.625  0.1559  0.7129  0.0589
16371TIP3    H170528   0.597   2.406  16.720  1.6294 -0.0188 -0.1948
16371TIP3    H270529   0.670   2.399  16.588 -0.7108 -0.5701 -1.4888
16372TIP3   OH270530   5.482   5.610   2.205  0.5413  0.0629  0.1643
16372TIP3    H170531   5.535   5.557   2.145  0.7314 -0.3863  0.7289
16372TIP3    H270532   5.417   5.549   2.240  1.9621 -0.2600  2.2836
16373TIP3   OH270533   0.433   2.273  12.460  0.0875  0.0264  0.0625
16373TIP3    H170534   0.511   2.224  12.483 -0.8147 -1.4249  0.1129
16373TIP3    H270535   0.415   2.327  12.538 -0.2613 -1.3634  0.9739
16374TIP3   OH270536   4.782   3.116  11.892 -0.3954 -0.1600 -0.3468
16374TIP3    H170537   4.735   3.198  11.874  0.8614  0.6517  0.0328
16374TIP3    H270538   4.845   3.109  11.820 -0.2700 -0.6076 -0.1903
16375TIP3   OH270539   3.504   3.339   1.545  0.4425  0.0586  0.0891
16375TIP3    H170540   3.418   3.382   1.551  0.8046  0.9616 -0.9936
16375TIP3    H270541   3.515   3.296   1.630 -2.3472 -2.5038 -0.7477
16376TIP3   OH270542   0.031   1.689  12.520 -0.0365  0.3363 -0.0112
16376TIP3    H170543   0.032   1.784  12.512 -1.3877  0.2614 -1.4982
16376TIP3    H270544   0.014   1.658  12.431 -2.8194 -1.1586  0.9708
16377TIP3   OH270545   5.867   5.637   2.922  0.4586  0.1573 -0.2964
16377TIP3    H170546   5.936   5.644   2.987  2.0878 -1.1787 -1.8387
16377TIP3    H270547   5.786   5.637   2.973  1.7162 -1.3349  1.7538
16378TIP3   OH270548   5.496   1.666  11.291 -0.3695  0.7378  0.2734
16378TIP3    H170549   5.405   1.683  11.266 -1.3068 -0.6612  2.4708
16378TIP3    H270550   5.536   1.753  11.297 -1.8547  1.4428  0.2524
16379TIP3   OH270551   3.585   1.022  16.486  0.7461  0.4539  0.8136
16379TIP3    H170552   3.527   0.965  16.435  0.4226  1.1223  0.4312
16379TIP3    H270553   3.584   0.984  16.574  1.3538 -0.7318  0.3070
16380TIP3   OH270554   2.187   0.111   5.994  0.0871 -0.5073  0.5779
16380TIP3    H170555   2.208   0.195   6.036 -4.1149 -0.1571  2.2883
16380TIP3    H270556   2.243   0.108   5.917  1.2500  3.3317  1.1483
16381TIP3   OH270557   1.633   0.465  12.348 -0.3599  0.5065  0.2722
16381TIP3    H170558   1.697   0.417  12.295  0.2295  1.2626  0.3032
16381TIP3    H270559   1.650   0.436  12.438  1.1853  2.1203  0.5067
16382TIP3   OH270560   2.604   1.661   4.197 -0.6961  0.2457  0.0826
16382TIP3    H170561   2.660   1.698   4.266 -0.1882  0.7791 -0.6112
16382TIP3    H270562   2.665   1.621   4.135 -1.0864  0.5775 -0.5266
16383TIP3   OH270563   2.222   2.629  12.848 -0.3218 -0.0712  0.5824
16383TIP3    H170564   2.150   2.574  12.881 -0.3489  0.8202  2.0616
16383TIP3    H270565   2.272   2.571  12.790 -0.3915 -1.6432  2.0531
16384TIP3   OH270566   1.812   4.729  16.458 -0.4913  0.8097  0.4521
16384TIP3    H170567   1.842   4.642  16.485 -0.4679  1.0543  1.2273
16384TIP3    H270568   1.884   4.763  16.405 -0.6729  0.1946 -0.2047
16385TIP3   OH270569   1.088   3.781  14.524  0.0777  0.2445  1.0244
16385TIP3    H170570   1.037   3.863  14.520 -1.5390 -0.7216  1.4834
16385TIP3    H270571   1.164   3.803  14.577 -1.3197  0.9676  2.7913
16386TIP3   OH270572   5.431   2.419  11.332  0.0941 -0.0108 -0.2600
16386TIP3    H170573   5.525   2.427  11.352  0.0348  1.0830 -0.3574
16386TIP3    H270574   5.394   2.504  11.358 -1.2653 -1.2119  1.8473
16387TIP3   OH270575   0.021   3.391  12.088 -0.2010  0.0471 -0.3272
16387TIP3    H170576  -0.014   3.480  12.084 -2.2818 -0.8167 -2.3804
16387TIP3    H270577   0.025   3.362  11.997  1.6424 -1.5220  0.2186
16388TIP3   OH270578   3.346   5.723   4.237 -0.4930  0.1825  0.0822
16388TIP3    H170579   3.404   5.651   4.262 -2.5572 -1.4427  0.2541
16388TIP3    H270580   3.315   5.760   4.320 -0.6354  0.2902 -0.0185
16389TIP3   OH270581   4.139   6.372   4.099  0.9210  0.5994  0.0888
16389TIP3    H170582   4.164   6.349   4.010 -0.9230  1.1989 -0.6016
16389TIP3    H270583   4.046   6.390   4.094  0.4346 -1.0294  2.4965
16390TIP3   OH270584   2.349   0.018   6.697  0.2439 -0.3672 -0.0205
16390TIP3    H170585   2.435  -0.022   6.684  0.8253  0.7260  0.4332
16390TIP3    H270586   2.299  -0.006   6.618  1.1142 -0.5995 -0.5064
16391TIP3   OH270587   5.921   0.374  16.513  0.3612  0.2586 -0.4904
16391TIP3    H170588   5.917   0.279  16.521  1.6724  0.3427  1.6310
16391TIP3    H270589   5.976   0.389  16.436  1.8845 -0.6963  0.3959
16392TIP3   OH270590   1.910   3.032   2.043  0.1141 -0.1735  0.1193
16392TIP3    H170591   1.886   3.067   2.129 -1.0549  2.8549 -1.3624
16392TIP3    H270592   1.972   3.096   2.007  0.5953 -1.3939 -1.2834
16393TIP3   OH270593   4.697   3.697   5.180  0.3613 -0.1738  0.5551
16393TIP3    H170594   4.616   3.686   5.129  0.1022 -0.7977  1.0861
16393TIP3    H270595   4.675   3.764   5.245 -0.3450 -1.6463  1.8940
16394TIP3   OH270596   0.370   0.005   0.580 -0.1629  0.0939 -0.5970
16394TIP3    H170597   0.282  -0.030   0.594  0.2200  0.1115  2.1132
16394TIP3    H270598   0.389   0.056   0.658  2.3873 -0.1975 -0.9626
16395TIP3   OH270599   5.811   2.827   5.131  0.6497 -0.5097  0.4343
16395TIP3    H170600   5.870   2.796   5.200  0.5879 -2.5014 -0.3894
16395TIP3    H270601   5.866   2.883   5.077  0.8707  0.5300  1.6942
16396TIP3   OH270602   6.131   3.676   1.598  0.0262  0.3394 -0.5182
16396TIP3    H170603   6.184   3.604   1.632 -0.0650  0.5647  0.0928
16396TIP3    H270604   6.135   3.665   1.503 -1.3549 -1.4774 -0.4068
16397TIP3   OH270605   5.069   4.019  16.683  0.1438  0.1520 -0.7008
16397TIP3    H170606   5.109   4.018  16.595  1.3549  2.0639 -0.1986
16397TIP3    H270607   5.040   4.109  16.695 -1.0668 -0.3771  0.4294
16398TIP3   OH270608   2.079   4.195   1.972  0.4672 -0.4421  0.1991
16398TIP3    H170609   2.085   4.265   1.906 -1.9762 -0.4317 -0.0486
16398TIP3    H270610   2.111   4.236   2.052  1.8117  0.0785 -0.5856
16399TIP3   OH270611   2.106   3.593  16.844  0.8341 -0.4827  0.1790
16399TIP3    H170612   2.112   3.654  16.918  0.7927  0.4923 -0.6099
16399TIP3    H270613   2.076   3.511  16.883  2.2252 -0.4120  1.4860
16400TIP3   OH270614   3.371   1.020  15.897 -0.1139  0.3606  0.0670
16400TIP3    H170615   3.295   0.977  15.856  1.8095 -0.6622 -2.5242
16400TIP3    H270616   3.401   0.958  15.964 -0.6311  0.1117  0.0693
16401TIP3   OH270617   0.996   3.033   1.857 -0.6918  0.0960 -0.0561
16401TIP3    H170618   0.968   3.067   1.772 -1.4531 -2.6162 -0.9190
16401TIP3    H270619   1.091   3.049   1.858 -0.3454 -1.4981 -2.2508
16402TIP3   OH270620   0.466   5.657  11.456  0.3659  0.6136 -0.0140
16402TIP3    H170621   0.528   5.723  11.487  1.8461 -0.5194 -0.5096
16402TIP3    H270622   0.520   5.584  11.426 -1.2371 -1.2724  1.4618
16403TIP3   OH270623   3.417   6.227   1.871 -0.6245  0.0371  0.0096
16403TIP3    H170624   3.352   6.253   1.937 -0.5662 -0.2328  0.1737
16403TIP3    H270625   3.497   6.271   1.900  0.1896 -2.5741  1.8913
16404TIP3   OH270626   6.332   4.878  11.405 -0.0906  0.2793 -0.2426
16404TIP3    H170627   6.333   4.933  11.483 -0.3488  1.3915 -1.0102
16404TIP3    H270628   6.374   4.796  11.432 -0.8715  0.3658  1.2701
16405TIP3   OH270629   3.882   3.417   2.954 -0.1950 -0.2945  0.4010
16405TIP3    H170630   3.977   3.430   2.949 -0.2495  0.4067  0.9685
16405TIP3    H270631   3.846   3.506   2.949 -0.7042 -0.3480  2.5222
16406TIP3   OH270632   5.432   1.699  15.561  0.4545 -0.1540  0.3315
16406TIP3    H170633   5.349   1.746  15.569  0.0054 -0.9377  0.3410
16406TIP3    H270634   5.455   1.708  15.468 -1.3457 -2.7559 -0.4108
16407TIP3   OH270635   0.528   2.009  11.623  0.2787 -0.2172  0.1333
16407TIP3    H170636   0.530   1.951  11.547  0.4181 -0.0528  0.0127
16407TIP3    H270637   0.578   1.961  11.690  0.0395 -0.4231  0.1656
16408TIP3   OH270638   3.013   5.048   1.017  0.0471 -0.0723 -0.7330
16408TIP3    H170639   3.046   4.960   1.035  0.3634 -0.0717 -1.3104
16408TIP3    H270640   3.063   5.105   1.076 -0.9354 -0.3941  0.4522
16409TIP3   OH270641   1.409   4.254  13.752 -0.4376 -0.0105 -0.1695
16409TIP3    H170642   1.336   4.308  13.783 -1.3760 -1.8329  0.9080
16409TIP3    H270643   1.380   4.164  13.767  1.7206 -0.7890 -0.4799
16410TIP3   OH270644   3.274   6.393  12.273 -0.4575  0.5087  0.2629
16410TIP3    H170645   3.247   6.468  12.327 -0.3109  1.2641 -0.6979
16410TIP3    H270646   3.236   6.317  12.317 -0.6236  1.1497  1.2461
16411TIP3   OH270647   2.986   3.917  14.616 -0.8671  0.3106  0.0200
16411TIP3    H170648   2.905   3.923  14.668 -0.8832 -0.3468  0.0663
16411TIP3    H270649   2.965   3.856  14.546 -0.9449  1.4470 -0.9541
16412TIP3   OH270650   6.288   3.550   3.442  0.2318  0.6047  0.1429
16412TIP3    H170651   6.380   3.573   3.457  0.3595  1.2278 -1.4874
16412TIP3    H270652   6.251   3.627   3.399 -1.3573  0.8116  1.8216
16413TIP3   OH270653   2.554   6.519   5.475 -0.6935  0.3384  0.1139
16413TIP3    H170654   2.465   6.483   5.469 -0.6171  0.2043 -0.2061
16413TIP3    H270655   2.575   6.545   5.385  0.1863 -1.0412 -0.0831
16414TIP3   OH270656   2.384   3.864   2.695  0.3455 -0.1619  0.2810
16414TIP3    H170657   2.436   3.941   2.720  0.3532  0.2937 -1.0918
16414TIP3    H270658   2.432   3.790   2.730  0.5106  0.4337  1.3480
16415TIP3   OH270659   6.193   0.702   5.320 -0.3307  0.0246 -0.2174
16415TIP3    H170660   6.244   0.723   5.399 -0.3809 -0.6437 -0.0031
16415TIP3    H270661   6.157   0.615   5.338 -1.3010  0.3650 -0.4915
16416TIP3   OH270662   3.944   6.453   0.033  0.1950 -0.8129  0.0577
16416TIP3    H170663   4.019   6.502   0.066 -0.9270  0.2787  1.0454
16416TIP3    H270664   3.869   6.491   0.079 -0.7843 -2.9197  0.2440
16417TIP3   OH270665   5.456   3.411  10.479  0.7010 -0.8357 -0.3597
16417TIP3    H170666   5.480   3.346  10.413  0.1401  0.5307 -1.9269
16417TIP3    H270667   5.362   3.424  10.466  0.8491  0.4207 -0.1750
16418TIP3   OH270668   0.942   5.305  13.279 -0.3010  0.4918 -0.7111
16418TIP3    H170669   0.892   5.351  13.346  0.2274 -1.3802  1.0212
16418TIP3    H270670   0.961   5.372  13.213 -0.6204  2.4349  1.1136
16419TIP3   OH270671   3.725   1.427   4.320  0.0805  0.1853 -0.1793
16419TIP3    H170672   3.676   1.509   4.325 -0.9028 -0.3076 -1.4281
16419TIP3    H270673   3.713   1.397   4.229  0.9148 -1.0336  0.0994
16420TIP3   OH270674   5.326   2.624   0.106 -0.4379  0.4930  0.1685
16420TIP3    H170675   5.266   2.665   0.168 -0.5156 -0.8620  1.0160
16420TIP3    H270676   5.326   2.531   0.130  0.8578  0.2286 -0.7703
16421TIP3   OH270677   2.154   2.909   4.405 -1.0347  0.0793  0.6543
16421TIP3    H170678   2.119   2.932   4.491 -0.3151  1.8870  0.4871
16421TIP3    H270679   2.215   2.837   4.423 -0.4978  0.7877  1.7376
16422TIP3   OH270680   4.176   2.003  16.237  0.0274 -0.1120 -0.3541
16422TIP3    H170681   4.253   2.053  16.264  0.5588 -0.1632 -1.7132
16422TIP3    H270682   4.212   1.924  16.197 -0.6932  0.2127 -1.6948
16423TIP3   OH270683   6.252   0.882   3.503 -0.2649  0.5234  0.2062
16423TIP3    H170684   6.219   0.868   3.414 -2.4266  0.1797  1.0107
16423TIP3    H270685   6.332   0.932   3.492 -0.1748 -0.0463 -1.9676
16424TIP3   OH270686   5.931   2.139  10.603  0.2933 -0.0768 -0.6557
16424TIP3    H170687   5.973   2.183  10.678  1.1286  0.8815 -1.6745
16424TIP3    H270688   5.966   2.050  10.606  1.4593  0.3693 -0.7606
16425TIP3   OH270689   1.177   2.062  16.710  0.2458 -0.3438  0.1095
16425TIP3    H170690   1.200   2.084  16.620  1.3398  1.5067  0.8144
16425TIP3    H270691   1.082   2.048  16.708  0.5266 -2.1696 -1.6823
16426TIP3   OH270692   4.711   2.520   6.877  0.2465  0.0852 -0.7719
16426TIP3    H170693   4.620   2.520   6.847  0.4935  1.0672 -1.5711
16426TIP3    H270694   4.754   2.583   6.820  1.0367  0.9971  0.8118
16427TIP3   OH270695   2.981   0.571  14.403  1.0352  0.2198  0.7059
16427TIP3    H170696   2.950   0.533  14.485 -0.0872  1.7296  1.0044
16427TIP3    H270697   3.031   0.648  14.430  0.9767  0.5163 -0.0107
16428TIP3   OH270698   4.093   6.652   4.914 -0.1515 -0.3107 -0.1294
16428TIP3    H170699   4.025   6.710   4.881 -1.0893 -0.8845  0.7777
16428TIP3    H270700   4.105   6.678   5.006  0.6692 -0.3800 -0.2115
16429TIP3   OH270701   1.385   0.091  13.080 -0.2682  0.7461  0.0591
16429TIP3    H170702   1.351   0.102  13.169 -1.5174  0.8025 -0.4115
16429TIP3    H270703   1.365   0.174  13.036 -1.7149 -0.0849 -0.9231
16430TIP3   OH270704   2.806   5.945  12.869 -0.2202 -0.0676  0.2943
16430TIP3    H170705   2.724   5.971  12.911 -1.0050 -1.9032 -0.0319
16430TIP3    H270706   2.809   5.998  12.789 -2.0493 -1.2709 -0.6270
16431TIP3   OH270707   5.310   6.296  14.934  0.1094  0.2794  0.1349
16431TIP3    H170708   5.339   6.283  14.844 -0.6957 -0.9917  0.0504
16431TIP3    H270709   5.328   6.389  14.952 -1.3774  1.0104 -1.9474
16432TIP3   OH270710   4.784   5.551  13.947  0.0662  0.3939  0.1805
16432TIP3    H170711   4.847   5.608  13.992 -2.3680  2.7533  0.7131
16432TIP3    H270712   4.750   5.605  13.876 -2.4444 -0.3076  0.8063
16433TIP3   OH270713   2.566   5.393  15.877  0.5378  0.6068  0.0416
16433TIP3    H170714   2.605   5.421  15.794 -1.3223 -0.1401 -1.1244
16433TIP3    H270715   2.474   5.419  15.870 -0.1683 -1.5864  0.8765
16434TIP3   OH270716   0.557   4.957  12.330 -0.2284 -0.4426  0.3700
16434TIP3    H170717   0.583   5.017  12.400 -1.1855 -1.0526  1.2649
16434TIP3    H270718   0.635   4.947  12.276  0.3844  0.3894  1.0971
16435TIP3   OH270719   5.305   0.320  15.230  0.2599  0.0849  0.2233
16435TIP3    H170720   5.365   0.245  15.225 -0.2431 -0.2745 -0.4262
16435TIP3    H270721   5.254   0.305  15.310 -0.1005 -0.4593 -0.1073
16436TIP3   OH270722   4.026   2.166   5.010  0.0561 -0.3592 -0.1261
16436TIP3    H170723   4.075   2.220   5.072 -0.6073  0.0666  0.0388
16436TIP3    H270724   3.935   2.171   5.041 -0.3147  0.0474 -1.2635
16437TIP3   OH270725   0.837   2.146  16.396  0.0722 -0.0125  0.0996
16437TIP3    H170726   0.902   2.087  16.436 -0.5333 -0.6724  0.1246
16437TIP3    H270727   0.883   2.186  16.322  0.6005 -0.2522  0.2947
16438TIP3   OH270728   6.013   4.360  11.903 -0.2060  0.8144  0.1618
16438TIP3    H170729   5.971   4.376  11.818  0.0658 -1.7457 -0.4980
16438TIP3    H270730   5.942   4.331  11.960  0.3159 -1.9681 -0.5168
16439TIP3   OH270731   5.939   6.448   3.064 -0.0946  0.4923 -0.0158
16439TIP3    H170732   5.943   6.355   3.086  0.0564  0.5385  0.1477
16439TIP3    H270733   6.022   6.484   3.095  0.1729  0.5335 -0.7670
16440TIP3   OH270734   2.500   3.339   2.756 -0.5445 -0.2964  0.2543
16440TIP3    H170735   2.470   3.363   2.844  0.8939  1.2317  0.3600
16440TIP3    H270736   2.437   3.274   2.726 -1.3261 -0.4982  2.2377
16441TIP3   OH270737   0.767   1.649   1.836  0.1064 -0.0053 -0.5867
16441TIP3    H170738   0.755   1.731   1.789  0.9341 -0.9671 -2.5321
16441TIP3    H270739   0.715   1.659   1.916 -1.0983  1.7608 -1.5661
16442TIP3   OH270740   3.513   2.616   1.790  1.1037  0.2292  0.0995
16442TIP3    H170741   3.510   2.577   1.877 -0.2378 -0.6770 -0.3470
16442TIP3    H270742   3.521   2.710   1.806  0.2309  0.1191  1.2058
16443TIP3   OH270743   4.983   1.277   4.663  0.1545 -0.0122 -0.1224
16443TIP3    H170744   5.057   1.243   4.712  0.0174 -0.3685 -0.1582
16443TIP3    H270745   4.914   1.211   4.674 -0.0942  0.2241 -0.2417
16444TIP3   OH270746   2.452   1.424   4.262 -0.4475  0.3707  0.2930
16444TIP3    H170747   2.494   1.496   4.216 -0.8168  0.1652 -0.3814
16444TIP3    H270748   2.423   1.365   4.193  0.1324 -0.5808  0.8538
16445TIP3   OH270749   0.999   5.568  13.807  0.3330 -0.9156 -0.3303
16445TIP3    H170750   1.086   5.598  13.780  0.3329 -1.9417 -1.5361
16445TIP3    H270751   0.989   5.601  13.896  1.8209 -0.4934 -0.2971
16446TIP3   OH270752   0.770   4.983   4.912  0.0398 -0.2968 -0.6599
16446TIP3    H170753   0.826   4.948   4.982  0.0721  0.0755 -0.5022
16446TIP3    H270754   0.788   5.077   4.911 -3.0918  0.3741  1.6329
16447TIP3   OH270755   5.998   6.403   2.140  0.1853  0.3009  0.0973
16447TIP3    H170756   5.991   6.434   2.050  0.2180  2.0264  0.6634
16447TIP3    H270757   6.007   6.483   2.192  3.3354 -0.7728  1.3319
16448TIP3   OH270758   2.458   2.523  11.827 -0.0812  0.1618  0.0208
16448TIP3    H170759   2.390   2.589  11.837 -2.8520 -2.7932  1.6463
16448TIP3    H270760   2.444   2.487  11.739  1.8736  2.0936 -1.1469
16449TIP3   OH270761   6.748   3.395   5.457 -0.3632 -0.3532  0.0530
16449TIP3    H170762   6.765   3.301   5.461 -0.7488 -0.4501 -0.4235
16449TIP3    H270763   6.745   3.415   5.363 -1.6759 -0.1364  0.1228
16450TIP3   OH270764   0.209   6.512   3.843  0.6638  0.5663 -0.0377
16450TIP3    H170765   0.254   6.493   3.925 -1.3494  0.1375  0.9955
16450TIP3    H270766   0.200   6.427   3.799 -0.9422  0.3250  0.7221
16451TIP3   OH270767   3.464   4.248  15.241  0.2796  0.5381  0.0035
16451TIP3    H170768   3.557   4.259  15.262  0.1275  0.4443  0.7578
16451TIP3    H270769   3.431   4.336  15.226 -0.1771  0.8683  2.6866
16452TIP3   OH270770   1.451   0.233  15.423  0.0842  0.0868  0.0550
16452TIP3    H170771   1.426   0.245  15.515 -0.9700 -0.6636 -0.1164
16452TIP3    H270772   1.525   0.292  15.410  1.3062 -1.0313  1.8286
16453TIP3   OH270773   3.814   4.752  17.155 -0.1887  1.0308  0.2925
16453TIP3    H170774   3.867   4.677  17.181 -2.2392  0.0028  1.6385
16453TIP3    H270775   3.855   4.784  17.075  2.4220  0.2510  1.2858
16454TIP3   OH270776   1.647   1.131  15.734 -0.2880  0.0991 -0.0544
16454TIP3    H170777   1.616   1.214  15.697  1.0980  0.2270 -0.9682
16454TIP3    H270778   1.739   1.127  15.709  0.4486 -0.2717  2.6296
16455TIP3   OH270779   3.371   3.222   3.788 -0.8850  0.4946 -0.6766
16455TIP3    H170780   3.348   3.134   3.756 -1.0005  0.4161 -0.3767
16455TIP3    H270781   3.467   3.224   3.781 -0.8122  0.0417  0.0867
16456TIP3   OH270782   5.529   5.354   3.050 -0.1433  0.0566 -0.2926
16456TIP3    H170783   5.465   5.321   3.113 -1.0998  0.8844 -0.8042
16456TIP3    H270784   5.499   5.321   2.965  0.6154 -0.2936 -0.4247
16457TIP3   OH270785   0.053   0.756   4.271  0.2658 -0.3429  0.3194
16457TIP3    H170786   0.130   0.798   4.310  0.3119 -0.8295  0.7525
16457TIP3    H270787  -0.019   0.779   4.329 -0.0131  0.5430 -0.3674
16458TIP3   OH270788   3.608   0.271   5.106  0.0729  0.4040  0.3153
16458TIP3    H170789   3.700   0.248   5.098  0.4709  1.8777  0.4370
16458TIP3    H270790   3.595   0.287   5.200 -0.8737 -2.0007  0.6367
16459TIP3   OH270791   4.258   2.512   2.497  0.4160 -0.3662 -0.1875
16459TIP3    H170792   4.259   2.594   2.448 -1.3858 -0.5862 -0.6077
16459TIP3    H270793   4.166   2.488   2.502  0.5197 -0.3222  3.3680
16460TIP3   OH270794   4.054   1.481   0.115  0.0649  0.9065 -0.6572
16460TIP3    H170795   4.038   1.548   0.049 -2.7988  0.8488 -0.1246
16460TIP3    H270796   3.999   1.407   0.088  0.2799  0.2054  0.7637
16461TIP3   OH270797   6.471   2.004  14.029 -0.0350 -0.2544 -0.4338
16461TIP3    H170798   6.378   2.012  14.048  0.4328  0.9069  1.4370
16461TIP3    H270799   6.497   1.922  14.070  0.2133  0.5066  0.9746
16462TIP3   OH270800   3.388   6.390  15.130 -0.7247  0.2415  0.0134
16462TIP3    H170801   3.399   6.345  15.046  0.4438 -0.3990  0.4901
16462TIP3    H270802   3.398   6.483  15.109  1.8362 -0.0546 -0.2300
16463TIP3   OH270803   1.461   3.987  15.415  0.0510 -0.4921 -0.0613
16463TIP3    H170804   1.430   3.926  15.482 -0.1191 -1.2271 -0.7985
16463TIP3    H270805   1.382   4.024  15.378  0.0924 -1.3189 -0.9831
16464TIP3   OH270806   2.270   5.546   0.209 -0.5488  0.0309  0.0839
16464TIP3    H170807   2.269   5.486   0.134  0.5092  0.9898 -0.7161
16464TIP3    H270808   2.228   5.626   0.176  1.2848  0.9961  0.0280
16465TIP3   OH270809   2.253   3.252   5.208  0.3856 -0.0248 -0.2827
16465TIP3    H170810   2.217   3.188   5.269 -0.5259  1.9462  1.2998
16465TIP3    H270811   2.203   3.240   5.128 -1.9618  0.8191  1.0165
16466TIP3   OH270812   1.743   4.844   3.990 -0.4694  0.7149  0.0464
16466TIP3    H170813   1.805   4.772   3.997 -0.2718  0.9844  1.2910
16466TIP3    H270814   1.783   4.905   3.928 -0.2247  0.1651 -0.3336
16467TIP3   OH270815   0.211   3.977   0.253  0.6176 -0.3133 -0.5469
16467TIP3    H170816   0.140   4.021   0.301 -1.2889 -3.5612 -0.2338
16467TIP3    H270817   0.184   3.984   0.161  0.0383 -1.2544 -0.4546
16468TIP3   OH270818   1.054   5.519   4.117  0.2724  0.2841 -0.8626
16468TIP3    H170819   1.134   5.519   4.169 -0.3171  0.7346  0.0634
16468TIP3    H270820   1.000   5.589   4.155 -1.2783 -1.1620 -0.3141
16469TIP3   OH270821   0.175   0.098   3.505  0.4340  0.3472 -0.6973
16469TIP3    H170822   0.204   0.058   3.587  0.0468  0.8081 -0.3297
16469TIP3    H270823   0.086   0.128   3.523  0.2518  0.2150 -1.3732
16470TIP3   OH270824   0.860   4.439   4.076  0.0654 -0.2289 -0.3087
16470TIP3    H170825   0.770   4.448   4.047  0.0413 -1.4522 -0.6310
16470TIP3    H270826   0.861   4.358   4.127  0.7092  0.4308  0.7479
16471TIP3   OH270827   0.949   3.648   0.093  0.3312  0.4302  0.1880
16471TIP3    H170828   0.917   3.728   0.051 -0.1889  0.1694  0.0794
16471TIP3    H270829   0.961   3.673   0.184 -0.2036  0.5346  0.2371
16472TIP3   OH270830   6.087   0.003  10.769 -0.0235 -0.2570  0.5086
16472TIP3    H170831   6.141   0.044  10.701 -0.3682 -0.8946 -0.1540
16472TIP3    H270832   6.090  -0.090  10.749  1.7171 -0.6977  2.7215
16473TIP3   OH270833   4.482   3.314   4.316 -0.0909 -0.1338  0.5462
16473TIP3    H170834   4.448   3.322   4.227  2.5025  0.4570 -0.4286
16473TIP3    H270835   4.498   3.220   4.327  0.3257 -0.1174  0.0993
16474TIP3   OH270836   6.722   4.242  16.186 -0.0480 -0.3338 -0.8570
16474TIP3    H170837   6.631   4.263  16.207  0.5541  0.1898  1.2749
16474TIP3    H270838   6.749   4.311  16.125 -1.0211 -0.4132 -1.3875
16475TIP3   OH270839   2.895   2.190  15.443  0.2701  0.1336  0.3525
16475TIP3    H170840   2.955   2.125  15.480  1.6514  2.2968  2.0199
16475TIP3    H270841   2.825   2.198  15.508  0.1796  0.4297  0.2180
16476TIP3   OH270842   2.325   4.850   2.109  0.0944 -0.2574  0.3956
16476TIP3    H170843   2.398   4.902   2.076  0.5811 -0.2844  1.3969
16476TIP3    H270844   2.316   4.877   2.200 -0.2163 -1.2874  0.6772
16477TIP3   OH270845   2.959   2.388   0.619 -0.3640 -0.2585 -0.1756
16477TIP3    H170846   2.928   2.462   0.671  0.6919 -1.2431  1.9175
16477TIP3    H270847   3.016   2.427   0.553 -1.6953  1.0110 -0.5941
16478TIP3   OH270848   6.583   5.691  12.371 -0.0730  0.2141 -0.6415
16478TIP3    H170849   6.638   5.677  12.294  0.0352  1.5721 -0.8340
16478TIP3    H270850   6.617   5.631  12.436  0.8456  0.1617 -1.1602
16479TIP3   OH270851   3.689   2.334  11.871  0.0981 -0.0838  0.5625
16479TIP3    H170852   3.601   2.371  11.864 -0.6571 -1.5878  1.9901
16479TIP3    H270853   3.743   2.408  11.899 -0.7892  0.7327  0.1580
16480TIP3   OH270854   0.310   6.472  15.435 -0.3424  0.4472 -0.4428
16480TIP3    H170855   0.254   6.425  15.373  0.4827 -1.6158  0.3186
16480TIP3    H270856   0.366   6.527  15.380  2.1091 -3.1917 -1.8035
16481TIP3   OH270857   6.653   0.863  13.045 -0.1244 -0.4539  0.2601
16481TIP3    H170858   6.673   0.853  13.138 -0.9244 -0.2732  0.4561
16481TIP3    H270859   6.558   0.877  13.043 -0.5568 -3.3559 -0.8008
16482TIP3   OH270860   2.331   2.164  13.916  0.2024  0.2419  0.2617
16482TIP3    H170861   2.255   2.135  13.967  0.5644 -0.8618  0.1816
16482TIP3    H270862   2.400   2.176  13.981  0.0442  0.9947  0.3008
16483TIP3   OH270863   5.942   0.849  11.518  0.1791  0.2229 -0.6447
16483TIP3    H170864   5.886   0.895  11.581 -0.5285 -0.5243 -0.7204
16483TIP3    H270865   5.937   0.903  11.439 -0.5608  0.0818 -0.6999
16484TIP3   OH270866   4.754   0.493   2.488 -0.0311  0.6265 -0.2311
16484TIP3    H170867   4.701   0.489   2.567 -1.9938 -0.1773 -1.5384
16484TIP3    H270868   4.757   0.586   2.466 -0.5695  0.7203  0.0849
16485TIP3   OH270869   1.978   2.675  14.524  0.4583 -0.3657  0.4383
16485TIP3    H170870   2.039   2.716  14.462 -0.8403  0.2350 -0.4803
16485TIP3    H270871   1.967   2.740  14.593 -0.0462  0.0204  0.0008
16486TIP3   OH270872   6.346   2.140   4.316 -0.9964  0.0532  0.1046
16486TIP3    H170873   6.384   2.137   4.404  1.5511  4.0149 -0.7545
16486TIP3    H270874   6.251   2.148   4.332 -0.8553 -1.9266  2.3804
16487TIP3   OH270875   5.149   2.415  14.284  0.3010 -0.4833 -0.3553
16487TIP3    H170876   5.191   2.485  14.235 -1.3463  0.2818 -0.7171
16487TIP3    H270877   5.220   2.357  14.310  1.6918  1.3142 -0.0692
16488TIP3   OH270878   4.939   3.382  13.880  0.2267 -0.2860 -0.1140
16488TIP3    H170879   4.930   3.363  13.973  1.7972 -1.7119 -0.2285
16488TIP3    H270880   4.932   3.297  13.836  0.4451  0.2446 -1.2190
16489TIP3   OH270881   0.410   5.332   1.461 -0.3813  0.0345 -0.4488
16489TIP3    H170882   0.444   5.260   1.407  1.6832  1.8293 -1.5945
16489TIP3    H270883   0.333   5.362   1.414 -0.9426 -1.0746 -0.2519
16490TIP3   OH270884   6.480   2.544  16.238 -0.8313 -0.0587  0.7876
16490TIP3    H170885   6.419   2.596  16.187 -0.0933  0.7773  0.7288
16490TIP3    H270886   6.440   2.458  16.245 -1.9155  0.4275  0.5910
16491TIP3   OH270887   2.609   0.225   3.369  0.2648 -0.5356  0.5390
16491TIP3    H170888   2.657   0.269   3.299 -0.1301 -1.9739 -0.6766
16491TIP3    H270889   2.672   0.166   3.409  0.2555 -0.3523  0.8284
16492TIP3   OH270890   2.206   6.710   3.463 -0.3564  0.0468 -0.1473
16492TIP3    H170891   2.244   6.673   3.542  0.5538 -0.4450 -0.8087
16492TIP3    H270892   2.274   6.700   3.396 -0.9925  0.7492 -0.9138
16493TIP3   OH270893   6.680   1.155  15.817  0.7842 -0.1487  0.3603
16493TIP3    H170894   6.601   1.119  15.776  1.1176 -0.4024 -0.0544
16493TIP3    H270895   6.666   1.140  15.911 -1.5334  3.4805  0.6960
16494TIP3   OH270896   2.559   5.216  13.490  0.0578  0.0047 -0.7835
16494TIP3    H170897   2.539   5.173  13.406  0.8101 -2.7716  0.4210
16494TIP3    H270898   2.506   5.169  13.554  3.4898 -1.4432  1.0957
16495TIP3   OH270899   3.961   2.773   2.207  0.3450 -0.3406 -0.4395
16495TIP3    H170900   3.933   2.837   2.272  2.2030 -0.9867  1.0517
16495TIP3    H270901   3.916   2.692   2.231  0.3105 -0.3379 -0.4967
16496TIP3   OH270902   3.669   2.679   2.069 -0.4377  0.2646 -0.3856
16496TIP3    H170903   3.723   2.633   2.133  0.3243  1.0209 -0.4593
16496TIP3    H270904   3.596   2.620   2.051 -2.2618  1.2604  3.3654
16497TIP3   OH270905   3.107   2.925  12.110 -0.4644 -0.4364  0.0458
16497TIP3    H170906   3.109   2.890  12.199 -0.3404 -1.0606 -0.1999
16497TIP3    H270907   3.163   2.866  12.060  2.2948  1.8908  0.2514
16498TIP3   OH270908   0.341   6.485  10.490  0.0703  0.6653 -0.4819
16498TIP3    H170909   0.342   6.435  10.409  0.6573 -0.4520  0.1992
16498TIP3    H270910   0.251   6.515  10.499 -0.4308 -0.7823 -0.6004
16499TIP3   OH270911   4.798   0.528  13.900  0.1220 -0.0002 -0.3596
16499TIP3    H170912   4.767   0.535  13.990  0.3201 -1.5333 -0.1522
16499TIP3    H270913   4.741   0.462  13.860  0.2386  0.4338 -1.2746
16500TIP3   OH270914   3.896   4.036   4.351  0.0030  0.0506  0.5832
16500TIP3    H170915   3.878   3.999   4.265 -1.0391 -1.6522  1.5066
16500TIP3    H270916   3.876   4.129   4.341 -2.1020 -0.4773 -0.4957
16501TIP3   OH270917   3.449   3.428  12.947  0.3002 -0.7237 -0.6140
16501TIP3    H170918   3.428   3.345  12.990 -1.3986  0.1650  0.3523
16501TIP3    H270919   3.401   3.493  12.998  1.6686  0.8550 -1.3282
16502TIP3   OH270920   4.400   1.275   2.388  0.5018  0.3489 -0.1109
16502TIP3    H170921   4.379   1.197   2.438 -2.4443  1.0999 -0.0748
16502TIP3    H270922   4.356   1.262   2.304  0.6307  1.6266 -0.3864
16503TIP3   OH270923   4.556   1.362  12.162 -0.6281  0.3006  0.1347
16503TIP3    H170924   4.604   1.380  12.242  2.6881 -1.0188 -1.4829
16503TIP3    H270925   4.521   1.274  12.173 -0.7789  0.3896  0.3808
16504TIP3   OH270926   1.805   4.695  15.920  0.3050  0.7560 -1.1330
16504TIP3    H170927   1.770   4.606  15.928 -0.2917  0.9733 -1.2727
16504TIP3    H270928   1.737   4.751  15.958  1.4794  1.0107  0.6476
16505TIP3   OH270929   6.551   0.465   0.873  0.6310  0.3585 -0.9093
16505TIP3    H170930   6.632   0.512   0.854  0.5947  1.7303  2.0740
16505TIP3    H270931   6.482   0.531   0.861  0.2005 -0.0608 -0.7371
16506TIP3   OH270932   2.354   0.550  11.855 -0.0961  0.3113  0.3926
16506TIP3    H170933   2.436   0.506  11.878 -0.3530 -1.3827 -1.8310
16506TIP3    H270934   2.319   0.500  11.782 -2.8812  1.3359  0.9751
16507TIP3   OH270935   4.921   0.107  11.816 -0.2803 -0.2874  0.2008
16507TIP3    H170936   4.936   0.147  11.730 -2.3734  0.7307  0.2802
16507TIP3    H270937   4.927   0.013  11.800  0.1545 -0.0780 -0.8948
16508TIP3   OH270938   1.058   1.538  11.995  0.0201  0.1201 -0.2817
16508TIP3    H170939   0.975   1.525  11.949 -0.5786  0.0615  0.7992
16508TIP3    H270940   1.083   1.450  12.025  1.6559 -0.2431 -2.5659
16509TIP3   OH270941   2.218   3.090  11.561 -0.7521  0.3317  0.0762
16509TIP3    H170942   2.147   3.086  11.625 -0.6826 -2.2915  0.0447
16509TIP3    H270943   2.189   3.032  11.490  0.3209  1.1946 -1.0954
16510TIP3   OH270944   2.589   5.273  14.650  0.6323 -0.2325  0.0734
16510TIP3    H170945   2.590   5.325  14.569 -0.7083  0.2102  0.3287
16510TIP3    H270946   2.522   5.206  14.634  0.5921 -0.3399  0.7012
16511TIP3   OH270947   6.017   1.579   1.389  0.1653  0.1539 -0.0543
16511TIP3    H170948   6.041   1.521   1.316 -0.2311  0.2544 -0.2683
16511TIP3    H270949   5.966   1.524   1.448 -1.1525  0.5526 -0.7964
16512TIP3   OH270950   2.469   4.957  16.444  0.9503  0.9041 -0.0990
16512TIP3    H170951   2.505   4.992  16.526  0.3573 -1.6442  1.3055
16512TIP3    H270952   2.546   4.939  16.390  1.5611 -0.5236  1.2225
16513TIP3   OH270953   5.498   4.346  10.707  1.0083 -0.1890  0.1766
16513TIP3    H170954   5.426   4.384  10.657 -0.0490 -0.8473  1.1529
16513TIP3    H270955   5.505   4.256  10.675 -0.4341 -0.9722  1.9632
16514TIP3   OH270956   1.343   6.674   1.716  0.1690 -0.5933 -0.2734
16514TIP3    H170957   1.359   6.616   1.642  0.6523 -0.7496 -0.0432
16514TIP3    H270958   1.261   6.719   1.693  0.0264 -1.0375 -0.6526
16515TIP3   OH270959   4.807   0.564   0.405  0.7766  0.8226  0.2932
16515TIP3    H170960   4.743   0.575   0.476  0.2175 -1.0154  0.0788
16515TIP3    H270961   4.878   0.624   0.429  0.5399  0.3220  2.3520
16516TIP3   OH270962   6.162   1.194   3.775  0.4589 -0.0024 -0.3719
16516TIP3    H170963   6.207   1.134   3.835  0.8487 -0.1721 -0.8263
16516TIP3    H270964   6.103   1.138   3.725  0.6180  0.0316 -0.6014
16517TIP3   OH270965   0.218   4.674   1.545 -0.3323  0.4622  0.2218
16517TIP3    H170966   0.156   4.736   1.509 -0.6931 -0.6067 -1.0536
16517TIP3    H270967   0.299   4.690   1.496  0.1068  1.1793  1.1829
16518TIP3   OH270968   3.560   6.371  16.057 -0.5790  0.2649 -0.0984
16518TIP3    H170969   3.574   6.440  15.993  1.6765 -1.1340 -1.1583
16518TIP3    H270970   3.586   6.290  16.013 -1.6065 -1.0714  1.6533
16519TIP3   OH270971   1.778   5.700  16.304  0.0112 -0.2873  0.5618
16519TIP3    H170972   1.712   5.698  16.236 -1.0836 -1.3655  1.6299
16519TIP3    H270973   1.823   5.783  16.292 -0.3394 -0.3580 -1.2923
16520TIP3   OH270974   6.492   4.578   0.530  0.1782 -0.3293 -0.3495
16520TIP3    H170975   6.510   4.529   0.610 -1.4692  0.1813  0.3663
16520TIP3    H270976   6.461   4.663   0.562 -0.3425 -0.0728 -1.5271
16521TIP3   OH270977   2.285   4.923  12.336  0.1258  0.3528 -0.3086
16521TIP3    H170978   2.223   4.909  12.408 -0.5144 -1.8696 -1.2467
16521TIP3    H270979   2.236   4.974  12.271 -0.3359 -0.3858 -0.5386
16522TIP3   OH270980   5.251   5.657   3.150 -0.0365  0.0046  0.1864
16522TIP3    H170981   5.247   5.742   3.105  2.3584 -0.2677 -0.6015
16522TIP3    H270982   5.343   5.649   3.176 -0.0173 -2.8010 -0.6495
16523TIP3   OH270983   4.761   2.877  13.246 -0.1116 -0.2935 -0.4282
16523TIP3    H170984   4.740   2.865  13.339 -0.8596  0.4830 -0.4896
16523TIP3    H270985   4.728   2.964  13.225  0.2681 -0.3703 -1.3673
16524TIP3   OH270986   4.422   2.437   5.293  0.3063 -0.1582 -0.2938
16524TIP3    H170987   4.486   2.386   5.244 -0.4019 -1.6427  0.3060
16524TIP3    H270988   4.457   2.442   5.382 -0.6601 -1.4537  0.1727
16525TIP3   OH270989   5.675   5.293   2.679  0.8880  0.1096  0.7762
16525TIP3    H170990   5.683   5.388   2.683  0.3686  0.1169  1.7894
16525TIP3    H270991   5.699   5.270   2.589 -0.2586  1.3229  0.1550
16526TIP3   OH270992   5.385   5.647   4.928  0.2739  0.1219  0.0757
16526TIP3    H170993   5.471   5.649   4.886 -0.6375 -1.3516 -1.9682
16526TIP3    H270994   5.358   5.555   4.923 -1.1771  0.4588  1.2091
16527TIP3   OH270995   5.714   5.207   5.601 -0.5400 -0.1397  0.2727
16527TIP3    H170996   5.702   5.246   5.514  1.4791 -1.0045 -0.4212
16527TIP3    H270997   5.799   5.164   5.596 -0.5020 -0.3676  2.6375
16528TIP3   OH270998   4.627   5.819   4.384 -0.3485  0.0325  0.3386
16528TIP3    H170999   4.605   5.881   4.454  0.0565 -0.4914  0.9360
16528TIP3    H271000   4.704   5.857   4.341  0.1593 -0.2584  0.9773
16529TIP3   OH271001   3.215   0.954  12.480  0.1093  0.1910  0.4876
16529TIP3    H171002   3.205   1.031  12.536  1.5098 -0.0563  1.0837
16529TIP3    H271003   3.216   0.880  12.540  1.3178 -0.0944  0.1274
16530TIP3   OH271004   2.047   4.291   4.819  0.4492  0.6569  0.1654
16530TIP3    H171005   1.960   4.259   4.842  0.9709 -2.0288 -1.3320
16530TIP3    H271006   2.061   4.366   4.876 -3.2812  1.8391 -0.3273
16531TIP3   OH271007   2.975   1.190  13.855  0.2323 -0.1862 -0.3955
16531TIP3    H171008   2.903   1.148  13.808 -1.0292 -0.1622  1.4617
16531TIP3    H271009   2.972   1.281  13.825  0.9300 -0.6844 -2.0117
16532TIP3   OH271010   6.046   1.124   3.441 -0.1355  0.3861  0.0898
16532TIP3    H171011   6.126   1.159   3.401  0.0264 -1.3648 -1.2077
16532TIP3    H271012   6.026   1.047   3.388 -3.9829  2.0838 -1.0529
16533TIP3   OH271013   0.461   2.480   5.362 -0.2231  0.5278  0.7288
16533TIP3    H171014   0.409   2.433   5.428  0.1544 -0.8103  0.0931
16533TIP3    H271015   0.396   2.522   5.306 -0.6553 -1.0091  0.0282
16534TIP3   OH271016   5.158   5.684  10.663  0.5546 -0.1799  0.7310
16534TIP3    H171017   5.211   5.623  10.611  0.8734 -0.5544  1.4804
16534TIP3    H271018   5.213   5.761  10.673  0.2207  0.1601 -0.0729
16535TIP3   OH271019   5.361   4.512   3.670  0.1217 -0.2393  0.5132
16535TIP3    H171020   5.369   4.578   3.602 -0.8164 -0.4203  0.2137
16535TIP3    H271021   5.297   4.450   3.636 -1.5815  0.5201  2.2112
16536TIP3   OH271022   1.235   5.417  12.760 -0.1902  0.1410  0.5171
16536TIP3    H171023   1.200   5.481  12.823  2.3780  0.0147  2.1605
16536TIP3    H271024   1.316   5.457  12.728 -0.5351 -0.6198 -1.3812
16537TIP3   OH271025   0.950   4.158  17.193  0.2611 -0.1668  0.1924
16537TIP3    H171026   0.890   4.220  17.152  0.2227  0.9252  1.8629
16537TIP3    H271027   1.037   4.188  17.166  0.1585 -0.5252 -0.5493
16538TIP3   OH271028   3.540   5.651  16.339  0.1586  0.0122  0.0964
16538TIP3    H171029   3.511   5.566  16.372 -1.1006  1.4684  2.8360
16538TIP3    H271030   3.635   5.642  16.330  0.2470 -1.1463  1.9803
16539TIP3   OH271031   6.101   3.926   2.298  0.0656 -0.3870 -0.5161
16539TIP3    H171032   6.065   3.840   2.320  0.1042 -0.9591 -2.5588
16539TIP3    H271033   6.061   3.986   2.361 -0.6180 -1.7738  0.3830
16540TIP3   OH271034   6.634   1.860   1.022  0.1909 -0.2170  0.0733
16540TIP3    H171035   6.682   1.787   1.061  0.2333  0.1763  0.7650
16540TIP3    H271036   6.677   1.938   1.058  0.6869  0.1601 -1.3008
16541TIP3   OH271037   1.759   2.488   1.347 -0.1986 -0.3571  1.0427
16541TIP3    H171038   1.755   2.567   1.293  1.0913 -0.3121  1.0094
16541TIP3    H271039   1.668   2.472   1.372 -0.2044  2.5473  3.0698
16542TIP3   OH271040   2.531   6.228  10.936  0.2771 -0.2662 -0.0861
16542TIP3    H171041   2.601   6.175  10.900  0.1774 -0.2786 -0.2628
16542TIP3    H271042   2.451   6.176  10.921  0.0228  0.4923 -1.3939
16543TIP3   OH271043   4.043   5.402  12.736  0.3193 -0.1039 -0.0360
16543TIP3    H171044   3.980   5.448  12.681 -0.4006 -0.9600  0.0598
16543TIP3    H271045   4.006   5.407  12.824  0.3577 -0.6470  0.0158
16544TIP3   OH271046   6.000   2.310   5.618 -0.0293 -0.4720 -0.6016
16544TIP3    H171047   5.974   2.280   5.531 -2.5074 -0.0154 -0.0603
16544TIP3    H271048   5.921   2.351   5.653  1.4239  0.8224  1.2215
16545TIP3   OH271049   4.382   1.333   3.189 -0.7349  0.3660 -0.4829
16545TIP3    H171050   4.457   1.283   3.155 -1.0218 -0.8630  0.6370
16545TIP3    H271051   4.412   1.424   3.191  0.7038 -0.1076 -0.1387
16546TIP3   OH271052   2.868   0.127  13.961 -0.0566 -0.3351  0.2844
16546TIP3    H171053   2.857   0.062  14.030  0.4586 -0.9281 -0.1893
16546TIP3    H271054   2.813   0.095  13.889  2.4446 -1.8156 -1.0409
16547TIP3   OH271055   0.399   4.840   2.137 -0.2080  0.3261 -0.4268
16547TIP3    H171056   0.465   4.905   2.111  0.6435 -0.8503 -1.2764
16547TIP3    H271057   0.425   4.761   2.091 -1.7667 -0.3760 -0.1144
16548TIP3   OH271058   4.317   4.199   1.497 -0.2513 -0.2315  0.2702
16548TIP3    H171059   4.239   4.148   1.517 -1.3792  0.4610 -2.0677
16548TIP3    H271060   4.283   4.280   1.458  1.6027  0.5258  0.1693
16549TIP3   OH271061   6.745   4.225   4.460 -0.1220 -0.3507 -0.0527
16549TIP3    H171062   6.787   4.281   4.525 -1.2917 -0.5716  0.9255
16549TIP3    H271063   6.667   4.274   4.433 -1.1775 -1.5032  0.8403
16550TIP3   OH271064   4.195   4.388   4.354  0.3458  0.0485  0.6834
16550TIP3    H171065   4.242   4.447   4.413  2.0657 -0.6781  0.0725
16550TIP3    H271066   4.193   4.305   4.400  0.2529 -0.1032  0.4063
16551TIP3   OH271067   6.610   1.767   1.517  0.3723  1.2447 -0.4597
16551TIP3    H171068   6.655   1.708   1.578 -0.0022  0.3341 -1.0565
16551TIP3    H271069   6.542   1.808   1.570  0.3023  0.7570 -0.1695
16552TIP3   OH271070   1.298   3.830  15.227  0.7103  0.8746 -0.1405
16552TIP3    H171071   1.290   3.758  15.290  1.5555 -0.6075 -1.6705
16552TIP3    H271072   1.252   3.903  15.267 -0.2546 -0.5625  1.4104
16553TIP3   OH271073   3.200   3.607   0.131  0.0681 -0.8935  0.0635
16553TIP3    H171074   3.205   3.694   0.091  0.0443  0.2655  2.4408
16553TIP3    H271075   3.285   3.568   0.116 -0.0412 -0.5951 -1.3453
16554TIP3   OH271076   4.799   5.615   6.301  0.0476  0.6376  0.0062
16554TIP3    H171077   4.788   5.543   6.239 -0.2510  0.6621  0.0298
16554TIP3    H271078   4.713   5.625   6.341  0.2336  0.6375  0.4072
16555TIP3   OH271079   3.175   5.141   2.562  0.3683 -0.2952  0.2416
16555TIP3    H171080   3.085   5.121   2.537  0.3003 -1.6077  1.4441
16555TIP3    H271081   3.173   5.145   2.658  1.5485 -0.1431  0.2648
16556TIP3   OH271082   5.940   4.864   2.664  0.6433 -0.1239  0.1445
16556TIP3    H171083   5.926   4.954   2.692 -0.7283  0.1156 -1.2388
16556TIP3    H271084   5.853   4.831   2.644  1.2392 -1.4138 -0.3936
16557TIP3   OH271085   0.998   0.593   4.104 -0.2660 -0.1571  0.4030
16557TIP3    H171086   0.985   0.498   4.101 -0.3219 -0.1439  0.1905
16557TIP3    H271087   1.070   0.606   4.165  0.5009 -0.4157 -0.4426
16558TIP3   OH271088   1.821   2.602  16.103 -0.1380  0.1174  0.3305
16558TIP3    H171089   1.754   2.547  16.063 -0.0616 -0.0665  0.4568
16558TIP3    H271090   1.885   2.540  16.138  1.1950  0.3116 -1.6494
16559TIP3   OH271091   5.633   2.143  15.683  0.3695 -0.4657  0.1892
16559TIP3    H171092   5.544   2.176  15.695 -0.5912 -2.3215 -1.4739
16559TIP3    H271093   5.666   2.129  15.772 -1.0716  0.0867  0.8153
16560TIP3   OH271094   6.019   1.022   1.836  0.4541 -0.5951  0.0122
16560TIP3    H171095   5.986   1.102   1.878 -2.1520 -2.4008  1.5470
16560TIP3    H271096   6.057   1.053   1.754 -2.3593  2.0330 -0.4379
16561TIP3   OH271097   2.397   2.156  16.583 -0.6078 -0.1320  0.1075
16561TIP3    H171098   2.422   2.222  16.648  0.3055 -0.3692  0.0134
16561TIP3    H271099   2.473   2.097  16.579 -1.8031 -1.7736  0.9559
16562TIP3   OH271100   0.458   4.241   3.384 -0.2592 -0.2884 -0.1128
16562TIP3    H171101   0.402   4.312   3.415  0.0845 -0.4913  1.0106
16562TIP3    H271102   0.439   4.234   3.290  0.3618  1.9090 -0.4352
16563TIP3   OH271103   6.243   5.883   0.343 -0.3133  0.1603 -0.3470
16563TIP3    H171104   6.263   5.827   0.268  0.5944  1.4095 -1.0485
16563TIP3    H271105   6.164   5.844   0.381  1.0105 -2.3589 -0.0447
16564TIP3   OH271106   5.951   5.757   0.976  0.2088 -0.5031  0.8792
16564TIP3    H171107   5.935   5.670   0.939 -0.4987  0.6684 -1.6798
16564TIP3    H271108   5.939   5.746   1.070  0.1792 -3.1755  0.6023
16565TIP3   OH271109   6.159   6.690   5.840  0.2005  0.2766  0.6728
16565TIP3    H171110   6.247   6.677   5.807 -0.1136 -0.0947 -0.0280
16565TIP3    H271111   6.161   6.655   5.929  1.2108  1.8289  1.2693
16566TIP3   OH271112   2.016   1.795   1.887 -0.1157  0.1412  0.6039
16566TIP3    H171113   2.050   1.736   1.820 -1.5273 -0.5451  0.4921
16566TIP3    H271114   1.923   1.775   1.894 -0.9574  3.2964 -0.4057
16567TIP3   OH271115   4.909   5.817   0.414  0.4273  0.2173 -0.5000
16567TIP3    H171116   4.924   5.868   0.493 -0.7950 -1.7886  1.0727
16567TIP3    H271117   4.985   5.758   0.409  0.8498  0.8134 -1.2199
16568TIP3   OH271118   6.097   1.990   3.240 -0.1403 -0.3967 -0.5483
16568TIP3    H171119   6.139   1.940   3.170  2.0495 -2.0817  1.8553
16568TIP3    H271120   6.054   1.924   3.294 -0.6135  0.7206  0.4668
16569TIP3   OH271121   3.560   3.959  13.731  0.1382  0.0085 -0.0555
16569TIP3    H171122   3.594   4.002  13.809 -0.4871  0.1486  0.1424
16569TIP3    H271123   3.511   4.027  13.685 -0.3390 -0.3285 -0.0569
16570TIP3   OH271124   3.050   6.139  14.365  0.0396  0.7165 -0.1540
16570TIP3    H171125   2.993   6.189  14.307 -0.9057 -0.8705 -0.6414
16570TIP3    H271126   2.991   6.103  14.431  0.7981  0.7664  0.5587
16571TIP3   OH271127   1.336   0.950  12.125 -0.5809 -0.3173 -0.8985
16571TIP3    H171128   1.251   0.943  12.082 -0.3356 -0.9379 -1.2796
16571TIP3    H271129   1.317   0.995  12.208 -1.3288 -0.7291 -0.8436
16572TIP3   OH271130   2.834   1.567  16.594 -0.0836 -0.1046  0.3940
16572TIP3    H171131   2.886   1.605  16.665  0.2627  1.5795 -0.7208
16572TIP3    H271132   2.834   1.473  16.611 -0.0988  0.2879  2.6750
16573TIP3   OH271133   0.940   2.149   5.992 -0.3918  0.0645 -0.4701
16573TIP3    H171134   0.900   2.213   5.934  1.9403  1.9252 -0.1128
16573TIP3    H271135   0.898   2.163   6.076  0.5879  1.6398 -0.2249
16574TIP3   OH271136   3.879   1.898  12.390 -0.0106  0.7250 -0.2358
16574TIP3    H171137   3.948   1.833  12.409 -0.3387  0.6029  0.5408
16574TIP3    H271138   3.927   1.975  12.359  0.3208 -0.2728 -2.2637
16575TIP3   OH271139   0.111   4.323  16.782 -0.7070 -0.2494  0.1876
16575TIP3    H171140   0.045   4.313  16.714 -1.6696  0.3111  1.0195
16575TIP3    H271141   0.075   4.277  16.858  0.2997 -0.7708  0.3613
16576TIP3   OH271142   3.886   5.510   4.355 -0.1357  0.0908  0.2705
16576TIP3    H171143   3.977   5.513   4.327 -0.7320  1.6140 -1.7079
16576TIP3    H271144   3.887   5.540   4.446  1.1341  2.2290 -0.4116
16577TIP3   OH271145   5.167   3.781   2.040  0.0952  0.2123  0.2314
16577TIP3    H171146   5.188   3.870   2.068 -2.9627  0.8941  0.4842
16577TIP3    H271147   5.239   3.727   2.076  1.4939  2.4170  0.8439
16578TIP3   OH271148   1.766   5.495  14.143 -0.1731 -0.1726 -0.4231
16578TIP3    H171149   1.700   5.460  14.203 -0.5647 -0.0589 -0.7807
16578TIP3    H271150   1.804   5.417  14.101 -1.2470 -0.1777 -1.4307
16579TIP3   OH271151   5.255   6.602   3.550 -0.1617 -0.4590 -0.4914
16579TIP3    H171152   5.223   6.663   3.616 -0.7338 -1.1400 -0.1324
16579TIP3    H271153   5.293   6.530   3.601 -0.4777 -0.9158 -0.8960
16580TIP3   OH271154   1.877   2.679  16.385 -0.3486 -0.3057  0.1598
16580TIP3    H171155   1.847   2.634  16.306  0.8279 -1.2812  0.2627
16580TIP3    H271156   1.801   2.678  16.443 -1.2143  0.3955 -0.9315
16581TIP3   OH271157   0.648   6.538   3.888 -0.4116 -0.2729  0.1846
16581TIP3    H171158   0.561   6.551   3.926 -0.3196  0.5328  0.1364
16581TIP3    H271159   0.679   6.457   3.927  0.1027  1.0381  2.6554
16582TIP3   OH271160   6.286   2.390   4.915 -0.1072 -0.1460  0.1152
16582TIP3    H171161   6.338   2.468   4.935  0.2914 -0.6800  1.1910
16582TIP3    H271162   6.198   2.410   4.947 -0.6592  0.8365 -1.8796
16583TIP3   OH271163   4.878   3.187   2.659  0.0973 -0.8486 -0.3300
16583TIP3    H171164   4.923   3.156   2.737  1.5323  1.8610  0.0000
16583TIP3    H271165   4.873   3.111   2.602 -1.5291 -3.0606  2.6075
16584TIP3   OH271166   2.824   4.689   3.060  0.0982 -0.0953 -0.4689
16584TIP3    H171167   2.918   4.687   3.043  0.5622 -1.5898  1.9602
16584TIP3    H271168   2.812   4.631   3.135 -2.4738  1.7147  0.6191
16585TIP3   OH271169   3.223   4.296   2.157  0.0098  0.3955 -0.0773
16585TIP3    H171170   3.209   4.207   2.126  0.3616  0.6371 -0.9443
16585TIP3    H271171   3.135   4.326   2.182 -0.3455  0.3301 -1.2183
16586TIP3   OH271172   4.707   3.094  17.105  0.2451 -0.2240 -0.0849
16586TIP3    H171173   4.729   3.031  17.036 -0.0329 -0.7758  0.3239
16586TIP3    H271174   4.739   3.178  17.072  0.4839 -0.5531 -0.7029
16587TIP3   OH271175   5.783   1.540   0.047  0.2711  0.3550  0.4690
16587TIP3    H171176   5.817   1.545   0.137  0.7759  0.9196  0.2508
16587TIP3    H271177   5.726   1.618   0.039  1.2637  1.0251 -0.1239
16588TIP3   OH271178   5.680   6.231   1.649 -0.1318  0.1676  0.0575
16588TIP3    H171179   5.768   6.268   1.636 -0.2608  0.0859 -1.0920
16588TIP3    H271180   5.621   6.297   1.613 -0.4921 -0.1487  0.0667
16589TIP3   OH271181   3.528   4.701  15.572  0.0977 -0.3072 -0.2439
16589TIP3    H171182   3.466   4.771  15.553  0.6665  0.2308 -0.1216
16589TIP3    H271183   3.613   4.745  15.577  0.4090 -0.9565  0.1572
16590TIP3   OH271184   5.683   2.831   0.178 -0.1771 -0.3425  0.2584
16590TIP3    H171185   5.608   2.856   0.232  0.3038  2.0320 -0.0839
16590TIP3    H271186   5.646   2.775   0.110 -1.5400  0.2453  0.4854
16591TIP3   OH271187   0.202   3.703   6.229 -0.0122  0.4322 -0.5955
16591TIP3    H171188   0.279   3.757   6.208 -0.0523  0.1849 -1.3822
16591TIP3    H271189   0.218   3.673   6.319  0.8894  0.2408 -0.8168
16592TIP3   OH271190   1.102   3.832  17.006  0.1595  0.0598 -0.0734
16592TIP3    H171191   1.075   3.875  16.924 -0.5959  0.0390  0.1602
16592TIP3    H271192   1.082   3.897  17.074 -0.3348 -0.3894  0.2114
16593TIP3   OH271193   4.389   0.883  16.615  0.2311 -0.2731 -0.1418
16593TIP3    H171194   4.311   0.832  16.595 -0.6129  0.5632  0.9460
16593TIP3    H271195   4.459   0.840  16.566 -0.7946 -1.3857 -0.6594
16594TIP3   OH271196   0.118   6.209   6.285 -0.0941  0.3974  0.3982
16594TIP3    H171197   0.140   6.291   6.329 -1.2952  0.2465  1.3043
16594TIP3    H271198   0.078   6.154   6.353 -0.3469 -0.5107 -0.4564
16595TIP3   OH271199   0.204   2.771  11.425 -0.4505 -0.4805  0.5226
16595TIP3    H171200   0.151   2.711  11.372 -0.4316 -0.0746  0.0351
16595TIP3    H271201   0.286   2.724  11.439 -0.9062 -1.0752  1.2051
16596TIP3   OH271202   3.481   5.365  16.180 -0.1959 -0.9234  0.0297
16596TIP3    H171203   3.483   5.276  16.146  1.7910 -0.7144 -0.4650
16596TIP3    H271204   3.524   5.418  16.113  1.7067 -0.1516  1.7891
16597TIP3   OH271205   4.130   2.953   1.736  0.3189  0.2958 -0.3143
16597TIP3    H171206   4.194   2.956   1.665  0.0317 -0.2308 -0.5951
16597TIP3    H271207   4.051   2.994   1.701  1.1275  2.8584  0.7028
16598TIP3   OH271208   3.074   6.138   2.835  0.3802  0.1107 -0.1798
16598TIP3    H171209   3.014   6.158   2.907  1.2616  2.1059  0.0159
16598TIP3    H271210   3.027   6.166   2.757  1.0672  1.7140 -0.0226
16599TIP3   OH271211   6.086   4.278   0.852 -0.7494 -0.7504  0.2753
16599TIP3    H171212   6.135   4.359   0.837 -2.3675  0.0221 -1.0084
16599TIP3    H271213   6.124   4.216   0.790 -1.2418 -0.2027 -0.5942
16600TIP3   OH271214   1.565   0.369  11.742  0.2096 -0.0259 -0.5421
16600TIP3    H171215   1.649   0.353  11.784  0.7193 -0.0919 -1.5793
16600TIP3    H271216   1.529   0.445  11.788 -0.5822 -1.8630  1.9666
16601TIP3   OH271217   2.313   6.610   5.362  0.8483  0.2070  0.4385
16601TIP3    H171218   2.365   6.658   5.426  2.1846 -2.5648  1.5505
16601TIP3    H271219   2.226   6.603   5.401  1.1009  0.2825  1.0203
16602TIP3   OH271220   0.405   3.308  14.281  0.0972 -0.3086  0.1357
16602TIP3    H171221   0.365   3.261  14.354  2.4567 -3.1386 -0.3146
16602TIP3    H271222   0.364   3.395  14.284 -2.5648 -1.5379  2.5186
16603TIP3   OH271223   6.703   0.691   3.555 -0.0723  0.1127 -0.7924
16603TIP3    H171224   6.737   0.621   3.500 -0.8193 -0.4187 -0.5860
16603TIP3    H271225   6.689   0.650   3.641  0.3718  0.7473 -0.4071
16604TIP3   OH271226   2.596   0.659   1.854  0.2964  0.3983  0.1215
16604TIP3    H171227   2.582   0.566   1.874  2.9627 -0.2395 -0.7710
16604TIP3    H271228   2.591   0.664   1.759  1.5708  0.8800  0.0671
16605TIP3   OH271229   1.802   0.987  12.026 -0.0442  0.1399 -0.0826
16605TIP3    H171230   1.723   0.935  12.040  0.7480 -1.4251 -1.1733
16605TIP3    H271231   1.874   0.925  12.041  0.9351  1.0777 -0.8039
16606TIP3   OH271232   4.021   3.581  12.267  0.6053 -0.4550 -0.0229
16606TIP3    H171233   4.038   3.588  12.173  3.8885 -0.3151  0.5035
16606TIP3    H271234   3.960   3.508  12.276  1.0996 -1.1586 -2.1938
16607TIP3   OH271235   4.715   4.972   1.521  0.5567 -0.1315 -0.2445
16607TIP3    H171236   4.701   4.998   1.612  1.1754  0.2861 -0.2662
16607TIP3    H271237   4.660   4.895   1.510  0.5783 -0.2666  0.5248
16608TIP3   OH271238   1.970   2.609   3.978 -0.0054  0.6872 -0.3819
16608TIP3    H171239   1.980   2.521   4.013 -0.0512  1.2774  1.1384
16608TIP3    H271240   1.902   2.650   4.032  0.8533  2.0326 -0.2782
16609TIP3   OH271241   4.921   5.264   0.681  0.0776 -0.1812  0.4063
16609TIP3    H171242   4.853   5.202   0.710  0.2433 -1.2705 -1.4721
16609TIP3    H271243   5.003   5.225   0.713 -0.0022  0.1645  1.0439
16610TIP3   OH271244   1.409   0.347   2.627 -0.0850  0.1670 -0.1593
16610TIP3    H171245   1.465   0.291   2.572 -0.9339  0.7471 -1.6551
16610TIP3    H271246   1.467   0.417   2.657  0.1845  0.3781 -1.1346
16611TIP3   OH271247   6.603   5.990  17.204  0.0894 -0.6254 -0.7526
16611TIP3    H171248   6.521   6.013  17.247  0.6288  1.1993 -0.6539
16611TIP3    H271249   6.666   5.984  17.276  0.8425  1.7687 -1.1500
16612TIP3   OH271250   6.074   0.422  17.185  0.6204 -0.0320  0.4785
16612TIP3    H171251   6.103   0.409  17.275  1.3310 -0.9443  0.1263
16612TIP3    H271252   6.155   0.429  17.134  0.2576  2.8050  0.2155
16613TIP3   OH271253   5.899   2.375  17.155 -0.2726 -1.4999  0.0931
16613TIP3    H171254   5.812   2.396  17.188  0.1488 -1.7324  1.3736
16613TIP3    H271255   5.902   2.414  17.068 -1.4595 -1.0206  0.2649
16614TIP3   OH271256   6.440   6.599  14.321 -0.6043 -0.2484  0.4107
16614TIP3    H171257   6.413   6.509  14.300 -0.1626 -0.3086  0.0974
16614TIP3    H271258   6.509   6.588  14.387  0.2696 -0.1877 -0.4847
16615TIP3   OH271259   4.530   2.468   4.149  0.1423 -0.6054  0.2026
16615TIP3    H171260   4.527   2.525   4.225 -1.1293  0.5942 -0.7130
16615TIP3    H271261   4.464   2.505   4.089  1.9865 -0.7396 -1.9900
16616TIP3   OH271262   3.654   4.352   2.278  0.4416  0.0899  0.3118
16616TIP3    H171263   3.607   4.278   2.239  0.7511 -0.9015  1.7732
16616TIP3    H271264   3.730   4.312   2.321  0.6276  1.2698  1.0941
16617TIP3   OH271265   3.262   1.670  16.685  0.1934  0.0733 -0.0955
16617TIP3    H171266   3.318   1.715  16.749 -1.5006  0.8675  0.8611
16617TIP3    H271267   3.227   1.595  16.732  1.2115 -0.9782 -0.9959
16618TIP3   OH271268   5.415   6.078   0.952  0.1032  0.3764 -0.3349
16618TIP3    H171269   5.357   6.059   1.027  0.7390  1.6246  0.4948
16618TIP3    H271270   5.478   6.007   0.952 -0.6132 -0.2693 -0.4149
16619TIP3   OH271271   3.378   4.218   0.393  0.5427 -0.2930 -0.2129
16619TIP3    H171272   3.309   4.284   0.406  0.3484  0.1100 -2.9154
16619TIP3    H271273   3.334   4.146   0.348  1.5579 -0.6392 -0.6761
16620TIP3   OH271274   2.100   3.564  12.689 -0.1005 -0.4864 -0.2561
16620TIP3    H171275   2.135   3.526  12.769 -2.6166 -0.8317  0.7491
16620TIP3    H271276   2.154   3.528  12.619  2.0121 -0.3200  1.2537
16621TIP3   OH271277   2.261   5.244  15.927  0.0585 -0.1522 -0.0385
16621TIP3    H171278   2.202   5.175  15.955 -0.5592  0.6475  0.6659
16621TIP3    H271279   2.310   5.267  16.007 -1.1703  1.6129  0.2278
16622TIP3   OH271280   6.545   1.900  16.385 -0.6493  0.2389 -0.1364
16622TIP3    H171281   6.616   1.950  16.346 -2.0385  0.8889 -1.8910
16622TIP3    H271282   6.547   1.924  16.478  2.1826 -0.7156  0.1069
16623TIP3   OH271283   5.796   3.604  12.991  0.6297 -0.3133 -0.0475
16623TIP3    H171284   5.762   3.541  13.055  0.2204  0.1447  0.1935
16623TIP3    H271285   5.824   3.551  12.917 -1.7626 -0.6384 -0.7824
16624TIP3   OH271286   4.131   6.546   2.784 -0.0759 -0.2388 -0.0949
16624TIP3    H171287   4.090   6.576   2.703 -0.5334 -1.9511 -0.5357
16624TIP3    H271288   4.090   6.598   2.853 -2.0244 -0.9749 -0.6598
16625TIP3   OH271289   2.836   0.936   5.296 -0.1502 -0.1397  0.2525
16625TIP3    H171290   2.765   0.990   5.330  0.3634 -0.2165  1.4739
16625TIP3    H271291   2.799   0.849   5.286 -0.4207 -0.0198  0.2105
16626TIP3   OH271292   1.323   4.482  14.620  0.1703  0.0641  0.1284
16626TIP3    H171293   1.243   4.436  14.595 -1.2283  0.9995  2.6836
16626TIP3    H271294   1.343   4.538  14.545 -1.6431 -0.0734 -0.4810
16627TIP3   OH271295   2.357   2.903   5.299 -0.7703 -0.2421  0.2745
16627TIP3    H171296   2.449   2.910   5.324 -0.3207 -0.5413 -1.2567
16627TIP3    H271297   2.356   2.918   5.205 -2.4268  0.7925  0.4408
16628TIP3   OH271298   0.442   6.255  15.195 -0.0626 -0.0311  0.3712
16628TIP3    H171299   0.484   6.171  15.213  0.9245  0.2146 -0.7644
16628TIP3    H271300   0.358   6.250  15.241  1.2934 -0.4192  2.9032
16629TIP3   OH271301   4.292   1.358  14.854  0.1861 -0.2397  0.0431
16629TIP3    H171302   4.224   1.389  14.914 -1.0824 -0.6748 -1.1530
16629TIP3    H271303   4.371   1.406  14.880 -0.0279 -1.3083  2.8453
16630TIP3   OH271304   5.493   4.228  16.284 -0.7904  0.0730  0.9145
16630TIP3    H171305   5.575   4.241  16.332 -0.3870 -0.9923  0.5164
16630TIP3    H271306   5.425   4.241  16.350 -0.3016  1.0015  1.2353
16631TIP3   OH271307   0.908   6.750  15.953  0.1939 -0.1805  0.1447
16631TIP3    H171308   0.952   6.671  15.983 -0.7541  0.1977  2.6422
16631TIP3    H271309   0.817   6.722  15.939 -0.6864  0.9819  3.3491
16632TIP3   OH271310   4.077   4.670   0.105  0.0397 -0.3304  0.4850
16632TIP3    H171311   4.045   4.589   0.065  0.9021 -0.5318  0.1836
16632TIP3    H271312   4.104   4.645   0.193  1.6396 -0.6724 -0.0978
16633TIP3   OH271313   1.408   0.652  15.845  0.3234  0.3442  0.4882
16633TIP3    H171314   1.368   0.648  15.932 -2.0937 -0.0016 -0.6095
16633TIP3    H271315   1.430   0.744  15.832 -0.8168  0.6705  0.8204
16634TIP3   OH271316   4.942   5.377  10.854  1.0398 -0.1531 -0.0141
16634TIP3    H171317   4.897   5.405  10.774  0.2002  1.3684  0.9533
16634TIP3    H271318   5.030   5.412  10.845  0.1838  2.3449  0.8866
16635TIP3   OH271319   0.282   1.128   2.966 -0.0082  0.1420  0.6329
16635TIP3    H171320   0.338   1.050   2.960  0.2867  0.2712  1.7140
16635TIP3    H271321   0.340   1.201   2.945 -0.6523 -0.0387 -2.0273
16636TIP3   OH271322   3.393   6.370   3.821  0.0698 -0.9443 -0.7017
16636TIP3    H171323   3.402   6.296   3.762 -1.0877 -1.7740  0.1578
16636TIP3    H271324   3.355   6.334   3.901  1.4413  0.1906  0.5120
16637TIP3   OH271325   6.136   2.549  11.414 -0.2909  0.5825 -0.5394
16637TIP3    H171326   6.091   2.634  11.416 -0.3645  0.5432 -0.5305
16637TIP3    H271327   6.195   2.556  11.338  0.1792  0.8816 -0.1473
16638TIP3   OH271328   3.193   3.471  15.559 -0.1684 -0.0953  0.2813
16638TIP3    H171329   3.151   3.401  15.609  0.7716 -1.9984 -1.5019
16638TIP3    H271330   3.277   3.486  15.602  0.0466 -0.7587  0.0904
16639TIP3   OH271331   5.729   5.431   1.207 -0.3456 -0.2947 -0.5973
16639TIP3    H171332   5.732   5.338   1.227 -0.7628 -0.5519 -1.7214
16639TIP3    H271333   5.641   5.446   1.171 -0.7682  0.7902  0.8263
16640TIP3   OH271334   4.118   3.219   5.297 -0.6879  1.0822 -0.1588
16640TIP3    H171335   4.164   3.271   5.362 -1.8983  0.4410  1.2479
16640TIP3    H271336   4.120   3.130   5.332 -0.4567  0.5374 -1.5116
16641TIP3   OH271337   3.613   1.793   2.301 -0.5866  0.9489  0.1723
16641TIP3    H171338   3.517   1.784   2.300 -0.4887 -0.4290  1.4122
16641TIP3    H271339   3.638   1.764   2.388  1.2633 -1.8377 -1.2266
16642TIP3   OH271340   5.096   1.591  15.804  0.2147 -0.0486 -0.1225
16642TIP3    H171341   5.090   1.531  15.730  0.2536 -1.6501  1.1578
16642TIP3    H271342   5.185   1.628  15.797 -0.6408  1.7310 -2.2958
16643TIP3   OH271343   2.742   0.306   3.135 -0.0664 -0.3145 -0.2187
16643TIP3    H171344   2.720   0.221   3.096 -1.1719 -0.6233  1.0548
16643TIP3    H271345   2.709   0.370   3.073 -0.1718 -0.8163 -0.6879
16644TIP3   OH271346   5.329   4.747   3.806 -0.2717 -0.4687  0.5202
16644TIP3    H171347   5.348   4.662   3.767  0.8869 -0.6183  1.3839
16644TIP3    H271348   5.266   4.728   3.876  0.4987 -0.7351  1.1606
16645TIP3   OH271349   2.252   6.728   0.398  0.2762 -0.0255  0.1777
16645TIP3    H171350   2.236   6.817   0.369 -1.3648 -0.4919 -0.3761
16645TIP3    H271351   2.244   6.731   0.493 -0.2446  0.3241  0.1213
16646TIP3   OH271352   5.593   5.621   3.043 -0.0753  0.0841 -0.2766
16646TIP3    H171353   5.577   5.527   3.049  0.2487 -0.0084 -0.8887
16646TIP3    H271354   5.529   5.660   3.102 -0.0696 -0.5350  0.1425
16647TIP3   OH271355   0.728   1.340  12.001 -0.2958 -0.7597  0.2200
16647TIP3    H171356   0.646   1.316  11.957 -0.2752  0.5883 -0.5570
16647TIP3    H271357   0.785   1.372  11.931 -0.2533  1.3826  1.2074
16648TIP3   OH271358   3.737   1.105   1.291  0.4995  0.1198 -0.0489
16648TIP3    H171359   3.757   1.011   1.295  0.0794 -0.0480 -1.5492
16648TIP3    H271360   3.680   1.120   1.366  1.9039 -0.4731  1.1808
16649TIP3   OH271361   1.570   0.865   2.698  0.3484  0.1626  0.2769
16649TIP3    H171362   1.619   0.805   2.641  0.5691 -0.8983  1.5712
16649TIP3    H271363   1.600   0.952   2.671 -1.0567 -0.2041 -2.6089
16650TIP3   OH271364   3.210   6.537  15.293  0.4688 -0.6077  0.4305
16650TIP3    H171365   3.278   6.605  15.297  1.7514 -1.9051  1.2910
16650TIP3    H271366   3.244   6.473  15.230 -0.6523 -0.5361 -0.2531
16651TIP3   OH271367   4.393   2.177  14.839 -0.6161  0.8390 -0.4728
16651TIP3    H171368   4.312   2.201  14.793 -1.4812  0.2476  0.7310
16651TIP3    H271369   4.364   2.146  14.924  0.7015 -1.5716 -0.8641
16652TIP3   OH271370   3.216   0.718   2.182 -0.5030  0.8372 -0.4472
16652TIP3    H171371   3.290   0.687   2.131  1.3272  0.8014  2.1122
16652TIP3    H271372   3.173   0.638   2.213 -1.1137  0.8648 -1.1993
16653TIP3   OH271373   3.017   3.351   1.500 -0.0480 -0.1876  0.5107
16653TIP3    H171374   3.095   3.402   1.475 -1.2152  1.7179  0.6508
16653TIP3    H271375   2.982   3.320   1.416  0.0875  0.1025  0.3441
16654TIP3   OH271376   1.162   4.491   4.078  0.0522  0.0944  0.1177
16654TIP3    H171377   1.215   4.434   4.133 -0.1369 -1.0292 -0.8416
16654TIP3    H271378   1.074   4.454   4.082  0.1722 -0.3879 -1.4493
16655TIP3   OH271379   6.072   1.897   0.957  0.7076  0.0429 -0.3101
16655TIP3    H171380   6.087   1.924   1.047  0.8552 -1.2275  0.0622
16655TIP3    H271381   6.137   1.828   0.942 -1.5418 -2.1660 -0.2557
16656TIP3   OH271382   2.624   6.477   1.279  0.0632  0.2562 -0.1949
16656TIP3    H171383   2.628   6.481   1.375 -2.1642 -1.8588  0.0572
16656TIP3    H271384   2.606   6.567   1.252 -0.7332  0.6319  1.5040
16657TIP3   OH271385   6.281   4.834   3.569  0.0111 -0.2572 -0.1970
16657TIP3    H171386   6.248   4.919   3.596  0.8941  0.2484 -0.6820
16657TIP3    H271387   6.223   4.806   3.499 -1.8540 -1.2474  1.6668
16658TIP3   OH271388   3.736   3.448  15.002 -0.1843  0.4581 -0.1942
16658TIP3    H171389   3.678   3.393  14.950  0.4432 -0.2102 -0.2068
16658TIP3    H271390   3.822   3.438  14.961  0.6523 -1.3292  1.8566
16659TIP3   OH271391   6.343   5.893  17.144 -0.3672  0.1982  0.7160
16659TIP3    H171392   6.384   5.893  17.231  2.6086 -0.8232 -0.6429
16659TIP3    H271393   6.336   5.801  17.121  1.3759  0.5207 -1.2540
16660TIP3   OH271394   6.670   0.592  10.768 -0.0022 -0.0923  0.1141
16660TIP3    H171395   6.663   0.656  10.838 -0.0161 -0.9275  0.8851
16660TIP3    H271396   6.747   0.540  10.790 -1.0511 -1.5113  0.4879
16661TIP3   OH271397   2.119   4.024   2.208  0.2602  0.1356  0.2966
16661TIP3    H171398   2.153   4.093   2.265  1.1225 -0.8174  0.9641
16661TIP3    H271399   2.132   4.058   2.120  0.1855  1.0491  0.6275
16662TIP3   OH271400   6.244   0.706  14.812 -0.5007  0.2994  0.3635
16662TIP3    H171401   6.257   0.740  14.724 -0.9419 -1.5614 -0.4167
16662TIP3    H271402   6.159   0.740  14.839 -0.8305  0.0133 -0.3191
16663TIP3   OH271403   5.516   5.167  14.544  0.3355  0.0895 -0.0406
16663TIP3    H171404   5.552   5.085  14.578  1.9407  1.2459  1.1383
16663TIP3    H271405   5.486   5.214  14.622 -0.9236  0.4677 -0.7367
16664TIP3   OH271406   0.703   6.713  15.712  0.2091 -0.0862 -0.1146
16664TIP3    H171407   0.656   6.796  15.701  0.1634  0.1836  2.0502
16664TIP3    H271408   0.635   6.647  15.714  0.0781  0.0668  0.5723
16665TIP3   OH271409   5.215   3.169   0.553  0.5008  0.2860  0.7613
16665TIP3    H171410   5.260   3.218   0.484 -0.3796  3.1612  2.1474
16665TIP3    H271411   5.264   3.187   0.632 -0.0231 -0.8892  1.3721
16666TIP3   OH271412   4.424   3.652  11.400  0.0518 -0.1896  0.4070
16666TIP3    H171413   4.434   3.747  11.406  2.3719 -0.4694  1.4572
16666TIP3    H271414   4.405   3.635  11.308  2.0509  1.1050 -0.2625
16667TIP3   OH271415   3.677   2.186   5.132 -0.5472 -0.3075 -0.4917
16667TIP3    H171416   3.658   2.145   5.048 -0.9638 -0.6763 -0.2198
16667TIP3    H271417   3.600   2.167   5.186  1.1074 -3.0370  1.0844
16668TIP3   OH271418   3.382   2.143  14.698 -0.1681  0.2514  0.1215
16668TIP3    H171419   3.358   2.053  14.677 -0.1182  0.0517  0.9136
16668TIP3    H271420   3.299   2.187  14.716 -0.0634 -0.0816  1.4573
16669TIP3   OH271421   6.393   2.362   3.135  0.0391  0.5443 -0.1167
16669TIP3    H171422   6.420   2.270   3.129  0.3110  0.6673 -0.8249
16669TIP3    H271423   6.424   2.401   3.054 -2.2662  0.6915 -0.9840
16670TIP3   OH271424   2.347   4.836   2.405  0.4846 -0.2024  0.7301
16670TIP3    H171425   2.257   4.806   2.413  0.3770  0.5129  2.2443
16670TIP3    H271426   2.357   4.902   2.473  1.3015  1.8003 -1.2814
16671TIP3   OH271427   2.741   5.362   2.923 -0.6060  0.0789 -0.4777
16671TIP3    H171428   2.835   5.376   2.912 -0.4840 -0.8298 -0.5519
16671TIP3    H271429   2.718   5.295   2.858 -1.6471  1.6214 -1.7645
16672TIP3   OH271430   1.734   4.290  12.049 -0.0471  0.0385 -0.3441
16672TIP3    H171431   1.668   4.358  12.037  0.3424  0.5102  0.1227
16672TIP3    H271432   1.715   4.225  11.982 -0.0003  0.9487 -1.2446
16673TIP3   OH271433   2.152   1.534  16.852  0.4964  0.1316 -0.3431
16673TIP3    H171434   2.200   1.613  16.878 -0.4643  0.1372  1.4952
16673TIP3    H271435   2.091   1.564  16.786 -0.3562  1.0968  0.8533
16674TIP3   OH271436   0.440   5.789  11.887 -0.0178 -0.4343 -1.2424
16674TIP3    H171437   0.443   5.718  11.822 -0.7123 -1.4844 -0.1380
16674TIP3    H271438   0.461   5.746  11.970 -5.8088 -0.4495  0.3650
16675TIP3   OH271439   4.368   1.966   0.369 -0.9315 -0.0310 -0.1459
16675TIP3    H171440   4.351   2.054   0.401 -0.5691  0.2615 -0.7582
16675TIP3    H271441   4.321   1.909   0.431 -1.3928  0.5962  0.0907
16676TIP3   OH271442   5.587   0.047  12.235  0.9025 -0.7037  0.3760
16676TIP3    H171443   5.599  -0.029  12.179  1.0872 -2.1536  2.3457
16676TIP3    H271444   5.539   0.015  12.311  1.9395  0.8845  1.7591
16677TIP3   OH271445   2.003   2.311   1.841  0.3568 -0.5831 -0.3993
16677TIP3    H171446   1.916   2.341   1.866  0.9030  1.4960 -0.8253
16677TIP3    H271447   2.054   2.315   1.921 -0.2630 -3.1037  0.1380
16678TIP3   OH271448   0.040   2.301   3.251  0.7609  0.3900 -0.7960
16678TIP3    H171449   0.035   2.373   3.314 -0.3445 -0.2599 -0.1223
16678TIP3    H271450   0.134   2.294   3.230  0.9639  1.5180 -0.2851
16679TIP3   OH271451   2.523   1.284  12.482 -0.3209 -0.3181 -0.8661
16679TIP3    H171452   2.452   1.346  12.497  2.9210  3.7400 -1.5036
16679TIP3    H271453   2.537   1.284  12.388 -0.4040 -2.2688 -0.9137
16680TIP3   OH271454   5.966   2.837   3.369 -0.4580 -0.1469 -0.1263
16680TIP3    H171455   5.905   2.891   3.320 -0.3928 -0.2992 -0.3791
16680TIP3    H271456   6.031   2.899   3.404 -0.5414 -0.0315 -0.1780
16681TIP3   OH271457   5.536   5.926  12.335  0.3005  0.3233 -0.4152
16681TIP3    H171458   5.560   5.836  12.313  0.5786  0.1646  0.4832
16681TIP3    H271459   5.441   5.924  12.345  0.1615  0.4314 -1.7184
16682TIP3   OH271460   6.315   3.249  14.718 -0.2582  0.1773  0.0699
16682TIP3    H171461   6.224   3.252  14.688 -0.1227 -1.0415 -0.4661
16682TIP3    H271462   6.308   3.243  14.814 -0.7344  0.0098  0.0233
16683TIP3   OH271463   3.497   4.090  11.121  0.2350  0.0549  0.3027
16683TIP3    H171464   3.570   4.053  11.071 -1.6126 -4.2152  0.5231
16683TIP3    H271465   3.525   4.083  11.213  0.0705 -0.3313  0.3231
16684TIP3   OH271466   6.728   3.348   3.976  0.4700  0.7935 -0.0678
16684TIP3    H171467   6.726   3.441   3.995  0.8227  0.9586 -0.8347
16684TIP3    H271468   6.806   3.316   4.023 -0.8011  0.4991  1.8897
16685TIP3   OH271469   3.053   0.837  10.839  0.0591 -0.2074 -0.3278
16685TIP3    H171470   3.098   0.778  10.778 -0.3387 -0.6396 -0.2022
16685TIP3    H271471   3.120   0.858  10.905 -0.5619 -2.7434  1.1893
16686TIP3   OH271472   6.196   4.770  15.540  0.2841  0.4097 -0.1201
16686TIP3    H171473   6.116   4.724  15.516  0.6783  0.0472 -0.7580
16686TIP3    H271474   6.192   4.853  15.493  0.3157  0.3590 -0.2134
16687TIP3   OH271475   5.513   3.950   0.146  0.0761 -0.1427  0.2391
16687TIP3    H171476   5.433   4.002   0.146  0.1739  0.0160  1.6336
16687TIP3    H271477   5.499   3.884   0.213  0.4265 -1.2094 -0.7229
16688TIP3   OH271478   4.569   3.595  15.217 -0.4048 -0.1626  0.2509
16688TIP3    H171479   4.634   3.584  15.287  0.1172  0.6322 -0.1031
16688TIP3    H271480   4.524   3.677  15.239  0.8577  0.9570 -1.2052
16689TIP3   OH271481   1.138   4.266  13.412 -0.7384 -0.3201 -0.3105
16689TIP3    H171482   1.190   4.344  13.431 -2.2019  0.3899  0.8941
16689TIP3    H271483   1.110   4.276  13.321  1.1321 -0.6669 -0.9398
16690TIP3   OH271484   3.278   5.778   3.801 -0.2309  0.3980 -0.0550
16690TIP3    H171485   3.239   5.718   3.865  0.7717  0.1819  0.3511
16690TIP3    H271486   3.356   5.732   3.769  1.8001  2.4183  1.8883
16691TIP3   OH271487   4.884   5.336   1.236  0.0952  0.3679  0.2670
16691TIP3    H171488   4.898   5.280   1.313  0.9593  0.2197  0.0057
16691TIP3    H271489   4.930   5.291   1.165  2.2560  2.2703  0.4232
16692TIP3   OH271490   4.484   1.527  14.381 -0.5809 -0.5050  0.0612
16692TIP3    H171491   4.520   1.452  14.333  0.3648 -0.2032  0.2705
16692TIP3    H271492   4.416   1.490  14.436 -0.2591 -1.1787  0.0130
16693TIP3   OH271493   5.871   2.852  12.506 -0.2103 -0.2538 -0.1376
16693TIP3    H171494   5.833   2.825  12.422  0.5908 -0.6029 -0.4031
16693TIP3    H271495   5.815   2.811  12.572 -0.7643 -0.0934 -0.5024
16694TIP3   OH271496   6.052   2.145   0.481 -0.0214 -0.2170  0.5309
16694TIP3    H171497   6.067   2.130   0.575 -0.3021 -2.0381  0.3032
16694TIP3    H271498   6.132   2.187   0.450  0.7943 -1.2263  1.2438
16695TIP3   OH271499   5.051   5.678   6.194  0.1187 -0.0005  0.3794
16695TIP3    H171500   5.041   5.583   6.190 -0.8442  0.1004  0.2247
16695TIP3    H271501   4.989   5.706   6.262  0.5163  0.4950  0.5411
16696TIP3   OH271502   6.340   0.750   4.811  0.3666  0.3406 -0.4956
16696TIP3    H171503   6.264   0.799   4.844 -1.0675 -0.9878 -1.7785
16696TIP3    H271504   6.338   0.668   4.860 -0.0211 -0.3991 -1.7442
16697TIP3   OH271505   3.874   6.217  14.784 -0.5221  0.9764 -0.2390
16697TIP3    H171506   3.940   6.260  14.838 -0.2297  0.4302 -0.1590
16697TIP3    H271507   3.860   6.132  14.826 -0.6562  0.7486 -0.7398
16698TIP3   OH271508   2.399   4.870   1.469 -0.2377  0.2078  0.2509
16698TIP3    H171509   2.402   4.873   1.565 -1.1185 -0.9590  0.3261
16698TIP3    H271510   2.376   4.959   1.443  2.0013  1.0254  1.0302
16699TIP3   OH271511   1.958   3.842   5.319 -0.1417  0.3490  0.2215
16699TIP3    H171512   2.031   3.840   5.258  1.8297 -0.3663  2.4974
16699TIP3    H271513   1.924   3.931   5.315  0.9533  0.7219 -0.7668
16700TIP3   OH271514   3.254   4.752  17.219 -0.3065 -0.4393  0.2985
16700TIP3    H171515   3.171   4.741  17.267 -0.7076 -1.0405 -0.5312
16700TIP3    H271516   3.321   4.745  17.287 -0.9128 -0.3298  0.9215
16701TIP3   OH271517   4.767   4.565  13.082  0.2955 -0.1264 -0.4250
16701TIP3    H171518   4.819   4.630  13.035 -1.4287 -0.6928 -3.2140
16701TIP3    H271519   4.801   4.481  13.053  1.3589 -0.5155  1.8523
16702TIP3   OH271520   1.607   0.574   5.783  0.2033  0.4942  0.5234
16702TIP3    H171521   1.616   0.655   5.734 -1.3314  0.1740 -0.3165
16702TIP3    H271522   1.513   0.556   5.783  0.6580 -2.1228 -0.6941
16703TIP3   OH271523   4.008   3.287   5.965  0.3493 -0.2408  0.3828
16703TIP3    H171524   3.946   3.296   6.037  1.2568 -1.2416  1.3172
16703TIP3    H271525   4.007   3.193   5.944 -1.3766  0.3332 -2.2551
16704TIP3   OH271526   0.811   4.688   1.114  0.4457  0.1849 -0.1596
16704TIP3    H171527   0.791   4.633   1.038 -0.0210  0.1023  0.0174
16704TIP3    H271528   0.744   4.756   1.112  1.0441  0.7697 -0.3966
16705TIP3   OH271529   6.001   0.802  13.163  0.2528  0.1721  0.7799
16705TIP3    H171530   6.005   0.763  13.076  0.3537 -0.9143  1.2615
16705TIP3    H271531   5.909   0.824  13.175  0.4202  1.3425 -0.0403
16706TIP3   OH271532   6.210   4.654   1.467  0.0325  0.0827  0.1217
16706TIP3    H171533   6.121   4.690   1.465 -0.4827 -1.0558  1.3330
16706TIP3    H271534   6.219   4.619   1.555  0.0506 -3.7547 -1.2997
16707TIP3   OH271535   5.185   5.102  14.676  0.0727  0.5492  0.5140
16707TIP3    H171536   5.104   5.108  14.726 -1.6681  0.1787 -2.1257
16707TIP3    H271537   5.159   5.125  14.586  1.8960 -4.1216 -1.3573
16708TIP3   OH271538   0.334   1.476  15.377 -0.1859  0.3133  0.3684
16708TIP3    H171539   0.260   1.416  15.376  0.3155 -0.3123 -0.5176
16708TIP3    H271540   0.322   1.530  15.298  0.8548 -0.5030 -0.3699
16709TIP3   OH271541   5.875   0.978   2.509 -0.1416 -0.1743  0.0240
16709TIP3    H171542   5.947   1.041   2.513  0.4337 -0.7464 -1.2062
16709TIP3    H271543   5.876   0.935   2.595 -0.1037  0.9936  0.6243
16710TIP3   OH271544   3.250   1.984   1.916  0.0554  0.5694 -0.3489
16710TIP3    H171545   3.251   2.059   1.975 -0.1917  0.8258 -0.6650
16710TIP3    H271546   3.235   2.022   1.829  0.4713  0.2052 -0.5873
16711TIP3   OH271547   0.341   4.901   2.788 -0.4586  0.0805  0.2791
16711TIP3    H171548   0.382   4.870   2.707 -0.5592  2.5140 -0.7434
16711TIP3    H271549   0.413   4.939   2.838 -0.3298 -1.7591  1.5426
16712TIP3   OH271550   1.700   0.206   5.441  0.0005  0.2650  0.0174
16712TIP3    H171551   1.682   0.129   5.496 -0.8825 -0.0923 -0.7422
16712TIP3    H271552   1.793   0.200   5.421 -0.2283 -1.0593 -0.6925
16713TIP3   OH271553   3.908   0.554  13.886  0.3915  0.5567 -0.0595
16713TIP3    H171554   3.940   0.636  13.848  2.6551  0.8001  2.2434
16713TIP3    H271555   3.984   0.497  13.888 -0.4651 -0.5683  1.1173
16714TIP3   OH271556   1.208   0.728  11.940 -0.1706 -0.0296  0.8236
16714TIP3    H171557   1.233   0.802  11.885 -0.3175 -0.5540  0.0425
16714TIP3    H271558   1.184   0.659  11.878 -0.2569 -0.6560  1.5452
16715TIP3   OH271559   1.786   3.749  14.857 -0.8379  0.1312 -0.5096
16715TIP3    H171560   1.859   3.800  14.822 -1.0547 -0.1709 -1.4130
16715TIP3    H271561   1.734   3.812  14.907  0.2594  0.2704  0.5115
16716TIP3   OH271562   4.935   1.647   3.768  0.2632  0.3567  0.6199
16716TIP3    H171563   4.990   1.688   3.834 -0.6407  0.5537  1.2555
16716TIP3    H271564   4.891   1.575   3.814  0.0013  0.1921  0.1192
16717TIP3   OH271565   4.528   0.922   3.499  0.1589 -0.1276 -0.3693
16717TIP3    H171566   4.445   0.874   3.493  0.9365 -1.4008 -1.3009
16717TIP3    H271567   4.556   0.909   3.590 -0.6055  0.2356 -0.0733
16718TIP3   OH271568   0.944   5.973   5.074  0.2775  0.3809  0.4266
16718TIP3    H171569   0.885   6.000   5.144  0.6888  0.5735  0.7051
16718TIP3    H271570   1.028   6.011   5.098  0.2654  1.0652 -0.5388
16719TIP3   OH271571   4.982   2.520  10.981 -0.5699  0.6142  0.3326
16719TIP3    H171572   4.930   2.444  10.955 -0.2852  0.4140  0.3509
16719TIP3    H271573   4.929   2.596  10.955 -0.5754  0.4133 -0.2353
16720TIP3   OH271574   1.987   5.453   6.594  0.1357  0.2806  0.1560
16720TIP3    H171575   2.021   5.364   6.598 -0.4289 -0.0096 -1.0286
16720TIP3    H271576   2.063   5.509   6.606  0.5003 -0.3612  0.8593
16721TIP3   OH271577   6.784   6.659  16.868  0.1416  0.0598 -0.2050
16721TIP3    H171578   6.839   6.629  16.795 -0.6949 -1.5663 -0.1836
16721TIP3    H271579   6.718   6.715  16.827  0.1056 -0.2798 -0.6188
16722TIP3   OH271580   0.785   6.443   3.529  0.3257 -0.2407 -0.2024
16722TIP3    H171581   0.708   6.449   3.585  0.8290  0.5101  0.4087
16722TIP3    H271582   0.845   6.510   3.562  1.2974 -0.9021 -0.5934
16723TIP3   OH271583   1.225   3.429   5.870 -0.8257  0.3086  0.3033
16723TIP3    H171584   1.219   3.525   5.874  0.8898  0.4471 -0.0371
16723TIP3    H271585   1.266   3.404   5.953 -1.2302 -0.1254  0.3720
16724TIP3   OH271586   3.146   6.609   0.781 -0.0464 -0.1263 -0.4106
16724TIP3    H171587   3.135   6.678   0.715 -1.4028  0.4505  0.3851
16724TIP3    H271588   3.067   6.555   0.772  0.1309 -0.4954  0.2048
16725TIP3   OH271589   4.193   1.963   3.192  0.1009 -0.0038  0.2338
16725TIP3    H171590   4.215   2.053   3.167  1.0354  0.1697  1.6415
16725TIP3    H271591   4.249   1.908   3.137 -1.6670  0.1814 -1.8510
16726TIP3   OH271592   2.751   4.680  16.769 -0.2095 -0.5860 -0.3069
16726TIP3    H171593   2.713   4.593  16.772 -0.2442 -0.6115 -1.3081
16726TIP3    H271594   2.809   4.679  16.692 -1.1973  0.6535 -1.0919
16727TIP3   OH271595   0.868   1.327   3.586  0.0121  0.3297 -0.0870
16727TIP3    H171596   0.951   1.328   3.635 -0.5713  0.0836  0.9220
16727TIP3    H271597   0.891   1.362   3.500  0.8586  1.6946  0.6771
16728TIP3   OH271598   1.231   4.054  13.047 -0.7056 -0.1549  0.0809
16728TIP3    H171599   1.286   4.053  13.125 -0.3347 -1.5927 -0.1848
16728TIP3    H271600   1.196   3.965  13.040 -2.5680  0.5618 -0.1166
16729TIP3   OH271601   0.765   3.180  15.706  0.2529  0.7125 -0.2027
16729TIP3    H171602   0.788   3.152  15.795  0.8458 -1.1782 -0.9254
16729TIP3    H271603   0.844   3.225  15.675  1.9143 -2.8092 -1.4479
16730TIP3   OH271604   5.311   0.632   4.873 -0.0646 -0.2517  0.3752
16730TIP3    H171605   5.245   0.587   4.926 -1.4315  1.0101 -0.2244
16730TIP3    H271606   5.373   0.667   4.936 -2.5108  2.5917  1.3257
16731TIP3   OH271607   3.309   3.191   3.336  0.3873 -0.2928 -0.0863
16731TIP3    H171608   3.286   3.277   3.372  3.2693  0.6544 -0.3952
16731TIP3    H271609   3.244   3.176   3.268  0.7370  2.3395 -1.0537
16732TIP3   OH271610   2.303   4.613   2.001 -0.3395  0.3892  0.7949
16732TIP3    H171611   2.293   4.690   2.057  1.2393  1.4354 -0.3120
16732TIP3    H271612   2.236   4.623   1.933 -0.7596  0.2882  1.1943
16733TIP3   OH271613   5.014   0.866  14.957 -0.2483 -0.4315  0.1356
16733TIP3    H171614   4.937   0.818  14.927  0.0404 -1.1423  0.5222
16733TIP3    H271615   4.979   0.934  15.015 -0.5214 -1.2314  0.9076
16734TIP3   OH271616   6.381   6.430   0.162 -0.0907 -0.1378  0.3484
16734TIP3    H171617   6.419   6.503   0.114  0.1870 -1.1222 -0.9643
16734TIP3    H271618   6.455   6.391   0.209  0.4649 -1.6960 -1.7415
16735TIP3   OH271619   2.028   3.095  12.427  0.0576 -0.1190 -0.0120
16735TIP3    H171620   2.112   3.052  12.408  0.6802  0.7831  0.6708
16735TIP3    H271621   1.974   3.025  12.465  0.4677 -0.7292 -0.5406
16736TIP3   OH271622   0.936   2.874  15.330  0.5375  0.0243 -0.2095
16736TIP3    H171623   1.005   2.850  15.268  0.2255  0.8485 -0.8808
16736TIP3    H271624   0.925   2.796  15.384  1.7268 -0.2501 -0.3434
16737TIP3   OH271625   5.597   4.716  12.389  0.2340 -0.7884 -0.6566
16737TIP3    H171626   5.660   4.691  12.457  1.0743  2.0257 -0.3552
16737TIP3    H271627   5.512   4.696  12.428  0.7436 -0.0432  0.9058
16738TIP3   OH271628   4.291   6.410  10.497 -0.6468  0.4554  0.8908
16738TIP3    H171629   4.233   6.341  10.530 -0.1005  0.2174  1.3651
16738TIP3    H271630   4.239   6.455  10.430 -1.4923  0.4570  1.5406
16739TIP3   OH271631   2.870   5.465   3.823 -0.9060  0.4909  0.2195
16739TIP3    H171632   2.799   5.490   3.764  0.3940  1.6888 -0.8534
16739TIP3    H271633   2.949   5.502   3.784  0.6097 -2.3466  0.4252
16740TIP3   OH271634   4.432   1.055  12.509 -0.5369 -0.2990  0.6885
16740TIP3    H171635   4.477   1.002  12.574 -1.2346 -1.1256  0.5052
16740TIP3    H271636   4.356   1.091  12.556  0.6524  1.6295  1.1841
16741TIP3   OH271637   6.199   3.468  14.961 -0.5955  0.4040  0.6584
16741TIP3    H171638   6.225   3.502  14.875  2.3648  0.4373  1.5246
16741TIP3    H271639   6.152   3.388  14.941 -0.7380  0.8817 -1.0395
16742TIP3   OH271640   4.943   3.997  11.988 -0.4752 -0.1078 -0.0850
16742TIP3    H171641   4.894   4.078  11.990 -0.2685  0.0304 -0.4442
16742TIP3    H271642   5.033   4.022  12.010 -0.2607 -0.1190 -0.9288
16743TIP3   OH271643   5.458   5.143   1.931 -0.2212  0.5790  0.0917
16743TIP3    H171644   5.505   5.060   1.940  0.6994  1.0300 -0.4032
16743TIP3    H271645   5.509   5.192   1.867 -2.1421  0.5663 -1.4800
16744TIP3   OH271646   3.173   2.469  14.100  0.3731 -0.3754  0.0388
16744TIP3    H171647   3.084   2.474  14.133  0.2240  0.1481 -0.4303
16744TIP3    H271648   3.200   2.378  14.116  0.4712 -0.0162  1.9739
16745TIP3   OH271649   4.549   5.300   3.954 -0.0703  0.2020 -0.4094
16745TIP3    H171650   4.629   5.290   3.902 -0.5109 -0.0722 -1.0402
16745TIP3    H271651   4.494   5.227   3.927 -0.2710  0.0099  0.5114
16746TIP3   OH271652   5.961   3.021  10.775  0.1129  0.3338 -0.1703
16746TIP3    H171653   6.008   3.053  10.698 -1.3881  1.0608 -0.8165
16746TIP3    H271654   5.912   3.098  10.805 -1.0425 -0.5379  0.1785
16747TIP3   OH271655   0.292   3.505  11.766  0.5741 -0.0356  0.0877
16747TIP3    H171656   0.226   3.440  11.741  1.8107 -1.9591  1.6333
16747TIP3    H271657   0.310   3.553  11.685 -0.1390 -1.8365 -1.1849
16748TIP3   OH271658   4.812   4.521  12.090 -0.2574  0.2357  0.0548
16748TIP3    H171659   4.789   4.613  12.078 -0.8112  0.0642 -0.2239
16748TIP3    H271660   4.793   4.503  12.182  0.0158  0.4457  0.1514
16749TIP3   OH271661   5.650   0.915   3.280  0.0767 -0.4781  1.9539
16749TIP3    H171662   5.611   0.897   3.365 -1.8658  0.2546  1.2371
16749TIP3    H271663   5.599   0.862   3.219  0.6350 -0.0125  1.0761
16750TIP3   OH271664   2.286   3.610   1.004  0.0059 -0.5120  0.3778
16750TIP3    H171665   2.270   3.570   1.089 -2.2736 -0.2521  0.1062
16750TIP3    H271666   2.198   3.623   0.967  0.8255  1.9345 -0.8154
16751TIP3   OH271667   4.979   5.621  16.588 -0.0370 -0.4541  0.3093
16751TIP3    H171668   5.062   5.669  16.597  0.8824 -1.8678 -0.5392
16751TIP3    H271669   4.923   5.659  16.656  1.3881  0.3335  1.0776
16752TIP3   OH271670   0.004   0.352  11.602  0.0156  0.1559  0.1891
16752TIP3    H171671   0.038   0.273  11.560 -3.7276 -0.5767 -1.6861
16752TIP3    H271672  -0.001   0.330  11.695  0.3851 -1.2855 -0.1183
16753TIP3   OH271673   6.517   4.621  15.408 -0.2721  0.2135 -0.3213
16753TIP3    H171674   6.494   4.559  15.477 -0.0022 -0.2343 -0.6371
16753TIP3    H271675   6.605   4.651  15.432  0.1849 -0.6046 -0.9441
16754TIP3   OH271676   2.663   0.261  13.606  0.1445 -0.4307 -0.2999
16754TIP3    H171677   2.624   0.181  13.640  2.3855 -1.4488 -0.0179
16754TIP3    H271678   2.598   0.296  13.545 -1.6377 -1.4685  0.9583
16755TIP3   OH271679   1.875   3.880   3.954  0.0760 -0.5367 -0.4964
16755TIP3    H171680   1.870   3.946   3.885 -0.6905 -1.1946 -1.0712
16755TIP3    H271681   1.913   3.803   3.911 -1.0002 -1.1588 -0.3562
16756TIP3   OH271682   1.982   5.777  12.899 -0.2183  0.4255  0.0497
16756TIP3    H171683   2.029   5.819  12.827 -1.8130  0.0698 -1.2183
16756TIP3    H271684   1.974   5.845  12.966 -1.1366  1.6021 -1.2254
16757TIP3   OH271685   1.771   0.208  15.160 -0.0192  0.2290 -0.3866
16757TIP3    H171686   1.808   0.120  15.166 -2.0988 -0.6022  0.5832
16757TIP3    H271687   1.842   0.261  15.122  1.4722 -1.7058 -0.3836
16758TIP3   OH271688   0.823   2.060  13.609 -0.5333  0.3455  0.0216
16758TIP3    H171689   0.741   2.016  13.631  0.2537 -1.1825 -0.0177
16758TIP3    H271690   0.849   2.104  13.690 -1.1204  0.3950  0.1840
16759TIP3   OH271691   2.309   2.120  15.063 -0.5336  0.7663  0.9916
16759TIP3    H171692   2.403   2.139  15.064 -0.3208 -0.2676  2.3943
16759TIP3    H271693   2.290   2.087  15.151 -2.3863  1.7551  0.9957
16760TIP3   OH271694   4.008   0.017  14.676  0.6467 -0.2983 -0.1901
16760TIP3    H171695   3.930   0.070  14.664 -0.7419 -2.1375  0.4754
16760TIP3    H271696   3.997  -0.056  14.614  1.8276 -0.5783 -0.0809
16761TIP3   OH271697   5.923   5.981  13.150  0.0433 -0.3157 -0.1174
16761TIP3    H171698   6.017   5.980  13.164  0.2530 -0.6789 -1.5555
16761TIP3    H271699   5.890   6.047  13.212  1.1472 -0.6789  0.8735
16762TIP3   OH271700   5.885   4.112   5.460  0.0987 -0.4204 -0.1768
16762TIP3    H171701   5.967   4.132   5.506  0.8307  0.3850 -1.7592
16762TIP3    H271702   5.866   4.192   5.410 -1.6291 -0.6306  0.1182
16763TIP3   OH271703   4.983   0.226  12.464  0.7027  0.2505 -0.4260
16763TIP3    H171704   5.004   0.146  12.512 -2.1231 -1.5464 -2.0169
16763TIP3    H271705   5.019   0.212  12.377  0.0185  0.6287 -0.7760
16764TIP3   OH271706   2.793   5.356  12.995 -0.3764  0.2614 -0.3496
16764TIP3    H171707   2.884   5.335  12.975 -0.9433 -1.3261 -1.3943
16764TIP3    H271708   2.793   5.450  13.014  1.4142  0.3364 -0.6612
16765TIP3   OH271709   4.027   2.544   5.514 -0.3633  0.3884 -0.7608
16765TIP3    H171710   4.012   2.451   5.497  2.3863  0.1696 -2.2692
16765TIP3    H271711   4.100   2.546   5.576 -0.2305  1.5539 -0.9451
16766TIP3   OH271712   0.462   6.571  13.986 -0.1304  0.2713  0.7707
16766TIP3    H171713   0.393   6.604  14.042 -2.1979  1.5346 -2.3900
16766TIP3    H271714   0.454   6.475  13.991 -1.1301  0.3961  1.5665
16767TIP3   OH271715   5.030   2.539   0.050  0.4465  0.4354  0.2605
16767TIP3    H171716   4.988   2.504   0.128 -0.1525  2.2511  0.7679
16767TIP3    H271717   5.006   2.479  -0.020 -2.0634  0.8165  0.7672
16768TIP3   OH271718   2.677   6.464   1.542  0.4676 -0.0531 -0.5873
16768TIP3    H171719   2.771   6.447   1.539  0.3794 -0.4600 -0.9780
16768TIP3    H271720   2.666   6.517   1.622  0.6652 -2.3068  0.9932
16769TIP3   OH271721   1.019   5.426  12.594  0.5275 -0.0418  0.3725
16769TIP3    H171722   0.945   5.433  12.654  0.8478 -1.0348  0.8895
16769TIP3    H271723   1.096   5.435  12.650  0.8109  0.0382 -0.0296
16770TIP3   OH271724   0.750   1.022  13.215  0.1310 -0.4185  0.7161
16770TIP3    H171725   0.715   1.090  13.274  0.5750 -2.5870  3.5722
16770TIP3    H271726   0.844   1.021  13.232  0.1522 -1.6217  0.5686
16771TIP3   OH271727   2.131   4.695   2.535 -0.4508  0.1140  0.4500
16771TIP3    H171728   2.093   4.724   2.619 -1.8780 -0.5981  0.0650
16771TIP3    H271729   2.167   4.608   2.554  1.8308  1.1313  1.0327
16772TIP3   OH271730   4.789   1.049  14.405  0.1500 -0.4518  0.1043
16772TIP3    H171731   4.783   0.979  14.470  2.6082 -0.5111  0.3248
16772TIP3    H271732   4.821   1.125  14.454 -0.3912  0.2161 -0.5622
16773TIP3   OH271733   6.446   1.134   4.611  0.2207 -0.1392  0.1209
16773TIP3    H171734   6.428   1.099   4.698 -0.7908 -0.1903 -0.1089
16773TIP3    H271735   6.399   1.076   4.551  1.7366 -0.7092 -0.5429
16774TIP3   OH271736   6.312   3.170  15.612 -0.3428  0.1018  0.1460
16774TIP3    H171737   6.322   3.112  15.687  0.5042  1.9802  1.5327
16774TIP3    H271738   6.382   3.143  15.552  1.6832  1.2627  1.8729
16775TIP3   OH271739   6.503   3.626  14.738  0.3569 -0.0015 -0.1870
16775TIP3    H171740   6.536   3.565  14.672  1.3313  0.2947  0.0046
16775TIP3    H271741   6.574   3.630  14.803 -0.8123 -0.6939  1.1399
16776TIP3   OH271742   4.776   0.575  11.391  0.3052 -0.1126 -0.1322
16776TIP3    H171743   4.805   0.660  11.360  0.5868  0.2907  1.1974
16776TIP3    H271744   4.857   0.528  11.410  0.1383 -0.3915 -0.1055
16777TIP3   OH271745   2.034   0.924   5.568  0.6636  0.1787 -0.6449
16777TIP3    H171746   2.006   0.940   5.658 -0.7077 -1.0721 -0.8350
16777TIP3    H271747   1.997   0.996   5.518  0.8754  0.5182 -0.3203
16778TIP3   OH271748   2.334   2.920   1.231 -0.2403 -0.7437 -0.3211
16778TIP3    H171749   2.308   2.864   1.305  0.9197  0.0678  0.7255
16778TIP3    H271750   2.405   2.872   1.188 -0.1747 -0.7078 -0.2526
16779TIP3   OH271751   6.668   0.858   3.981 -0.2497 -0.7599 -0.0242
16779TIP3    H171752   6.736   0.876   3.915  0.3895 -0.3510  0.7402
16779TIP3    H271753   6.690   0.916   4.054 -1.6595 -0.3265  0.0692
16780TIP3   OH271754   4.987   6.153   4.768 -0.3593  0.6361  0.6406
16780TIP3    H171755   5.018   6.156   4.678 -0.8445  0.6099  0.4719
16780TIP3    H271756   4.984   6.245   4.796  1.5925  0.5431  1.2556
16781TIP3   OH271757   4.104   2.176  15.899  0.2034 -0.3386  0.7906
16781TIP3    H171758   4.115   2.252  15.957  0.1459 -1.3339  2.1185
16781TIP3    H271759   4.111   2.213  15.811 -1.0297  1.4195  1.3752
16782TIP3   OH271760   3.087   0.616   5.932 -0.3008 -0.1661  0.4708
16782TIP3    H171761   3.050   0.589   6.016  0.2681 -0.0171  0.7717
16782TIP3    H271762   3.092   0.711   5.937  3.0207 -0.3333  1.6901
16783TIP3   OH271763   6.521   0.728   6.339  0.2196  0.4073  0.0991
16783TIP3    H171764   6.452   0.761   6.282 -1.2689 -0.3839  1.3917
16783TIP3    H271765   6.569   0.806   6.368  0.0052  0.9390 -0.9738
16784TIP3   OH271766   2.333   4.046  12.261 -0.1939 -0.0760 -0.0279
16784TIP3    H171767   2.265   3.981  12.281 -1.1929 -0.1058 -3.1701
16784TIP3    H271768   2.286   4.129  12.259  0.4665  0.3166  0.8237
16785TIP3   OH271769   2.178   2.441   3.274 -0.0207  0.3304  0.1784
16785TIP3    H171770   2.258   2.396   3.302  1.3563  2.4704 -0.2383
16785TIP3    H271771   2.161   2.505   3.343 -1.8044 -0.5636  0.6166
16786TIP3   OH271772   6.089   6.481   4.807  0.2137  0.4002  0.0607
16786TIP3    H171773   6.013   6.429   4.782  0.7628 -0.3630 -0.0652
16786TIP3    H271774   6.061   6.572   4.798 -0.6193  0.1229 -0.1662
16787TIP3   OH271775   6.506   2.313   2.736  0.3423 -1.0394  0.4029
16787TIP3    H171776   6.519   2.227   2.777  0.2006 -1.2477  0.0183
16787TIP3    H271777   6.416   2.337   2.761  0.1405 -1.3138 -0.0513
16788TIP3   OH271778   4.714   5.049  11.481 -0.4234 -0.5850  0.1199
16788TIP3    H171779   4.809   5.042  11.467 -0.7586 -1.4387 -1.9485
16788TIP3    H271780   4.703   5.127  11.534  1.4654 -0.6418  0.6392
16789TIP3   OH271781   6.195   1.088  14.247 -0.0433  0.2516 -0.5982
16789TIP3    H171782   6.200   0.992  14.246 -1.6040  0.1728 -1.8744
16789TIP3    H271783   6.255   1.116  14.178  2.1839  0.3196  1.2875
16790TIP3   OH271784   6.624   5.147   4.222 -0.4760  0.2828 -0.0590
16790TIP3    H171785   6.556   5.083   4.239 -2.2165  2.3118  0.8694
16790TIP3    H271786   6.581   5.216   4.172  1.4772  0.5268 -1.4779
16791TIP3   OH271787   1.276   1.970   6.214  0.3126 -0.2177 -0.4123
16791TIP3    H171788   1.234   1.956   6.298  0.5502 -0.1008 -0.2755
16791TIP3    H271789   1.361   1.927   6.221 -0.2734 -1.5329 -1.1129
16792TIP3   OH271790   4.791   3.171   1.585 -0.1183  0.0731  0.7654
16792TIP3    H171791   4.721   3.236   1.577 -0.6071 -0.5589 -0.1651
16792TIP3    H271792   4.756   3.105   1.645 -0.4565 -0.4250  0.0180
16793TIP3   OH271793   4.691   5.920  15.140 -0.0894  0.2051  0.0931
16793TIP3    H171794   4.622   5.923  15.074  1.5610 -1.5347 -1.8144
16793TIP3    H271795   4.762   5.973  15.103  0.3542  0.2937  1.0601
16794TIP3   OH271796   1.186   6.682  15.281 -0.1058  0.2299  0.0958
16794TIP3    H171797   1.255   6.620  15.257  0.6510  0.8760  0.5962
16794TIP3    H271798   1.109   6.651  15.234  0.5384 -0.4637 -0.5150
16795TIP3   OH271799   1.170   0.225  16.349  0.3572  0.1803  0.3394
16795TIP3    H171800   1.145   0.151  16.294  0.5573  0.1035  0.3513
16795TIP3    H271801   1.103   0.292  16.331  0.1975  0.0104  0.3039
16796TIP3   OH271802   0.275   5.197   0.192 -0.5461  0.0876 -0.6995
16796TIP3    H171803   0.193   5.245   0.205 -0.2589  0.7278 -1.2467
16796TIP3    H271804   0.248   5.105   0.191 -0.9937  0.1559  1.2106
16797TIP3   OH271805   6.631   0.465  13.340 -0.7342 -0.2480  0.1611
16797TIP3    H171806   6.647   0.408  13.264  0.5309 -0.2874  0.4438
16797TIP3    H271807   6.537   0.481  13.339 -0.9736 -1.6364 -0.4348
16798TIP3   OH271808   0.486   4.753  13.536 -0.1686  0.1594  0.3840
16798TIP3    H171809   0.533   4.836  13.546  1.4394 -0.8790  1.5893
16798TIP3    H271810   0.552   4.692  13.502 -1.2085 -0.7539 -0.0231
16799TIP3   OH271811   1.153   2.672  13.526  0.7987 -0.0288  0.2135
16799TIP3    H171812   1.129   2.672  13.619 -0.2129 -1.9018 -0.0295
16799TIP3    H271813   1.215   2.600  13.517  2.1773  1.2001 -0.2602
16800TIP3   OH271814   1.459   3.413   0.872  0.4971 -0.2301  0.5080
16800TIP3    H171815   1.486   3.327   0.906  0.4870 -0.0489  0.9835
16800TIP3    H271816   1.521   3.432   0.802 -1.1405 -1.8618 -1.4503
16801TIP3   OH271817   3.086   1.079   2.092 -0.3319 -0.0528  0.3229
16801TIP3    H171818   3.063   1.006   2.150 -1.4200  0.2131  0.2311
16801TIP3    H271819   3.043   1.155   2.131 -0.9922  0.1471 -0.7867
16802TIP3   OH271820   3.619   1.165  14.673 -0.5632  0.1727  0.2145
16802TIP3    H171821   3.697   1.156  14.619 -1.0814  0.3186 -0.5716
16802TIP3    H271822   3.650   1.151  14.763  0.0257 -1.6816 -0.2507
16803TIP3   OH271823   0.589   6.424   2.154 -0.4370 -0.1452  0.1290
16803TIP3    H171824   0.633   6.424   2.069 -0.4175  1.0673  0.1327
16803TIP3    H271825   0.547   6.510   2.160 -1.5952 -0.7400  0.7507
16804TIP3   OH271826   3.675   0.649   1.027 -0.4707  0.3049  0.1857
16804TIP3    H171827   3.735   0.702   1.081  1.6233 -0.0219 -1.7405
16804TIP3    H271828   3.725   0.570   1.007 -2.0653 -0.5762 -0.3548
16805TIP3   OH271829   3.007   3.383  16.842 -0.1363  0.3084 -0.1588
16805TIP3    H171830   3.020   3.459  16.787 -0.2690 -0.1222 -0.7856
16805TIP3    H271831   2.970   3.317  16.784  1.4004 -0.7285 -0.0005
16806TIP3   OH271832   1.339   2.362   2.383  0.0848  0.3372 -0.4222
16806TIP3    H171833   1.316   2.278   2.421 -0.4079  0.2868 -0.8280
16806TIP3    H271834   1.269   2.421   2.412  0.5479  0.6617  0.0496
16807TIP3   OH271835   6.476   2.999  16.537  0.0649  0.2900  0.1050
16807TIP3    H171836   6.435   3.002  16.451  0.3483 -0.1050 -0.0465
16807TIP3    H271837   6.522   2.915  16.539 -0.3757  0.0643  0.8398
16808TIP3   OH271838   4.498   6.305   3.603  0.2639 -0.5177  0.1072
16808TIP3    H171839   4.456   6.303   3.517  1.2254  1.8533 -0.4603
16808TIP3    H271840   4.485   6.217   3.638  0.0110 -1.5788 -2.5315
16809TIP3   OH271841   2.266   5.552  11.044  0.2279  0.1852 -0.5882
16809TIP3    H171842   2.197   5.614  11.067 -0.3895 -0.7580  0.1504
16809TIP3    H271843   2.225   5.493  10.980  0.1070 -0.8146  0.3919
16810TIP3   OH271844   0.497   2.846  13.231 -0.2189  0.5409 -0.6571
16810TIP3    H171845   0.430   2.914  13.243 -1.1036 -0.2651 -0.9295
16810TIP3    H271846   0.486   2.819  13.140  1.1849  1.1358 -1.0024
16811TIP3   OH271847   0.686   1.314  16.066 -0.0614 -0.2193 -0.2000
16811TIP3    H171848   0.594   1.333  16.050 -0.3980 -0.5789  1.2126
16811TIP3    H271849   0.695   1.221  16.047  0.1034 -0.1011 -0.7127
16812TIP3   OH271850   5.413   1.501   1.638 -0.3686 -0.1307  0.2321
16812TIP3    H171851   5.328   1.477   1.603 -0.6074 -1.3684  1.6047
16812TIP3    H271852   5.438   1.428   1.695  2.0351 -0.2328 -0.8591
16813TIP3   OH271853   2.307   0.555  12.522 -0.0467 -0.4078  0.2032
16813TIP3    H171854   2.379   0.491  12.521  0.4877  0.1676  1.3764
16813TIP3    H271855   2.262   0.539  12.604 -0.3490  0.2470  0.1664
16814TIP3   OH271856   2.286   3.170  17.211  0.4719 -0.0432  0.4706
16814TIP3    H171857   2.250   3.119  17.138 -0.0465  0.7287  0.1747
16814TIP3    H271858   2.233   3.250  17.212 -0.6652 -0.7706  2.7692
16815TIP3   OH271859   6.529   5.084   6.663 -0.0731  0.1644 -0.3767
16815TIP3    H171860   6.446   5.052   6.627 -1.1138 -1.7018  3.4286
16815TIP3    H271861   6.510   5.176   6.685 -0.2832  0.5062 -1.9045
16816TIP3   OH271862   5.422   5.584   1.470 -0.2042 -0.0973  0.1054
16816TIP3    H171863   5.513   5.555   1.467  0.3219  1.4097  0.8048
16816TIP3    H271864   5.404   5.598   1.563 -0.3093  2.1071 -0.2113
16817TIP3   OH271865   6.438   5.127  17.164  0.0950 -0.0295  0.1932
16817TIP3    H171866   6.460   5.174  17.245 -0.9210  0.7370  0.0368
16817TIP3    H271867   6.452   5.035  17.185  0.9698  0.2532  0.8776
16818TIP3   OH271868   3.081   4.394  11.603  0.0682  0.0576 -0.7161
16818TIP3    H171869   3.130   4.399  11.521 -0.4373  0.8976 -0.9800
16818TIP3    H271870   2.990   4.410  11.578 -0.2192 -0.5993 -0.1124
16819TIP3   OH271871   6.255   5.441   1.097 -0.0287  0.1594  0.3917
16819TIP3    H171872   6.321   5.493   1.051 -1.1964  1.4420  0.1224
16819TIP3    H271873   6.284   5.351   1.087  0.5166  0.5336 -1.6252
16820TIP3   OH271874   4.167   4.406   1.472  0.3216 -0.0729 -0.3093
16820TIP3    H171875   4.138   4.400   1.563 -0.5148 -0.3134 -0.5933
16820TIP3    H271876   4.087   4.410   1.420  0.7595  2.4886 -0.8982
16821TIP3   OH271877   0.689   0.326  13.429 -0.1180 -0.3207  0.3349
16821TIP3    H171878   0.601   0.362  13.439  0.1900  0.4650  0.2234
16821TIP3    H271879   0.738   0.393  13.381  0.7684 -0.3959  1.1122
16822TIP3   OH271880   5.410   0.718   5.099  0.2670 -0.2920 -0.8465
16822TIP3    H171881   5.349   0.718   5.173 -1.8178  0.2075 -2.5130
16822TIP3    H271882   5.491   0.754   5.134  0.0849 -2.2773  1.7852
16823TIP3   OH271883   5.191   5.659   5.437  0.3899  0.1084  0.7118
16823TIP3    H171884   5.227   5.684   5.352 -0.2789 -0.7247  0.1715
16823TIP3    H271885   5.135   5.733   5.462  1.0457  0.6065  0.6959
16824TIP3   OH271886   3.692   5.808   3.893 -0.1566 -0.0535 -0.0549
16824TIP3    H171887   3.627   5.781   3.829  0.2206  0.1555 -0.5354
16824TIP3    H271888   3.695   5.737   3.957 -2.0120  0.6698  0.8616
16825TIP3   OH271889   1.585   3.705   0.573 -0.3278 -0.1402  0.2593
16825TIP3    H171890   1.625   3.749   0.648  0.9546 -2.5454  1.0455
16825TIP3    H271891   1.639   3.730   0.499 -1.9762  2.7681 -0.0241
16826TIP3   OH271892   3.736   6.623   5.679  0.1157 -0.3741 -0.0594
16826TIP3    H171893   3.806   6.609   5.616  0.2772  1.0929 -0.2297
16826TIP3    H271894   3.662   6.572   5.646  0.5604 -0.5236 -0.8150
16827TIP3   OH271895   2.890   4.038   5.422  0.2317  0.6465  0.1575
16827TIP3    H171896   2.828   3.994   5.482  0.4244 -0.9546 -0.7856
16827TIP3    H271897   2.835   4.097   5.371 -1.0953 -2.7823 -2.6151
16828TIP3   OH271898   0.203   2.138   2.968  0.1852 -0.6066 -0.2185
16828TIP3    H171899   0.281   2.191   2.981 -0.5071  0.3216  0.2663
16828TIP3    H271900   0.155   2.183   2.898 -1.2271  0.4013  1.3445
16829TIP3   OH271901   6.121   6.355  14.144  0.4316  0.1641  0.3161
16829TIP3    H171902   6.177   6.338  14.068 -1.2810 -0.0056 -0.9445
16829TIP3    H271903   6.049   6.407  14.108 -0.5870 -0.2422  1.7627
16830TIP3   OH271904   2.107   2.058  10.735 -0.3093  0.3266  1.0310
16830TIP3    H171905   2.065   1.984  10.690 -1.6186  0.4306  2.0428
16830TIP3    H271906   2.193   2.065  10.694  0.2505 -2.4303  1.5768
16831TIP3   OH271907   4.310   6.761   0.054 -0.1828  0.2399  0.3291
16831TIP3    H171908   4.241   6.707   0.092 -1.3345  0.6581 -1.0940
16831TIP3    H271909   4.297   6.752  -0.041  2.3871 -0.5283  0.0064
16832TIP3   OH271910   3.570   4.056  14.279  0.2807  0.2517 -0.1387
16832TIP3    H171911   3.524   4.105  14.347 -0.5025  0.3162 -0.7155
16832TIP3    H271912   3.502   4.006  14.234  0.8795 -0.2618 -0.4827
16833TIP3   OH271913   5.479   5.519   1.227 -0.8269 -0.1793  0.8469
16833TIP3    H171914   5.426   5.566   1.163 -0.4154  0.1878  0.7746
16833TIP3    H271915   5.445   5.547   1.312  0.6705  1.7324  0.8461
16834TIP3   OH271916   3.288   0.508  16.197  0.7603 -0.3551  0.0768
16834TIP3    H171917   3.363   0.475  16.148 -0.7767 -1.3601 -1.6775
16834TIP3    H271918   3.212   0.476  16.149 -0.8149 -0.1169  2.3110
16835TIP3   OH271919   5.640   3.784  12.483 -0.7984  0.3747  0.2243
16835TIP3    H171920   5.647   3.690  12.469 -0.3561  0.1722  1.6816
16835TIP3    H271921   5.690   3.823  12.411  0.4258 -0.5560  0.5555
16836TIP3   OH271922   6.021   6.370  16.243  0.5586  0.2955  0.1404
16836TIP3    H171923   6.080   6.373  16.168  2.5267 -0.2986  1.6127
16836TIP3    H271924   6.061   6.429  16.307 -0.1925 -0.4626  1.3263
16837TIP3   OH271925   1.869   3.981   0.111  0.4994 -0.0010 -0.0639
16837TIP3    H171926   1.900   4.064   0.146 -0.4403  0.7413 -0.9830
16837TIP3    H271927   1.781   3.971   0.147  0.5660 -0.5509 -0.0459
16838TIP3   OH271928   3.140   6.339  10.894  0.1911 -0.2165  0.1548
16838TIP3    H171929   3.142   6.267  10.956 -0.1082  0.7014  1.2514
16838TIP3    H271930   3.056   6.330  10.849  0.4414 -0.9250 -0.1717
16839TIP3   OH271931   5.085   5.701  17.005  0.1758  0.0178 -0.0900
16839TIP3    H171932   5.179   5.684  17.005  0.1673 -0.0750 -1.1293
16839TIP3    H271933   5.076   5.782  16.954 -0.4437 -0.8453 -1.3828
16840TIP3   OH271934   2.521   2.742   3.761  0.1250 -0.5882 -0.1591
16840TIP3    H171935   2.484   2.804   3.823  0.8507 -0.7620  0.4591
16840TIP3    H271936   2.514   2.785   3.676  0.9352  0.4777  0.3109
16841TIP3   OH271937   1.732   0.296  15.698  0.3493 -0.6671  0.1030
16841TIP3    H171938   1.707   0.231  15.764  0.0043  0.9968  1.6671
16841TIP3    H271939   1.706   0.380  15.737  1.0073  0.4238 -1.7657
16842TIP3   OH271940   0.048   1.439   0.504 -0.1281 -0.8949 -0.4154
16842TIP3    H171941   0.061   1.438   0.599  2.7615 -1.5836 -0.7542
16842TIP3    H271942   0.071   1.528   0.478 -0.5913 -0.8032 -0.5100
16843TIP3   OH271943   5.603   0.429   1.428  0.2222 -0.1974  0.1133
16843TIP3    H171944   5.623   0.472   1.511  1.9125 -0.3837 -0.1899
16843TIP3    H271945   5.606   0.499   1.363 -2.9687  0.3113  0.4256
16844TIP3   OH271946   4.521   1.063   5.519 -0.4545 -0.1299 -0.1499
16844TIP3    H171947   4.552   1.076   5.429  0.7503 -0.4222  0.2194
16844TIP3    H271948   4.427   1.048   5.509 -0.5091  0.8546 -1.2720
16845TIP3   OH271949   3.678   2.406   4.336  0.1433 -0.3056  0.0773
16845TIP3    H171950   3.648   2.316   4.335 -1.4749  0.2266 -0.7683
16845TIP3    H271951   3.623   2.451   4.271  0.6513  1.3644  0.7621
16846TIP3   OH271952   2.502   6.074   0.836  0.8440 -0.2014  0.0290
16846TIP3    H171953   2.485   6.098   0.745 -0.0554  0.3044  0.3258
16846TIP3    H271954   2.426   6.023   0.863  0.9278 -0.0324  0.6094
16847TIP3   OH271955   1.357   2.938   2.318  0.1233  0.0346  0.1344
16847TIP3    H171956   1.341   3.018   2.368  2.1334  1.1148 -0.9318
16847TIP3    H271957   1.282   2.931   2.260 -1.1858 -0.0968  1.7864
16848TIP3   OH271958   6.211   4.124  14.058 -0.0768 -0.3191  0.0434
16848TIP3    H171959   6.280   4.188  14.039 -0.5548 -0.0159 -0.7006
16848TIP3    H271960   6.160   4.163  14.129  0.4857 -0.5192  0.5579
16849TIP3   OH271961   5.095   4.333   1.203  0.0293  0.3764 -0.5092
16849TIP3    H171962   5.163   4.398   1.183  2.6826 -1.1574  2.9335
16849TIP3    H271963   5.113   4.261   1.143 -0.0438  0.9489 -1.2245
16850TIP3   OH271964   6.515   3.890   1.965 -0.7249  0.1451  0.2246
16850TIP3    H171965   6.527   3.797   1.944  2.6684  0.5602  0.0674
16850TIP3    H271966   6.496   3.891   2.059 -0.9783 -0.7003  0.1858
16851TIP3   OH271967   4.692   3.303   0.302 -0.4460 -0.5301 -0.2797
16851TIP3    H171968   4.649   3.308   0.387 -0.9555 -0.1691 -0.5595
16851TIP3    H271969   4.734   3.389   0.291  1.2880 -1.2599  0.4892
16852TIP3   OH271970   5.845   0.135   5.357  0.1998  0.7433  0.6009
16852TIP3    H171971   5.773   0.197   5.353  0.2828  0.7331 -1.4446
16852TIP3    H271972   5.803   0.049   5.349  0.2924  0.6596  1.0210
16853TIP3   OH271973   4.167   1.979  17.194  0.2411 -0.2940 -0.4089
16853TIP3    H171974   4.256   1.962  17.165  0.0355 -0.0365 -1.2155
16853TIP3    H271975   4.158   1.931  17.276  1.4869  0.6492  0.2805
16854TIP3   OH271976   0.952   6.321  16.338 -0.2238  0.1588  0.1008
16854TIP3    H171977   1.045   6.298  16.336  0.0973  1.4550 -0.1862
16854TIP3    H271978   0.916   6.270  16.410  0.8441  0.1296  0.6205
16855TIP3   OH271979   5.604   0.022   1.056  0.2420 -0.9960  0.3373
16855TIP3    H171980   5.650   0.016   1.139 -0.3491  1.1615  0.8586
16855TIP3    H271981   5.523  -0.028   1.069  0.4098 -1.1175  0.8810
16856TIP3   OH271982   1.924   4.600  13.153  0.9924  0.2574  0.5355
16856TIP3    H171983   1.985   4.527  13.162 -0.8264 -1.3221  0.3840
16856TIP3    H271984   1.963   4.657  13.086  2.1373 -0.8869  0.2228
16857TIP3   OH271985   5.394   3.038   1.919  0.2048 -0.1933  0.0136
16857TIP3    H171986   5.355   2.965   1.871 -0.5703  0.3642 -0.2017
16857TIP3    H271987   5.404   3.107   1.854  3.4628 -0.9998 -0.4403
16858TIP3   OH271988   0.314   2.872  14.534  0.0259 -0.2833 -0.7097
16858TIP3    H171989   0.318   2.784  14.572 -0.4541 -0.6603 -1.5159
16858TIP3    H271990   0.277   2.859  14.447 -0.3204  0.7593 -0.7254
16859TIP3   OH271991   3.605   5.999  11.045 -0.3098  0.1606 -0.5290
16859TIP3    H171992   3.648   6.070  11.093  0.0317 -0.7174  0.4934
16859TIP3    H271993   3.675   5.957  10.996 -0.2912 -0.2258 -0.1766
16860TIP3   OH271994   4.312   4.128   4.049 -0.2944  0.2946  0.2885
16860TIP3    H171995   4.393   4.135   3.999 -0.1722 -1.5625  0.1888
16860TIP3    H271996   4.248   4.178   3.999  0.4647  0.6301 -0.3524
16861TIP3   OH271997   5.582   1.929  11.311  0.0119 -0.6772  0.1919
16861TIP3    H171998   5.504   1.981  11.334 -0.5986 -2.1135  1.4358
16861TIP3    H271999   5.619   1.974  11.235 -1.9619  0.0951 -0.3325
16862TIP3   OH272000   4.053   5.133   0.878  0.1530  0.0584  0.3911
16862TIP3    H172001   4.053   5.045   0.916 -0.2975  0.3606  1.1022
16862TIP3    H272002   4.118   5.129   0.808 -1.0886 -1.3358 -0.7179
16863TIP3   OH272003   3.196   3.672  14.882  0.6393  0.0696 -0.2002
16863TIP3    H172004   3.250   3.749  14.862  2.1461 -0.8074  0.3664
16863TIP3    H272005   3.245   3.626  14.950 -0.8391 -0.7742  0.3133
16864TIP3   OH272006   1.640   0.082   0.962  0.5086 -0.1708 -0.0428
16864TIP3    H172007   1.629   0.016   1.030  1.7324  0.5405  0.8626
16864TIP3    H272008   1.720   0.056   0.915  0.5248  0.1884 -0.2216
16865TIP3   OH272009   3.340   5.315   4.064  0.6074 -0.5525 -0.1927
16865TIP3    H172010   3.245   5.309   4.058  0.7283 -1.0736 -1.5737
16865TIP3    H272011   3.369   5.227   4.086  0.8950 -0.7699 -1.4262
16866TIP3   OH272012   3.548   1.484   1.021 -0.6719  0.3149 -0.4538
16866TIP3    H172013   3.642   1.465   1.030 -0.2945  2.1081 -0.4470
16866TIP3    H272014   3.518   1.501   1.111 -0.8835  0.2660 -0.5154
16867TIP3   OH272015   2.097   1.083   1.370  0.8165 -0.5699 -0.0096
16867TIP3    H172016   2.107   1.013   1.306  1.0037  0.0755 -0.6994
16867TIP3    H272017   2.002   1.094   1.381  0.7861 -0.7009 -0.1539
16868TIP3   OH272018   5.476   2.886   4.646  0.5104 -0.4614 -0.3344
16868TIP3    H172019   5.472   2.980   4.666  0.0402  0.0257 -2.5496
16868TIP3    H272020   5.562   2.874   4.607 -0.1191 -0.5724 -1.7329
16869TIP3   OH272021   5.380   2.706   1.008  0.2773 -0.1023 -0.0682
16869TIP3    H172022   5.313   2.726   0.943 -0.8408  1.8448  1.5908
16869TIP3    H272023   5.398   2.613   0.997 -1.0440 -0.1498 -2.0643
16870TIP3   OH272024   2.503   3.657  14.101 -0.2732  0.2008  0.1733
16870TIP3    H172025   2.582   3.638  14.049 -0.3572  0.0815  0.0879
16870TIP3    H272026   2.468   3.571  14.123  0.9009  0.2156  2.1845
16871TIP3   OH272027   6.299   6.134  16.285  0.3735 -0.1010 -0.0116
16871TIP3    H172028   6.332   6.215  16.324  1.6791  0.0392 -1.3751
16871TIP3    H272029   6.344   6.128  16.201 -1.7289 -0.8538 -1.1215
16872TIP3   OH272030   1.809   0.864  13.416  0.5470  0.4686  0.1323
16872TIP3    H172031   1.715   0.881  13.425  0.2054 -1.1837 -0.2877
16872TIP3    H272032   1.849   0.915  13.487 -1.0558 -2.5081  3.2904
16873TIP3   OH272033   4.443   3.944   4.446  0.2786  0.0167 -0.0284
16873TIP3    H172034   4.536   3.939   4.468  0.7176 -0.7976 -1.9278
16873TIP3    H272035   4.406   3.862   4.479  0.0543  0.6783  1.4147
16874TIP3   OH272036   4.206   4.629  11.179 -0.1690 -0.2058  0.0951
16874TIP3    H172037   4.236   4.560  11.237  0.1873  1.3270  1.7575
16874TIP3    H272038   4.272   4.698  11.187 -1.2124  0.8799 -0.5102
16875TIP3   OH272039   2.186   4.388  11.553 -0.6046  0.3115  0.0209
16875TIP3    H172040   2.132   4.453  11.509 -0.8013 -0.2631 -0.5860
16875TIP3    H272041   2.235   4.344  11.483  0.0578  0.2853  0.4873
16876TIP3   OH272042   3.300   4.597   0.455 -0.3740 -0.6670 -0.0624
16876TIP3    H172043   3.359   4.618   0.383 -0.1170 -2.0871 -0.2796
16876TIP3    H272044   3.274   4.507   0.438 -1.4863 -0.5096  0.8139
16877TIP3   OH272045   5.694   5.707  12.270 -0.3683 -0.0173  0.2881
16877TIP3    H172046   5.656   5.619  12.275 -1.2633  0.4109  1.3947
16877TIP3    H272047   5.674   5.738  12.182  0.8709 -1.3097 -0.4795
16878TIP3   OH272048   5.125   5.510   2.882  0.6151 -0.3608  0.6065
16878TIP3    H172049   5.143   5.563   2.959 -1.6602  1.0466  0.2398
16878TIP3    H272050   5.034   5.483   2.892  0.3824 -0.4295 -1.4162
16879TIP3   OH272051   4.892   1.282  15.742 -0.1493  0.3433  0.2403
16879TIP3    H172052   4.955   1.319  15.804  0.0762  0.1004  0.1596
16879TIP3    H272053   4.881   1.192  15.770 -0.0309  0.2262 -0.0852
16880TIP3   OH272054   1.131   5.982  13.345 -0.1767 -0.0897  0.1656
16880TIP3    H172055   1.083   6.008  13.424 -2.6876  0.7559 -1.5429
16880TIP3    H272056   1.136   5.887  13.350 -0.1708 -0.0291  1.4217
16881TIP3   OH272057   4.646   3.137   5.000 -0.0573  0.0700 -0.4021
16881TIP3    H172058   4.696   3.173   4.927  2.3692 -2.1212  0.1009
16881TIP3    H272059   4.701   3.067   5.035 -2.6272 -1.1219  1.4547
16882TIP3   OH272060   0.741   2.749   5.394  0.2790 -0.1567  0.4944
16882TIP3    H172061   0.806   2.809   5.357 -0.8511  0.6456 -0.2100
16882TIP3    H272062   0.661   2.768   5.346 -0.8618 -0.1110  2.3834
16883TIP3   OH272063   5.379   6.050   5.932  0.0355  0.1801  0.3216
16883TIP3    H172064   5.410   6.118   5.991 -2.8225  0.4402  1.5918
16883TIP3    H272065   5.314   6.002   5.983 -0.3285 -1.4780 -1.6403
16884TIP3   OH272066   0.474   3.486  14.658  0.0080  0.0804 -0.2034
16884TIP3    H172067   0.477   3.405  14.709  0.0299 -0.0632 -0.4302
16884TIP3    H272068   0.389   3.483  14.614 -1.4654  1.8002  2.4108
16885TIP3   OH272069   1.815   6.277  13.754 -0.2552  0.3780 -0.5626
16885TIP3    H172070   1.720   6.287  13.744 -0.5248  1.1499  2.4857
16885TIP3    H272071   1.850   6.366  13.751 -0.0331  0.4066  1.7497
16886TIP3   OH272072   0.491   0.477  17.183  0.0538 -0.0746 -0.7038
16886TIP3    H172073   0.475   0.559  17.231 -0.2114 -1.3383  1.4216
16886TIP3    H272074   0.548   0.502  17.111  0.4518  1.8853  0.2622
16887TIP3   OH272075   6.456   6.066   4.316 -0.3326 -0.1649  0.3163
16887TIP3    H172076   6.461   6.110   4.401 -1.8245  0.4542  0.1016
16887TIP3    H272077   6.498   6.126   4.255  1.0859 -0.7817  0.6722
16888TIP3   OH272078   1.982   5.494  17.042 -0.5052  0.5170  0.1042
16888TIP3    H172079   1.918   5.470  16.975 -0.3350 -0.2513  0.2142
16888TIP3    H272080   2.030   5.568  17.003  0.6621 -0.9462 -1.3106
16889TIP3   OH272081   1.829   4.773   0.150 -0.4447 -0.0649 -0.2901
16889TIP3    H172082   1.819   4.850   0.093  0.3987 -1.5556 -2.5290
16889TIP3    H272083   1.891   4.801   0.217 -1.5341  1.7814 -0.0168
16890TIP3   OH272084   4.623   1.248   4.447  0.5838 -0.1636  0.3811
16890TIP3    H172085   4.688   1.184   4.475 -0.0113 -1.3467 -0.9028
16890TIP3    H272086   4.554   1.243   4.514  0.9442 -0.2355  0.7485
16891TIP3   OH272087   4.367   6.601  13.509  0.2984 -0.0466 -0.1391
16891TIP3    H172088   4.426   6.539  13.551  1.5970  0.7593 -0.7605
16891TIP3    H272089   4.362   6.675  13.570 -1.4344 -0.8192  0.7110
16892TIP3   OH272090   3.248   0.111   0.179 -0.0263 -0.1940  0.0060
16892TIP3    H172091   3.319   0.114   0.115  0.6482  0.2002  0.7698
16892TIP3    H272092   3.256   0.025   0.220 -0.6363 -0.5626 -0.6246
16893TIP3   OH272093   3.594   3.683  15.034  0.2448 -0.3351  0.0330
16893TIP3    H172094   3.588   3.717  14.945  0.0009 -0.2837  0.0701
16893TIP3    H272095   3.655   3.610  15.027 -0.9969 -1.3422 -0.4754
16894TIP3   OH272096   5.580   1.173   4.717  0.0306  0.1100  0.3822
16894TIP3    H172097   5.663   1.139   4.749 -1.6453 -3.2923  1.4823
16894TIP3    H272098   5.542   1.100   4.668 -1.2297  2.4072 -2.1770
16895TIP3   OH272099   1.101   2.500   2.205  0.4313 -0.9980 -0.1662
16895TIP3    H172100   1.167   2.510   2.273  0.5071  0.8692 -0.4765
16895TIP3    H272101   1.136   2.550   2.131 -0.9159 -0.7372 -0.6323
16896TIP3   OH272102   0.257   4.456   3.869 -0.0662  0.4480 -0.5285
16896TIP3    H172103   0.207   4.534   3.894  1.7179  1.8893 -1.3201
16896TIP3    H272104   0.343   4.490   3.843 -0.0428 -1.5155 -3.2215
16897TIP3   OH272105   1.664   3.088  12.369  0.1759 -0.4098 -0.3058
16897TIP3    H172106   1.646   3.108  12.277  1.8878 -0.8981 -0.7639
16897TIP3    H272107   1.729   3.018  12.366  1.6041  0.8307  1.2764
16898TIP3   OH272108   2.909   0.628  11.285  0.3914 -0.6521  0.3287
16898TIP3    H172109   2.925   0.683  11.362  1.8454  0.0218 -0.4279
16898TIP3    H272110   2.874   0.688  11.219  1.0743 -0.8086 -0.1864
16899TIP3   OH272111   4.979   4.818  10.631  0.7425  0.2316 -0.4907
16899TIP3    H172112   5.016   4.738  10.595  1.9248  2.2492 -4.0466
16899TIP3    H272113   4.894   4.827  10.587 -0.3554 -0.1754  1.5192
16900TIP3   OH272114   4.959   5.803   0.955  0.2415 -0.2394 -0.0185
16900TIP3    H172115   4.892   5.803   0.887  0.6202 -0.7318 -0.4016
16900TIP3    H272116   5.036   5.764   0.913  0.2174 -1.3579  0.9340
16901TIP3   OH272117   5.162   3.789  12.048 -0.6618  0.1231 -0.3549
16901TIP3    H172118   5.206   3.778  11.964  1.2411 -0.4559  0.6912
16901TIP3    H272119   5.069   3.793  12.026 -0.0787  1.9732 -2.6530
16902TIP3   OH272120   3.420   3.674  16.253 -0.3863 -0.1369  0.2130
16902TIP3    H172121   3.486   3.610  16.279  0.3419 -0.0143 -1.2921
16902TIP3    H272122   3.340   3.644  16.296 -0.1138 -2.1982 -0.6411
16903TIP3   OH272123   3.656   2.778  15.680  0.0954 -0.3552 -0.1003
16903TIP3    H172124   3.604   2.725  15.620 -0.6955  0.7318 -0.3860
16903TIP3    H272125   3.705   2.714  15.732 -1.6897 -1.4030  0.3259
16904TIP3   OH272126   1.838   6.146   1.045 -0.0883 -0.0188 -0.8999
16904TIP3    H172127   1.880   6.225   1.080 -1.1095  0.7512 -1.3906
16904TIP3    H272128   1.745   6.168   1.043 -0.5702 -1.8407  0.5171
16905TIP3   OH272129   2.508   2.119   2.123 -0.1343  0.8803 -0.3719
16905TIP3    H172130   2.431   2.134   2.069 -0.1484 -1.6197 -1.0803
16905TIP3    H272131   2.580   2.110   2.061  0.7934  3.1404  0.2757
16906TIP3   OH272132   1.868   0.276  17.081  0.0135  0.0467 -0.2604
16906TIP3    H172133   1.834   0.358  17.047  0.7182 -0.1522 -1.4722
16906TIP3    H272134   1.824   0.264  17.165 -1.3157  0.8304 -0.8420
16907TIP3   OH272135   4.395   6.474  13.255  0.5591 -0.5784  0.0508
16907TIP3    H172136   4.396   6.539  13.325  1.4601  0.3028 -0.7746
16907TIP3    H272137   4.383   6.524  13.175  1.0470 -1.4422 -0.5751
16908TIP3   OH272138   4.832   3.211  14.095 -0.0485  0.1999  0.0959
16908TIP3    H172139   4.743   3.176  14.098  0.0470 -0.0650 -0.1074
16908TIP3    H272140   4.888   3.137  14.119  0.2024  0.0075 -1.0260
16909TIP3   OH272141   3.276   1.872   2.923  0.0576 -0.1533 -0.6614
16909TIP3    H172142   3.312   1.952   2.962  1.2028 -1.2415  0.5503
16909TIP3    H272143   3.192   1.859   2.968  0.3196 -0.1623 -0.1767
16910TIP3   OH272144   5.590   2.267  12.006 -0.0296  0.4052 -0.7255
16910TIP3    H172145   5.568   2.316  11.927  1.0231  0.1527 -1.1815
16910TIP3    H272146   5.681   2.241  11.994 -0.4200 -1.2241 -0.2599
16911TIP3   OH272147   1.948   0.017   3.016  0.6951  0.2348  0.1330
16911TIP3    H172148   1.910   0.101   2.988  1.7593  0.4371 -0.7392
16911TIP3    H272149   1.872  -0.036   3.041 -0.0419  1.2088  0.0233
16912TIP3   OH272150   1.862   3.251   3.481 -0.5975  0.4865 -0.2957
16912TIP3    H172151   1.791   3.308   3.511  0.5758  1.6356  0.3175
16912TIP3    H272152   1.853   3.249   3.386 -0.7207  1.5983 -0.3098
16913TIP3   OH272153   0.398   5.467   5.706 -0.4313  0.2672 -0.2195
16913TIP3    H172154   0.332   5.532   5.733  0.3290  0.0480  2.3119
16913TIP3    H272155   0.347   5.395   5.670 -1.4415  1.0943 -0.4880
16914TIP3   OH272156   5.953   1.434   5.052  0.2185 -0.3101 -0.4524
16914TIP3    H172157   5.946   1.387   5.135 -2.2608  2.9990  1.3151
16914TIP3    H272158   6.024   1.497   5.066  0.7744 -0.7180 -1.3778
16915TIP3   OH272159   0.251   0.062  14.850  0.2566  0.0334  0.0472
16915TIP3    H172160   0.164   0.088  14.881  0.3020  0.4398 -0.1655
16915TIP3    H272161   0.256   0.095  14.761  0.4768 -0.3461 -0.0823
16916TIP3   OH272162   6.080   0.956   5.458 -0.1991  0.2246  0.4765
16916TIP3    H172163   6.166   0.936   5.421  0.2413  0.0649  1.5743
16916TIP3    H272164   6.018   0.915   5.396  0.4264  1.6630 -1.1482
16917TIP3   OH272165   5.683   0.852   2.359  0.2801  0.4913 -0.8463
16917TIP3    H172166   5.742   0.905   2.305 -0.2175  1.4372 -0.4697
16917TIP3    H272167   5.723   0.852   2.445 -0.8146  2.0668 -0.3061
16918TIP3   OH272168   2.249   1.395   5.948  0.2691 -0.1371  0.1358
16918TIP3    H172169   2.343   1.401   5.931 -0.1168 -0.1184 -2.2255
16918TIP3    H272170   2.233   1.457   6.018  1.8087  0.9444 -0.4402
16919TIP3   OH272171   2.986   4.291  13.953  0.4808 -0.1678  0.1988
16919TIP3    H172172   2.980   4.351  14.027 -0.1796  1.2684 -0.9780
16919TIP3    H272173   2.989   4.204  13.992 -0.2776  0.5466  1.8991
16920TIP3   OH272174   6.623   2.673   0.196 -0.1893 -0.7964  0.4969
16920TIP3    H172175   6.635   2.588   0.239  0.0115 -0.5306  0.9735
16920TIP3    H272176   6.593   2.731   0.266 -2.1229 -0.9132 -0.2149
16921TIP3   OH272177   0.128   4.658   5.231 -0.0809  0.5387 -0.4293
16921TIP3    H172178   0.145   4.646   5.325  0.2462  0.4906 -0.4931
16921TIP3    H272179   0.215   4.667   5.192 -0.1175 -1.2056 -0.9644
16922TIP3   OH272180   1.181   3.876  11.620 -0.0164  0.1386 -0.4774
16922TIP3    H172181   1.202   3.812  11.551  4.0655  1.1230 -0.2552
16922TIP3    H272182   1.206   3.832  11.701 -1.7442  0.2447  0.1307
16923TIP3   OH272183   2.159   4.697   4.649  0.9712 -0.3571 -0.0173
16923TIP3    H172184   2.246   4.671   4.617  0.6674 -1.0928 -0.2696
16923TIP3    H272185   2.173   4.718   4.741  1.4114 -0.5176 -0.0433
16924TIP3   OH272186   1.872   2.927   2.438 -0.0879 -0.1429 -0.4153
16924TIP3    H172187   1.898   2.847   2.391  0.4031 -0.0071 -0.3814
16924TIP3    H272188   1.784   2.946   2.407 -0.0579 -0.4840 -0.7137
16925TIP3   OH272189   0.783   0.590   0.947  0.1222  0.0220 -0.3173
16925TIP3    H172190   0.875   0.584   0.920 -0.5120 -3.2907 -2.0624
16925TIP3    H272191   0.783   0.567   1.040  1.3314  2.7077  0.3778
16926TIP3   OH272192   1.619   1.721  14.622  0.4153  0.4618 -0.1475
16926TIP3    H172193   1.705   1.745  14.655  0.5327  1.5611 -1.1960
16926TIP3    H272194   1.608   1.774  14.542 -0.3056 -1.2749 -1.2396
16927TIP3   OH272195   0.124   2.153   2.191 -0.2848  0.2086  0.2010
16927TIP3    H172196   0.200   2.104   2.160 -1.3985 -1.6327  0.3353
16927TIP3    H272197   0.051   2.093   2.182 -1.8137  2.0891 -0.2722
16928TIP3   OH272198   3.103   5.123  17.161  0.0417 -0.0672  0.0184
16928TIP3    H172199   3.177   5.090  17.109 -1.0007  0.4702 -1.8737
16928TIP3    H272200   3.026   5.082  17.122 -0.7929  0.4827  1.0518
16929TIP3   OH272201   1.044   1.694  14.370  0.2635  0.3055 -0.3404
16929TIP3    H172202   1.000   1.774  14.338  0.6252  0.5389 -0.2566
16929TIP3    H272203   1.009   1.624  14.315 -1.9726  0.1316  1.2680
16930TIP3   OH272204   1.976   1.463  12.568  0.0112  0.0268  0.1626
16930TIP3    H172205   1.955   1.420  12.650  1.4816  0.2238  0.6562
16930TIP3    H272206   2.045   1.525  12.590  0.2817  0.2265 -1.1743
16931TIP3   OH272207   2.878   5.845  13.267 -0.0207  0.1840  0.1825
16931TIP3    H172208   2.899   5.762  13.225  1.8268 -0.0823  1.6065
16931TIP3    H272209   2.814   5.823  13.335 -0.7975  0.1978 -0.5266
16932TIP3   OH272210   2.745   2.580   3.852 -0.1919 -0.3814  0.5791
16932TIP3    H172211   2.678   2.645   3.833  1.6908  1.4980  0.0981
16932TIP3    H272212   2.791   2.568   3.769  0.2166 -1.4831  0.9474
16933TIP3   OH272213   6.655   5.534  17.098  0.0375  0.0691  0.2270
16933TIP3    H172214   6.639   5.515  17.006 -0.4489  1.3935  0.0410
16933TIP3    H272215   6.602   5.469  17.145 -1.5596  0.8799 -0.4206
16934TIP3   OH272216   0.075   3.371  11.650  0.4256  0.1251  0.4305
16934TIP3    H172217   0.034   3.321  11.721 -0.3072 -0.5051 -0.4366
16934TIP3    H272218   0.020   3.450  11.642 -0.3322 -0.4699 -0.3749
16935TIP3   OH272219   6.774   4.743  14.241 -0.1204 -0.0021  0.2051
16935TIP3    H172220   6.768   4.823  14.188 -0.9452 -0.7672 -0.8694
16935TIP3    H272221   6.684   4.711  14.246  0.4126 -1.6691 -0.6215
16936TIP3   OH272222   5.177   1.827   5.652  0.4362 -0.5442  0.0863
16936TIP3    H172223   5.243   1.844   5.718 -0.9471 -1.7109  1.8218
16936TIP3    H272224   5.137   1.744   5.678 -0.5907 -0.6899 -1.8331
16937TIP3   OH272225   3.929   3.548   3.991 -0.3551  0.1778 -0.3424
16937TIP3    H172226   3.908   3.477   4.051  0.3413 -0.1128 -0.4350
16937TIP3    H272227   3.873   3.533   3.915  0.5740 -0.9227 -0.8319
16938TIP3   OH272228   0.174   1.994  11.798 -0.2399 -0.2294 -0.2751
16938TIP3    H172229   0.249   2.041  11.836 -0.0372  0.8775 -2.0110
16938TIP3    H272230   0.214   1.930  11.739 -0.6253 -0.6614 -0.0692
16939TIP3   OH272231   6.415   0.351   4.525  0.2011 -0.5572 -0.0080
16939TIP3    H172232   6.451   0.426   4.572 -1.8864 -0.0489  0.8092
16939TIP3    H272233   6.413   0.379   4.434 -0.2460  0.2687  0.2466
16940TIP3   OH272234   3.099   2.754   2.726  0.0579 -0.5138 -0.7007
16940TIP3    H172235   3.140   2.801   2.653 -1.0351 -0.3249 -1.2091
16940TIP3    H272236   3.060   2.676   2.685  0.3607 -0.9608 -0.1460
16941TIP3   OH272237   3.916   6.158  12.153 -0.2021 -0.1006 -0.5455
16941TIP3    H172238   3.995   6.186  12.199  0.6093  0.5279 -2.2651
16941TIP3    H272239   3.942   6.155  12.060 -2.7790  2.2471 -1.4153
16942TIP3   OH272240   0.808   1.117  12.147  0.7194 -0.4248  0.4081
16942TIP3    H172241   0.820   1.055  12.075 -0.0375 -0.4465  0.3016
16942TIP3    H272242   0.767   1.194  12.107 -0.9384 -0.9524  1.0454
16943TIP3   OH272243   0.833   3.376  10.478  0.7491  0.0182  0.1704
16943TIP3    H172244   0.782   3.404  10.403  1.9022  0.5056 -0.4468
16943TIP3    H272245   0.824   3.446  10.542 -1.1431 -0.8970  0.9578
16944TIP3   OH272246   1.285   0.858   1.987  0.4888 -0.4244  0.0923
16944TIP3    H172247   1.351   0.794   1.962 -1.1375 -1.4886 -1.5501
16944TIP3    H272248   1.254   0.828   2.073  1.0380 -0.7938  0.1623
16945TIP3   OH272249   5.853   2.734   1.659  0.3462 -0.8208  0.3740
16945TIP3    H172250   5.852   2.767   1.569  0.3461 -0.8791  0.3527
16945TIP3    H272251   5.913   2.660   1.657 -0.1264 -1.2089  0.2833
16946TIP3   OH272252   2.878   6.236   5.441  0.1349  0.4179  0.2648
16946TIP3    H172253   2.813   6.167   5.428 -0.2164  0.2849  2.3835
16946TIP3    H272254   2.941   6.225   5.371 -0.7281 -1.1234 -0.2796
16947TIP3   OH272255   6.050   5.872   0.096  0.5887 -0.2033  0.0241
16947TIP3    H172256   5.989   5.868   0.169  1.9212 -3.4822  1.0156
16947TIP3    H272257   6.002   5.834   0.022  0.3242  0.2487 -0.0407
16948TIP3   OH272258   4.415   5.904   2.255  0.4705 -0.1419  0.5539
16948TIP3    H172259   4.326   5.889   2.289  0.3863 -1.9677 -0.4413
16948TIP3    H272260   4.455   5.818   2.253  2.2441  0.6661  0.8798
16949TIP3   OH272261   4.515   5.969   4.158  0.3982  0.2373 -0.5602
16949TIP3    H172262   4.500   5.902   4.225 -0.5392  1.3987  0.4249
16949TIP3    H272263   4.499   5.924   4.075  1.3835 -1.1647  0.0049
16950TIP3   OH272264   6.640   1.558   2.426 -0.5824 -0.3453  0.0952
16950TIP3    H172265   6.704   1.501   2.469  1.4078  1.3592 -0.5286
16950TIP3    H272266   6.609   1.616   2.496  0.0179  0.1079 -0.0118
16951TIP3   OH272267   2.128   2.234  16.221 -0.0556 -0.2378  0.3655
16951TIP3    H172268   2.160   2.281  16.298 -1.5536 -1.2344  1.6292
16951TIP3    H272269   2.109   2.146  16.253 -0.3525 -0.7697 -1.2333
16952TIP3   OH272270   5.253   3.597  14.691 -0.5449  0.0924 -0.1336
16952TIP3    H172271   5.176   3.539  14.691 -0.5105  0.0332  0.8803
16952TIP3    H272272   5.294   3.583  14.606 -1.1875 -0.5110 -0.3498
16953TIP3   OH272273   5.482   4.207   4.618 -0.4000 -0.0921 -0.5232
16953TIP3    H172274   5.427   4.206   4.696 -1.4707 -0.0881 -1.2594
16953TIP3    H272275   5.444   4.141   4.561  0.6277 -0.3861 -0.8729
16954TIP3   OH272276   0.428   3.326   5.199 -0.2692  0.4011 -0.4073
16954TIP3    H172277   0.383   3.366   5.274 -0.6003 -2.4487  1.0159
16954TIP3    H272278   0.512   3.371   5.194 -0.5906  1.2143  1.1531
16955TIP3   OH272279   0.440   2.137  14.130 -0.3400  0.0830 -0.3812
16955TIP3    H172280   0.361   2.177  14.093  0.3266  1.4376 -0.3255
16955TIP3    H272281   0.408   2.084  14.203 -1.3773 -0.6347 -1.3319
16956TIP3   OH272282   6.588   4.814  14.753 -0.4054  0.9274  0.4370
16956TIP3    H172283   6.650   4.832  14.824 -0.3180  0.3803  0.4993
16956TIP3    H272284   6.567   4.901  14.717 -0.2322  1.1822  0.9439
16957TIP3   OH272285   0.379   0.818   1.857 -0.0174 -0.2106  0.0635
16957TIP3    H172286   0.465   0.838   1.821 -0.8958 -2.6981 -3.7092
16957TIP3    H272287   0.325   0.894   1.834  0.2936 -0.2245 -0.7023
16958TIP3   OH272288   3.765   4.299   3.594  0.7266  0.5360  0.2767
16958TIP3    H172289   3.854   4.315   3.560  1.1855 -1.7387  0.3184
16958TIP3    H272290   3.710   4.295   3.516  1.4413 -2.5782 -0.1478
16959TIP3   OH272291   0.913   1.364  12.488 -0.2381  0.2120 -0.0463
16959TIP3    H172292   0.874   1.434  12.540  1.0654  0.5729  0.4665
16959TIP3    H272293   0.846   1.296  12.485 -1.1599  1.0967  0.2425
16960TIP3   OH272294   0.106   4.162  12.610 -0.2253  0.2543  0.6342
16960TIP3    H172295   0.047   4.114  12.551  0.4266  0.0351  0.1526
16960TIP3    H272296   0.115   4.248  12.569 -0.1211  0.2480  0.6441
16961TIP3   OH272297   3.563   6.268   4.175 -0.5008  0.4121 -0.1364
16961TIP3    H172298   3.600   6.192   4.131  1.3245  0.6478  0.9263
16961TIP3    H272299   3.543   6.329   4.103  1.0609  0.2124 -0.7788
16962TIP3   OH272300   6.689   4.155  11.591 -0.1538  0.9580 -0.2766
16962TIP3    H172301   6.733   4.232  11.555 -0.3226  1.1224 -0.1324
16962TIP3    H272302   6.598   4.167  11.566  0.1073 -0.0805 -1.7861
16963TIP3   OH272303   3.528   3.265   2.816 -0.0704 -0.1098 -0.0604
16963TIP3    H172304   3.550   3.322   2.889 -1.7090 -0.7140  0.9444
16963TIP3    H272305   3.458   3.208   2.850 -0.7525 -0.5065 -2.0404
16964TIP3   OH272306   0.167   4.618   3.621 -0.1814  0.3959 -0.5125
16964TIP3    H172307   0.211   4.683   3.676  0.0810  0.6059 -0.9619
16964TIP3    H272308   0.099   4.580   3.677  1.1871 -0.6096  0.4811
16965TIP3   OH272309   2.656   1.728   0.719  0.7331 -0.6949 -1.1384
16965TIP3    H172310   2.690   1.639   0.728 -1.2812 -1.3700  0.1039
16965TIP3    H272311   2.563   1.720   0.739  0.7873  1.9286  0.3273
16966TIP3   OH272312   0.999   1.017   2.075  0.0211  0.2409  0.1216
16966TIP3    H172313   1.066   0.949   2.080 -0.5479 -0.2855  0.5966
16966TIP3    H272314   0.980   1.039   2.166 -0.8668 -0.0163 -0.0028
16967TIP3   OH272315   1.910   1.354   3.518 -0.1082 -0.3578 -0.2969
16967TIP3    H172316   1.816   1.340   3.514 -0.2094  0.2513 -0.1525
16967TIP3    H272317   1.944   1.317   3.437 -0.3301 -1.5844  0.1484
16968TIP3   OH272318   4.168   6.615  11.917 -0.3781  0.0765  0.1140
16968TIP3    H172319   4.258   6.607  11.951 -0.1292  2.3201  0.0660
16968TIP3    H272320   4.117   6.641  11.993 -0.9801 -1.1090  0.1177
16969TIP3   OH272321   3.351   2.729   1.325  0.7590  0.0831 -0.8472
16969TIP3    H172322   3.419   2.693   1.382  1.4037 -1.9408 -2.8181
16969TIP3    H272323   3.272   2.681   1.349  0.7390  0.1751 -0.7318
16970TIP3   OH272324   6.645   4.357   4.954  0.1837 -0.3030  0.0568
16970TIP3    H172325   6.557   4.319   4.954  0.2518 -0.5174  1.9865
16970TIP3    H272326   6.666   4.370   4.861 -1.7043 -0.6450 -0.4352
16971TIP3   OH272327   0.987   4.369   4.676 -0.3511  0.0919 -0.1315
16971TIP3    H172328   1.077   4.338   4.689 -0.9091 -1.0411  1.1729
16971TIP3    H272329   0.969   4.356   4.583  0.3839 -0.8975 -0.1372
16972TIP3   OH272330   0.158   2.099  10.756  0.0820 -0.1150  0.0035
16972TIP3    H172331   0.157   2.021  10.812  2.0051  0.2107  0.5269
16972TIP3    H272332   0.066   2.126  10.750 -0.5658 -2.1784  0.1428
16973TIP3   OH272333   1.025   1.106   5.296  0.0662 -0.7122  0.1726
16973TIP3    H172334   0.950   1.048   5.310 -0.4992  0.2226  1.0719
16973TIP3    H272335   0.995   1.166   5.228  0.2731 -0.8084 -0.0033
16974TIP3   OH272336   3.216   3.682  16.596 -0.5322 -0.1900  0.1828
16974TIP3    H172337   3.205   3.649  16.507 -2.7183  0.2518  0.2631
16974TIP3    H272338   3.302   3.723  16.596 -0.4557 -0.3125 -1.6905
16975TIP3   OH272339   0.299   3.677   0.325 -0.4818 -0.3031  0.0258
16975TIP3    H172340   0.260   3.628   0.398  1.1381  1.0724  1.8351
16975TIP3    H272341   0.256   3.762   0.327 -0.7609 -0.4087 -0.9401
16976TIP3   OH272342   4.309   4.057   5.446 -0.2294  0.2824  0.3198
16976TIP3    H172343   4.273   4.084   5.530 -0.7602  3.0278 -0.7269
16976TIP3    H272344   4.396   4.023   5.466 -1.5423 -2.0467  2.3300
16977TIP3   OH272345   4.929   0.093   2.477 -0.4238  0.1641  0.0754
16977TIP3    H172346   4.870   0.161   2.510 -0.4035  0.2081  0.0217
16977TIP3    H272347   4.928   0.025   2.545 -0.1677  0.3799  0.3010
16978TIP3   OH272348   1.950   6.263  15.831 -0.1856 -0.0230 -0.4561
16978TIP3    H172349   1.909   6.296  15.911 -0.4477  0.1508 -0.6590
16978TIP3    H272350   1.968   6.341  15.779  1.7219  0.0198  0.2437
16979TIP3   OH272351   4.254   3.771   3.541  0.1242 -0.2603  0.3369
16979TIP3    H172352   4.325   3.746   3.599  3.0231  1.8666 -2.1378
16979TIP3    H272353   4.218   3.688   3.510  1.2644 -1.3732  1.9404
16980TIP3   OH272354   1.547   3.150  14.555 -0.1973 -0.2672  0.5553
16980TIP3    H172355   1.501   3.069  14.530  1.3894 -0.4753 -1.8290
16980TIP3    H272356   1.516   3.215  14.492  0.6449  0.2802  0.7051
16981TIP3   OH272357   4.134   2.199  16.607 -0.0079  0.4473  0.0255
16981TIP3    H172358   4.171   2.112  16.612 -0.2330  0.2591 -1.4801
16981TIP3    H272359   4.201   2.256  16.646  0.9044 -0.1691 -0.6152
16982TIP3   OH272360   3.547   0.428  11.053  0.1081 -0.1760  0.4136
16982TIP3    H172361   3.584   0.341  11.071 -0.1413 -0.3394  0.1473
16982TIP3    H272362   3.614   0.472  11.000 -0.5664 -0.8963 -1.0714
16983TIP3   OH272363   5.312   1.368  15.994 -0.3910  0.0971  0.5706
16983TIP3    H172364   5.319   1.388  15.900  1.5228 -0.0564  0.6487
16983TIP3    H272365   5.284   1.450  16.034 -0.9223  0.2495 -0.0991
16984TIP3   OH272366   3.714   0.659  16.145  0.2546 -0.2667 -0.3607
16984TIP3    H172367   3.738   0.611  16.223 -1.7005 -0.4595  0.1510
16984TIP3    H272368   3.707   0.593  16.076 -1.7762 -0.6695  0.1927
16985TIP3   OH272369   0.511   1.868   1.933  0.4401 -0.2785 -0.5797
16985TIP3    H172370   0.545   1.805   1.996  1.6615 -0.3427 -1.2932
16985TIP3    H272371   0.478   1.814   1.860 -1.0298 -0.2097  0.0156
16986TIP3   OH272372   6.403   3.090  15.228 -0.4813  0.3840  0.6096
16986TIP3    H172373   6.375   3.178  15.251  1.0662  1.0582  0.0020
16986TIP3    H272374   6.438   3.055  15.310 -0.3625  0.6305  0.6651
16987TIP3   OH272375   3.754   0.697   3.639 -0.6399  0.0030  0.4286
16987TIP3    H172376   3.673   0.645   3.643 -0.8424  0.4362  2.1781
16987TIP3    H272377   3.802   0.673   3.718  0.5704  0.3921 -0.1715
16988TIP3   OH272378   4.566   2.795   2.870 -0.1504  0.4726 -0.4938
16988TIP3    H172379   4.498   2.808   2.936 -0.3487 -1.7603 -0.2140
16988TIP3    H272380   4.529   2.832   2.790 -0.2788  2.3663  0.4344
16989TIP3   OH272381   4.404   4.583   0.908  0.2519  0.4895  0.3978
16989TIP3    H172382   4.493   4.590   0.874  0.4298 -0.7404  0.5869
16989TIP3    H272383   4.363   4.666   0.886  0.6492  0.0685 -1.9978
16990TIP3   OH272384   6.291   5.676   5.395 -0.5460 -0.0454  0.3226
16990TIP3    H172385   6.384   5.665   5.375 -0.6700  1.5668 -1.3295
16990TIP3    H272386   6.263   5.591   5.429  0.6965 -1.7018 -2.5928
16991TIP3   OH272387   3.198   0.823   1.276  0.4849 -0.2115  0.2022
16991TIP3    H172388   3.130   0.880   1.240  1.4184  0.8855  0.1643
16991TIP3    H272389   3.149   0.753   1.319 -0.6369 -1.3726 -2.8785
16992TIP3   OH272390   6.770   1.122   2.913  0.3156  0.5697 -0.0643
16992TIP3    H172391   6.862   1.138   2.933  0.8324 -1.3325 -0.8190
16992TIP3    H272392   6.726   1.122   2.998  1.1082  0.9102  0.3483
16993TIP3   OH272393   6.412   2.137  13.141  0.0286 -0.2945 -0.1532
16993TIP3    H172394   6.491   2.088  13.119  0.2918 -0.3801  0.9741
16993TIP3    H272395   6.432   2.227  13.116  0.7254 -0.2003  0.7513
16994TIP3   OH272396   2.717   0.114   1.050  0.2717  0.1371  0.5226
16994TIP3    H172397   2.691   0.205   1.037 -1.6475 -0.8111 -2.5771
16994TIP3    H272398   2.794   0.103   0.994 -0.6876 -0.6581 -0.6573
16995TIP3   OH272399   1.049   2.609  12.642  0.4061  0.2985 -0.4473
16995TIP3    H172400   1.046   2.702  12.617  0.7793  0.1017 -1.2346
16995TIP3    H272401   1.099   2.609  12.724  0.1118  0.8312 -0.2634
16996TIP3   OH272402   2.640   4.906  16.220 -0.2270 -0.4574 -0.6226
16996TIP3    H172403   2.692   4.923  16.141  0.4901  1.4271  0.2048
16996TIP3    H272404   2.611   4.816  16.211  0.6713 -0.5836 -2.5711
16997TIP3   OH272405   4.906   1.988   3.692 -0.2667 -0.2906  0.3286
16997TIP3    H172406   4.845   1.941   3.635  1.1365 -0.7655 -0.8075
16997TIP3    H272407   4.879   1.964   3.780 -1.2942 -1.0473 -0.1804
16998TIP3   OH272408   1.211   4.583   2.199 -0.5797 -0.0694  0.1726
16998TIP3    H172409   1.210   4.673   2.168  1.7546 -0.4158 -0.9881
16998TIP3    H272410   1.274   4.539   2.143 -2.4076 -2.6768  0.0880
16999TIP3   OH272411   2.297   6.621  11.472  0.5795  0.4372  0.2569
16999TIP3    H172412   2.363   6.597  11.537  0.7769  1.3126  0.3918
16999TIP3    H272413   2.338   6.603  11.388  0.4208 -0.4572  0.3663
17000TIP3   OH272414   3.821   6.259  13.415  0.3600 -0.4958  0.8615
17000TIP3    H172415   3.804   6.173  13.376 -1.3889 -0.1866  0.9202
17000TIP3    H272416   3.792   6.251  13.505 -0.7346  0.4459  0.6034
17001TIP3   OH272417   3.818   5.593  15.585 -0.5619 -0.1093 -0.0646
17001TIP3    H172418   3.837   5.668  15.528 -3.0399 -0.6408 -1.6521
17001TIP3    H272419   3.901   5.574  15.628  0.9388  1.3824 -2.2233
17002TIP3   OH272420   1.401   2.834  12.139 -0.2379  0.4883  0.3420
17002TIP3    H172421   1.482   2.832  12.190 -0.3272  2.4558  0.5701
17002TIP3    H272422   1.374   2.925  12.139 -0.5325  0.4539 -2.8047
17003TIP3   OH272423   0.140   3.431   0.252 -0.1576  0.0266  0.3267
17003TIP3    H172424   0.080   3.381   0.198 -0.5507  1.9852 -1.1165
17003TIP3    H272425   0.105   3.425   0.341 -0.4398 -1.8301  0.0989
17004TIP3   OH272426   2.210   4.253   0.981 -0.0764 -0.2059  0.0484
17004TIP3    H172427   2.190   4.280   1.071  1.6987 -0.1142  0.4299
17004TIP3    H272428   2.244   4.164   0.990  0.7103  0.0434 -0.4563
17005TIP3   OH272429   2.859   5.343  13.736  1.0727  0.3233 -0.0915
17005TIP3    H172430   2.789   5.288  13.699  1.1564 -0.3703  0.7592
17005TIP3    H272431   2.937   5.287  13.733  1.4074  0.8068 -0.2865
17006TIP3   OH272432   3.946   2.395  16.610 -0.4689 -0.4079  0.5688
17006TIP3    H172433   3.886   2.342  16.557 -1.5138  0.2696  1.0396
17006TIP3    H272434   4.032   2.355  16.597 -1.0446 -1.4813 -0.0299
17007TIP3   OH272435   5.341   3.204   1.699 -0.0068  0.6377  0.1219
17007TIP3    H172436   5.246   3.197   1.700  0.0870 -0.7232  0.0260
17007TIP3    H272437   5.369   3.149   1.626  1.0381 -1.6860  2.1961
17008TIP3   OH272438   5.860   5.261  12.765  0.0887 -0.2025 -0.0201
17008TIP3    H172439   5.834   5.250  12.673  0.5368 -0.0943 -0.1594
17008TIP3    H272440   5.914   5.184  12.784 -2.2378 -1.6707  0.9661
17009TIP3   OH272441   5.527   0.858  11.478  0.6037  0.2552  0.3990
17009TIP3    H172442   5.579   0.901  11.546 -0.4203  1.8976  0.1827
17009TIP3    H272443   5.440   0.898  11.486  0.3670  0.1816 -1.5962
17010TIP3   OH272444   5.816   0.490   2.461 -0.0133  0.0664  0.2154
17010TIP3    H172445   5.911   0.501   2.467 -0.1072 -0.2462  2.3704
17010TIP3    H272446   5.803   0.395   2.457 -0.2597  0.1087 -0.0332
17011TIP3   OH272447   1.643   1.374   1.421 -0.6322 -0.7944  0.6608
17011TIP3    H172448   1.574   1.396   1.358  0.1141  0.1422  0.1526
17011TIP3    H272449   1.614   1.413   1.503 -0.4157  0.1318  0.2991
17012TIP3   OH272450   0.973   1.408   3.326 -0.4843  0.1554 -0.3507
17012TIP3    H172451   0.987   1.363   3.243  1.8220 -0.3391  0.2739
17012TIP3    H272452   1.061   1.432   3.356 -1.2903  0.4700  1.8691
17013TIP3   OH272453   4.507   6.583  11.235 -0.4068 -0.4731 -0.6235
17013TIP3    H172454   4.541   6.619  11.317  0.6386 -0.1330 -1.1871
17013TIP3    H272455   4.561   6.505  11.219 -1.8030 -1.5752 -0.0784
17014TIP3   OH272456   1.966   6.451  12.593  0.1759 -0.2376  0.1221
17014TIP3    H172457   1.999   6.538  12.570 -0.5027 -0.2333 -0.8769
17014TIP3    H272458   2.034   6.413  12.649  0.4136  0.9846  0.6768
17015TIP3   OH272459   4.968   1.955  11.465 -0.2158 -0.3392  0.1089
17015TIP3    H172460   4.977   1.962  11.560 -0.0340 -1.4467  0.1833
17015TIP3    H272461   4.882   1.913  11.453  0.3540 -1.4359 -0.1639
17016TIP3   OH272462   4.126   5.641  10.881  0.2306 -0.1032 -0.4806
17016TIP3    H172463   4.038   5.627  10.846 -0.8695 -1.4605  2.6380
17016TIP3    H272464   4.146   5.733  10.862 -3.1160  1.0883  1.3590
17017TIP3   OH272465   6.753   4.628  11.944 -1.2555 -0.2552  0.0086
17017TIP3    H172466   6.710   4.708  11.975 -1.5108  0.1708 -1.4132
17017TIP3    H272467   6.718   4.614  11.856  0.8020 -0.4242 -0.8224
17018TIP3   OH272468   6.099   4.744   4.372  0.0554  0.2759 -0.6222
17018TIP3    H172469   6.111   4.649   4.377  1.0290  0.3853 -0.7243
17018TIP3    H272470   6.004   4.756   4.370 -0.0693 -0.7210 -1.1653
17019TIP3   OH272471   0.472   0.521   5.320  0.0095 -0.0615 -0.7283
17019TIP3    H172472   0.507   0.515   5.232  0.5350  0.1327 -0.5386
17019TIP3    H272473   0.478   0.614   5.342 -1.4536  0.1182 -1.0179
17020TIP3   OH272474   1.210   3.923   3.153 -0.3851  0.0266 -0.2921
17020TIP3    H172475   1.146   3.863   3.114 -0.7896  0.4424 -0.2691
17020TIP3    H272476   1.157   3.996   3.186  0.0833  0.2797 -0.1032
17021TIP3   OH272477   1.244   3.067  14.061  0.0544  0.6582  0.0372
17021TIP3    H172478   1.155   3.098  14.049 -0.6080 -0.8128  1.0124
17021TIP3    H272479   1.243   2.976  14.030  1.2109  0.6418  0.0140
17022TIP3   OH272480   4.111   4.767   6.154  0.5591  0.0133 -0.2278
17022TIP3    H172481   4.064   4.753   6.236  2.0178  0.8702  0.7879
17022TIP3    H272482   4.089   4.856   6.128  0.1634 -0.2282 -0.7174
17023TIP3   OH272483   0.338   6.424  16.642 -0.0587  0.1582 -0.1710
17023TIP3    H172484   0.307   6.341  16.679 -1.8332  0.6749 -0.4396
17023TIP3    H272485   0.404   6.454  16.703 -0.5380 -0.6786  0.7827
17024TIP3   OH272486   5.266   5.693  13.591  0.4495  0.1018  0.2147
17024TIP3    H172487   5.251   5.704  13.685 -0.2228 -1.0705  0.2558
17024TIP3    H272488   5.181   5.706  13.550  0.8321  1.0904 -0.2884
17025TIP3   OH272489   5.035   2.509  16.256 -0.3165  0.1707  0.6416
17025TIP3    H172490   4.953   2.557  16.240 -0.6441 -0.3665  0.7094
17025TIP3    H272491   5.078   2.506  16.170 -0.5220  0.1702  0.5363
17026TIP3   OH272492   5.303   2.251  14.871 -0.1956  0.6540  0.3724
17026TIP3    H172493   5.387   2.285  14.903 -1.1151  1.6234  1.8095
17026TIP3    H272494   5.240   2.321  14.889 -1.3980 -0.2507 -0.2540
17027TIP3   OH272495   2.721   1.420  14.133  0.5818  0.1651  0.1260
17027TIP3    H172496   2.806   1.442  14.170 -0.4384  0.2557  2.4663
17027TIP3    H272497   2.661   1.485  14.170 -0.5060  0.1911 -1.5992
17028TIP3   OH272498   2.453   3.845   1.103  0.6020  0.1982  0.3113
17028TIP3    H172499   2.393   3.771   1.097  1.1738 -0.1743 -1.1144
17028TIP3    H272500   2.406   3.918   1.061 -0.4986  1.0236  2.9048
17029TIP3   OH272501   0.320   2.231   3.889 -0.2380  0.8878 -0.0965
17029TIP3    H172502   0.243   2.283   3.865 -1.3646 -0.8284 -0.2366
17029TIP3    H272503   0.378   2.294   3.933 -0.0417  3.1016 -3.2666
17030TIP3   OH272504   3.960   0.783   4.782  0.1110  0.3296 -0.2443
17030TIP3    H172505   4.024   0.726   4.825  1.5440  0.9809 -1.4714
17030TIP3    H272506   3.970   0.764   4.689 -1.2060  0.7518 -0.4812
17031TIP3   OH272507   0.634   6.182   3.736 -0.2823  0.1559 -0.0214
17031TIP3    H172508   0.640   6.216   3.825 -1.0992  1.9369 -0.6252
17031TIP3    H272509   0.718   6.139   3.721  0.4990  1.2991  1.0131
17032TIP3   OH272510   3.969   2.750  15.983  0.2186  0.5322  0.2635
17032TIP3    H172511   3.909   2.684  15.948  0.7895 -0.5102  1.2394
17032TIP3    H272512   4.018   2.780  15.906  1.1518 -1.4266  0.0479
17033TIP3   OH272513   0.317   1.386  13.468 -0.6507  0.6315  0.1298
17033TIP3    H172514   0.286   1.415  13.554 -0.9349  0.7850 -0.0265
17033TIP3    H272515   0.412   1.375  13.480 -0.9770 -1.4392  1.0517
17034TIP3   OH272516   0.356   6.397   5.252 -0.2249  0.2183 -0.5615
17034TIP3    H172517   0.315   6.379   5.337  0.4161 -0.0443 -0.3058
17034TIP3    H272518   0.285   6.434   5.199 -1.3679 -2.3103 -0.8510
17035TIP3   OH272519   5.350   4.729   4.376  0.1900 -0.1210  0.3905
17035TIP3    H172520   5.295   4.805   4.396  0.6329  0.4924 -0.6766
17035TIP3    H272521   5.312   4.658   4.427 -1.4843  0.3395 -0.1815
17036TIP3   OH272522   3.607   1.502  14.856  0.3209 -0.5996 -0.2315
17036TIP3    H172523   3.678   1.438  14.848 -0.1099 -1.0186 -0.7268
17036TIP3    H272524   3.651   1.583  14.881  0.8618 -1.1098  0.5107
17037TIP3   OH272525   1.483   6.026  12.865  0.7194  0.2593  0.5835
17037TIP3    H172526   1.451   6.061  12.781  1.3203 -0.4499  0.0512
17037TIP3    H272527   1.508   6.103  12.915  2.1558  0.5983 -0.6320
17038TIP3   OH272528   2.591   3.004   5.612 -0.4934 -0.5462 -0.2102
17038TIP3    H172529   2.682   3.011   5.638 -0.6625 -1.8610  0.7839
17038TIP3    H272530   2.542   3.030   5.690 -0.9863  0.8116 -0.9417
17039TIP3   OH272531   3.061   2.641   1.117  0.6563 -0.0870  0.3756
17039TIP3    H172532   3.099   2.583   1.051  0.1101  0.1190 -0.1205
17039TIP3    H272533   3.107   2.724   1.106 -0.3579  0.3533 -0.6434
17040TIP3   OH272534   1.239   3.269  14.750  0.4807 -0.2518  0.1798
17040TIP3    H172535   1.265   3.178  14.734  1.2171 -0.1643  0.8628
17040TIP3    H272536   1.156   3.262  14.798  0.9542 -0.5765  0.9531
17041TIP3   OH272537   4.628   2.037   1.996 -0.1004  0.2211 -0.3160
17041TIP3    H172538   4.625   1.942   1.985 -0.6604  0.3146 -1.0222
17041TIP3    H272539   4.568   2.071   1.930  0.0892  1.0703 -0.0639
17042TIP3   OH272540   3.839   3.930  11.994 -0.0225  0.7092  0.1991
17042TIP3    H172541   3.783   3.856  12.018  1.5239 -0.2720  0.8321
17042TIP3    H272542   3.835   3.933  11.899  0.4794 -0.6603  0.1197
17043TIP3   OH272543   0.042   4.092   4.230  0.5946 -0.3092 -0.3559
17043TIP3    H172544   0.077   4.013   4.272 -0.1083 -0.5267 -0.1724
17043TIP3    H272545  -0.010   4.134   4.298 -1.9185 -1.5238 -1.4678
17044TIP3   OH272546   0.210   0.838   1.086  0.1675 -0.2458  0.3741
17044TIP3    H172547   0.260   0.759   1.067 -1.2397 -0.6329 -1.9491
17044TIP3    H272548   0.270   0.893   1.137  1.8371 -1.9746  0.3119
17045TIP3   OH272549   5.997   6.346   4.310 -0.0717 -0.4718  0.4024
17045TIP3    H172550   6.032   6.274   4.362 -0.4398 -1.4076 -0.6225
17045TIP3    H272551   6.074   6.390   4.275  0.1493 -0.5340  0.8081
17046TIP3   OH272552   3.320   5.937  14.161  0.5899 -0.5486 -0.0009
17046TIP3    H172553   3.331   5.878  14.235  0.1074  1.4672  1.7385
17046TIP3    H272554   3.409   5.959  14.133  0.7699 -1.6950 -0.3630
17047TIP3   OH272555   6.720   5.509  13.934  0.0732 -0.0499 -0.1645
17047TIP3    H172556   6.710   5.579  13.999  0.6895 -0.2615  0.1562
17047TIP3    H272557   6.646   5.522  13.874  0.8815  1.6443 -0.8302
17048TIP3   OH272558   3.400   0.842  16.389 -0.2082  1.2394  0.4195
17048TIP3    H172559   3.333   0.814  16.451  0.5054 -0.7891  0.3080
17048TIP3    H272560   3.372   0.805  16.305  1.1176  0.2098  0.4014
17049TIP3   OH272561   2.088   2.801   2.936  0.1353 -0.0948  0.1514
17049TIP3    H172562   2.082   2.709   2.962 -0.6261 -0.2012 -0.3657
17049TIP3    H272563   2.075   2.799   2.841  0.6621  0.4934  0.0706
17050TIP3   OH272564   1.062   3.282  16.639  0.1808 -0.5429  0.3297
17050TIP3    H172565   1.036   3.374  16.644 -1.0171 -0.9810  2.4904
17050TIP3    H272566   1.107   3.275  16.554 -1.7223  1.5016 -0.9054
17051TIP3   OH272567   6.409   1.203   2.785 -0.4326  0.5976 -0.0318
17051TIP3    H172568   6.317   1.221   2.805 -0.2459  0.7590  0.6812
17051TIP3    H272569   6.428   1.121   2.830 -0.4786  0.0903 -0.9264
17052TIP3   OH272570   2.685   6.114   1.073  0.6033  0.3533 -1.0927
17052TIP3    H172571   2.698   6.032   1.120 -1.7285  0.3688 -0.3400
17052TIP3    H272572   2.632   6.090   0.996 -1.4435  1.3345 -0.0430
17053TIP3   OH272573   2.366   4.236   5.522  0.0833 -0.3532  0.1927
17053TIP3    H172574   2.340   4.169   5.586 -1.4439  1.4980  1.5688
17053TIP3    H272575   2.319   4.213   5.442  1.6790 -2.4507 -0.1671
17054TIP3   OH272576   6.714   0.005   5.162  0.2601 -0.2015 -0.4701
17054TIP3    H172577   6.692  -0.086   5.146  0.2517 -0.0756 -1.2210
17054TIP3    H272578   6.647   0.055   5.114 -0.3156  0.2049  0.7402
17055TIP3   OH272579   3.251   6.644   0.252 -0.2180 -0.2775  0.0610
17055TIP3    H172580   3.201   6.643   0.170 -1.3855 -0.0431  0.7465
17055TIP3    H272581   3.309   6.569   0.246  1.8631  1.4575 -2.2800
17056TIP3   OH272582   4.722   1.919   4.205  0.1471  0.0956 -0.1591
17056TIP3    H172583   4.785   1.973   4.251  1.6201 -1.7379  0.0526
17056TIP3    H272584   4.677   1.870   4.273  0.8530 -1.0598 -0.5009
17057TIP3   OH272585   6.274   6.450   2.280  0.8127  0.3017 -0.3388
17057TIP3    H172586   6.358   6.421   2.314  0.1175  0.7903  1.9055
17057TIP3    H272587   6.229   6.488   2.356 -2.0968 -1.5035 -1.0635
17058TIP3   OH272588   6.513   6.400   2.064  0.4445  0.7289  0.5389
17058TIP3    H172589   6.525   6.493   2.081  0.3382  0.5574  1.6029
17058TIP3    H272590   6.573   6.357   2.125  1.7171  0.1374 -1.0974
17059TIP3   OH272591   5.154   1.034  12.525  0.3998 -0.0331 -0.0183
17059TIP3    H172592   5.105   0.986  12.459  0.3244 -0.4563  0.3423
17059TIP3    H272593   5.240   0.992  12.527  0.3528 -0.1154  0.2595
17060TIP3   OH272594   2.776   1.499   1.203 -0.1041  0.0041  0.6426
17060TIP3    H172595   2.703   1.437   1.207 -0.8423  0.6278 -2.0421
17060TIP3    H272596   2.788   1.527   1.293 -2.1100 -1.3434  1.3786
17061TIP3   OH272597   6.499   0.288  12.354 -0.2356 -0.2798  0.1175
17061TIP3    H172598   6.447   0.331  12.422  1.7687  0.9264  0.9403
17061TIP3    H272599   6.474   0.332  12.273  0.6532  1.4169  0.7319
17062TIP3   OH272600   1.461   3.445   4.532 -0.4480  0.5910  0.2098
17062TIP3    H172601   1.412   3.375   4.490  1.7583 -0.2721 -0.9727
17062TIP3    H272602   1.520   3.400   4.593 -0.0965  1.5057  0.5522
17063TIP3   OH272603   6.570   2.470  14.485  0.0454  0.2200  0.5362
17063TIP3    H172604   6.545   2.378  14.471  0.7176  0.4898 -2.8334
17063TIP3    H272605   6.649   2.466  14.537  2.4216 -1.3753 -2.9942
17064TIP3   OH272606   5.167   0.658   0.675  0.1184  0.4823 -0.1211
17064TIP3    H172607   5.163   0.749   0.646  1.2441  0.2715 -1.0102
17064TIP3    H272608   5.113   0.655   0.754 -0.2335  1.8325 -0.2933
17065TIP3   OH272609   5.470   1.114  14.167 -0.4080 -0.3012 -0.0879
17065TIP3    H172610   5.515   1.110  14.082 -2.0775 -0.8938 -0.9514
17065TIP3    H272611   5.461   1.022  14.194 -1.5833 -0.2186 -0.1798
17066TIP3   OH272612   1.119   6.613   6.609 -0.4900  0.5939 -0.1824
17066TIP3    H172613   1.055   6.603   6.679 -0.4564  2.3669  0.1243
17066TIP3    H272614   1.084   6.561   6.536 -0.5886 -1.1523  1.0952
17067TIP3   OH272615   1.047   4.990  15.100  0.2434  0.2623 -0.0787
17067TIP3    H172616   1.007   4.928  15.161 -0.0509 -0.2316 -0.7576
17067TIP3    H272617   1.024   4.956  15.013  1.1043  0.6515 -0.4682
17068TIP3   OH272618   3.825   3.529   2.232  0.0458  0.4375  0.3178
17068TIP3    H172619   3.765   3.600   2.208 -0.7774 -0.5675 -0.6612
17068TIP3    H272620   3.774   3.449   2.221  1.1352 -0.3500  0.8469
17069TIP3   OH272621   2.577   2.751  15.696  0.2616 -0.2884 -0.3971
17069TIP3    H172622   2.593   2.836  15.654 -0.3235 -0.9204 -1.9283
17069TIP3    H272623   2.659   2.702  15.682  0.6487  0.0620  0.6040
17070TIP3   OH272624   5.540   4.814   5.279  0.3430 -0.1255  0.2568
17070TIP3    H172625   5.620   4.763   5.295  0.8467  0.2681 -0.8981
17070TIP3    H272626   5.538   4.825   5.184 -0.0321  1.5610  0.4438
17071TIP3   OH272627   6.399   0.897   2.255 -0.4066  0.2963  0.2066
17071TIP3    H172628   6.440   0.920   2.338  0.1015  0.6452 -0.1351
17071TIP3    H272629   6.320   0.848   2.279 -0.0293  0.0124  0.8810
17072TIP3   OH272630   2.554   5.478  11.470 -0.0561  0.0982 -0.3518
17072TIP3    H172631   2.485   5.413  11.486  1.1939 -1.0638  0.4758
17072TIP3    H272632   2.547   5.498  11.377 -0.2093 -1.5388 -0.7104
17073TIP3   OH272633   0.188   4.041   1.638 -0.2509  0.3927  0.3356
17073TIP3    H172634   0.140   4.024   1.557 -2.1929  2.5571  0.9493
17073TIP3    H272635   0.135   4.002   1.707  0.3653  0.2699  0.7474
17074TIP3   OH272636   2.298   3.880   3.141 -0.1383 -0.0044 -0.3675
17074TIP3    H172637   2.301   3.919   3.229  0.2010  0.0713 -0.4136
17074TIP3    H272638   2.209   3.899   3.110 -0.5815 -0.8744  0.3464
17075TIP3   OH272639   3.018   3.899  11.484 -0.6284  0.6282 -0.2910
17075TIP3    H172640   2.972   3.900  11.400 -0.5427  0.5180 -0.3403
17075TIP3    H272641   3.082   3.970  11.477 -0.1726  0.1947 -0.5751
17076TIP3   OH272642   4.906   6.478  14.206 -0.8423  0.4072 -0.1021
17076TIP3    H172643   4.976   6.500  14.268 -0.6169  1.8510 -0.8356
17076TIP3    H272644   4.826   6.479  14.258 -0.1442 -3.1176  1.1487
17077TIP3   OH272645   4.458   0.640   5.355 -0.3408 -0.3383  0.5370
17077TIP3    H172646   4.371   0.627   5.394 -0.7463  1.4224  0.2435
17077TIP3    H272647   4.464   0.572   5.288 -1.6779 -0.2012  0.2588
17078TIP3   OH272648   6.367   5.960   5.065 -0.6145  0.8651  0.7639
17078TIP3    H172649   6.395   5.920   4.982 -0.0524  0.8971  0.9369
17078TIP3    H272650   6.273   5.942   5.069 -0.3712 -0.4969  0.8645
17079TIP3   OH272651   4.471   5.303  16.258  0.4551 -0.2224  0.4265
17079TIP3    H172652   4.536   5.248  16.213 -0.5187 -0.1653 -1.1038
17079TIP3    H272653   4.468   5.268  16.347  3.7888  0.8559  1.0341
17080TIP3   OH272654   1.728   6.582  12.413 -0.2494  0.1185  0.0760
17080TIP3    H172655   1.661   6.645  12.386  0.0908  0.6971  0.5847
17080TIP3    H272656   1.747   6.533  12.333 -0.2240  0.9256 -0.4236
17081TIP3   OH272657   0.031   6.159   2.606 -0.0993 -0.1181  0.1351
17081TIP3    H172658   0.057   6.219   2.676 -0.7861  0.8201 -0.3932
17081TIP3    H272659  -0.060   6.137   2.626  0.3400 -1.5019  0.6765
17082TIP3   OH272660   0.621   0.436  11.884  0.2268 -0.1488 -0.5359
17082TIP3    H172661   0.704   0.479  11.903  0.3622 -0.4859 -0.3582
17082TIP3    H272662   0.604   0.455  11.792 -0.7670  2.0682  0.0798
17083TIP3   OH272663   1.061   3.638  16.359  0.3587  0.0430  0.5581
17083TIP3    H172664   0.976   3.679  16.373  0.0378 -0.7156  0.8795
17083TIP3    H272665   1.063   3.565  16.421  1.6719  0.6819  1.2928
17084TIP3   OH272666   2.908   1.647   4.081  0.0564 -0.3402  0.0879
17084TIP3    H172667   2.923   1.669   4.172 -0.5062 -0.7708  0.2852
17084TIP3    H272668   2.829   1.695   4.056  0.6698  0.4271 -0.4107
17085TIP3   OH272669   6.009   3.131   1.021 -0.1037 -0.7237 -0.5132
17085TIP3    H172670   6.044   3.106   0.936 -0.3982 -0.6910 -0.6473
17085TIP3    H272671   5.989   3.224   1.011 -1.4698 -1.0422 -0.8750
17086TIP3   OH272672   4.553   2.867  12.531  0.2267  0.0361 -0.2805
17086TIP3    H172673   4.550   2.901  12.441 -1.5633  1.2381  0.2063
17086TIP3    H272674   4.517   2.939  12.584 -0.2043 -1.2646  1.1988
17087TIP3   OH272675   6.412   4.117   6.039 -0.3191  0.1396 -0.0255
17087TIP3    H172676   6.324   4.093   6.068 -0.5840  1.4495  0.2530
17087TIP3    H272677   6.399   4.189   5.978  0.3915 -1.1641 -1.7791
17088TIP3   OH272678   1.358   5.090   2.347 -0.3742  0.5239 -0.1036
17088TIP3    H172679   1.314   5.033   2.284 -2.0803  1.7435 -0.0773
17088TIP3    H272680   1.337   5.179   2.317  2.3494  1.1673 -0.2366
17089TIP3   OH272681   3.549   5.152   2.078 -0.3473 -0.2034  0.2910
17089TIP3    H172682   3.470   5.203   2.093 -1.0237 -1.2033  0.1474
17089TIP3    H272683   3.538   5.116   1.989  0.1494 -0.5437  0.3653
17090TIP3   OH272684   2.263   6.203   2.664 -0.1165 -0.4126 -0.1096
17090TIP3    H172685   2.248   6.293   2.637  0.6127 -0.3275 -0.2608
17090TIP3    H272686   2.227   6.197   2.752 -0.7165 -0.1414 -0.3413
17091TIP3   OH272687   5.676   5.520   1.486 -0.1837 -0.6213 -0.2465
17091TIP3    H172688   5.763   5.550   1.515 -0.2377 -0.3400 -0.3776
17091TIP3    H272689   5.692   5.484   1.399 -0.2800 -0.1442 -0.4644
17092TIP3   OH272690   1.797   3.929   0.631 -0.1112 -0.1615 -0.4851
17092TIP3    H172691   1.730   3.998   0.638 -1.0573 -1.0685 -0.3996
17092TIP3    H272692   1.788   3.897   0.541 -0.4941 -0.9821 -0.1553
17093TIP3   OH272693   0.395   6.103   4.237  0.2654  0.4717  0.2515
17093TIP3    H172694   0.418   6.180   4.186  0.5239  0.0017 -0.3429
17093TIP3    H272695   0.442   6.031   4.196  0.6002  0.1057  1.2460
17094TIP3   OH272696   1.009   5.499  14.854 -0.0457 -0.2082 -0.2255
17094TIP3    H172697   1.030   5.547  14.934  2.2728 -1.2368 -0.1698
17094TIP3    H272698   0.990   5.410  14.884  2.1207 -0.9324 -0.8811
17095TIP3   OH272699   3.643   2.579   0.088 -0.3897 -0.1481 -0.0387
17095TIP3    H172700   3.690   2.615   0.163  1.6861  0.2794 -1.4878
17095TIP3    H272701   3.703   2.514   0.052 -0.7551  0.6545 -2.1414
17096TIP3   OH272702   6.752   2.630   6.225 -0.2771 -0.1453  0.9157
17096TIP3    H172703   6.770   2.619   6.319 -0.0617  2.1077  1.1655
17096TIP3    H272704   6.696   2.707   6.221  0.5663  0.3775 -0.9162
17097TIP3   OH272705   6.035   4.973   1.266  0.7795  0.6643  0.5636
17097TIP3    H172706   6.070   4.895   1.222  0.7875  1.7348 -1.3690
17097TIP3    H272707   6.102   4.997   1.330  2.3033  1.0259 -1.1422
17098TIP3   OH272708   0.948   5.641  15.650  0.2235 -0.0741 -0.5381
17098TIP3    H172709   0.880   5.684  15.702 -0.0309 -1.9633  0.7382
17098TIP3    H272710   1.029   5.663  15.694  0.1029 -0.8101  0.0548
17099TIP3   OH272711   4.132   4.868   4.442  0.0824  0.3530 -0.5085
17099TIP3    H172712   4.078   4.862   4.521 -1.5082 -1.3079 -1.6929
17099TIP3    H272713   4.214   4.907   4.473 -0.2738 -0.8009  2.0779
17100TIP3   OH272714   2.091   4.047   1.221  0.5516  0.5299 -0.4202
17100TIP3    H172715   1.997   4.057   1.206  0.4571 -1.3840 -1.3250
17100TIP3    H272716   2.116   4.124   1.271 -1.7837  0.3582  1.0782
17101TIP3   OH272717   2.023   3.587  12.241  0.2575 -0.0985  0.2827
17101TIP3    H172718   1.934   3.568  12.211  1.1436 -1.2878 -1.7405
17101TIP3    H272719   2.047   3.511  12.295  0.7801 -0.8095 -0.9193
17102TIP3   OH272720   3.194   1.820   0.969 -0.2472  0.0868 -0.0647
17102TIP3    H172721   3.241   1.839   1.050 -1.1036  0.1512  0.4236
17102TIP3    H272722   3.228   1.883   0.906 -0.6401  1.0115  0.6412
17103TIP3   OH272723   5.510   3.844   1.933  0.2602 -0.1499 -0.1338
17103TIP3    H172724   5.594   3.800   1.925  0.1187 -0.3516 -0.5425
17103TIP3    H272725   5.461   3.791   1.996  0.6244  0.2605  0.4987
17104TIP3   OH272726   2.399   4.973  16.039 -0.7250 -0.0040  0.5492
17104TIP3    H172727   2.482   4.977  15.993 -0.6967 -1.1912  0.4626
17104TIP3    H272728   2.412   5.027  16.117  0.4817 -0.9854  1.0569
17105TIP3   OH272729   4.846   0.137  16.949  0.1450 -0.0584 -0.2169
17105TIP3    H172730   4.852   0.093  17.034  2.0718 -1.2811 -0.9561
17105TIP3    H272731   4.915   0.204  16.952 -1.1983  1.3405 -0.0191
17106TIP3   OH272732   2.972   5.543   3.498 -0.2232 -0.4677 -0.1131
17106TIP3    H172733   2.884   5.521   3.466  0.0666  0.1354 -1.3765
17106TIP3    H272734   3.016   5.458   3.506 -0.5963 -0.7002 -0.4804
17107TIP3   OH272735   4.716   0.366  16.112 -0.2719 -0.8465 -0.1899
17107TIP3    H172736   4.770   0.298  16.073 -0.0956 -0.6304 -0.3180
17107TIP3    H272737   4.756   0.384  16.197  1.2253  0.9501 -1.2383
17108TIP3   OH272738   4.350   4.777   6.492 -0.2407  0.1251  0.1809
17108TIP3    H172739   4.312   4.705   6.441  2.2727 -0.4541 -0.9503
17108TIP3    H272740   4.444   4.766   6.481  0.1998  2.9047  0.9735
17109TIP3   OH272741   0.673   3.833  11.408 -0.3246 -0.5120 -0.1262
17109TIP3    H172742   0.767   3.823  11.396 -0.1963 -0.7682  1.0384
17109TIP3    H272743   0.640   3.744  11.416 -0.3692 -0.3715  1.5449
17110TIP3   OH272744   5.135   5.955  14.443 -0.1958  0.7241 -0.4399
17110TIP3    H172745   5.152   6.047  14.464 -1.7642  0.8256  0.4254
17110TIP3    H272746   5.096   5.919  14.523  1.0584 -0.8779 -0.5336
17111TIP3   OH272747   0.062   3.794   1.143  0.6470 -0.0416  0.5192
17111TIP3    H172748  -0.018   3.845   1.127  1.8015  1.2357 -1.5442
17111TIP3    H272749   0.033   3.703   1.142 -0.6555  0.3499 -1.3009
17112TIP3   OH272750   0.761   5.460   3.477 -0.5989 -0.0421 -0.0797
17112TIP3    H172751   0.803   5.503   3.402  0.2728 -0.6281  0.0650
17112TIP3    H272752   0.833   5.446   3.539 -1.2982  0.3531  0.8295
17113TIP3   OH272753   0.859   6.191  14.322 -0.3654 -0.1707 -0.1874
17113TIP3    H172754   0.879   6.098  14.333 -0.6640 -0.0594  1.4564
17113TIP3    H272755   0.862   6.226  14.411 -0.9521  1.2555 -0.7235
17114TIP3   OH272756   2.380   5.066  15.755 -0.1940 -0.0955  0.0274
17114TIP3    H172757   2.307   5.094  15.811  1.2474  0.5507  1.6301
17114TIP3    H272758   2.457   5.077  15.810  1.4895  2.4596 -2.7312
17115TIP3   OH272759   0.209   1.999  16.797  0.5878 -0.4070  0.2936
17115TIP3    H172760   0.245   1.943  16.728  0.3325 -0.0531 -0.1393
17115TIP3    H272761   0.180   2.077  16.750  0.9558  0.0939  0.8920
17116TIP3   OH272762   1.805   4.983  17.181 -0.4429  0.1828  0.3652
17116TIP3    H172763   1.840   5.051  17.123 -0.8945 -0.2941 -0.4667
17116TIP3    H272764   1.714   5.009  17.194 -0.8150 -0.6597 -0.5413
17117TIP3   OH272765   3.097   6.504   6.515  0.2982  0.6911  0.0911
17117TIP3    H172766   3.177   6.453   6.529 -0.5537  0.0333  2.8286
17117TIP3    H272767   3.113   6.586   6.561  0.5460  1.7769 -1.8952
17118TIP3   OH272768   2.167   2.010   2.333  0.3205 -0.3657  0.0513
17118TIP3    H172769   2.078   1.980   2.346 -0.2134  1.5304  1.0494
17118TIP3    H272770   2.188   1.986   2.243 -0.4407 -2.6606  0.4718
17119TIP3   OH272771   2.175   5.942   5.368  0.2307  0.0939 -0.3073
17119TIP3    H172772   2.142   5.912   5.453  1.1108 -1.7682 -0.6091
17119TIP3    H272773   2.101   5.990   5.330 -1.1484 -1.5392  0.2712
17120TIP3   OH272774   5.076   3.923  13.048 -0.5075  0.1211  0.1975
17120TIP3    H172775   5.134   3.912  12.972 -0.9541 -0.2642 -0.0883
17120TIP3    H272776   5.019   3.996  13.024 -0.0245  0.6256  0.5564
17121TIP3   OH272777   6.671   0.950   0.188 -0.0874  0.1066  0.4447
17121TIP3    H172778   6.645   1.017   0.125 -0.7002 -0.3839  0.1760
17121TIP3    H272779   6.766   0.953   0.188 -0.1006  0.6507  0.0803
17122TIP3   OH272780   3.806   4.229   6.538  0.4622 -0.3053 -0.2405
17122TIP3    H172781   3.772   4.213   6.626  2.8357  2.0650  1.1425
17122TIP3    H272782   3.739   4.191   6.481 -0.5836 -2.9079  2.5567
17123TIP3   OH272783   6.573   0.582  17.089  0.5906  0.0328  0.1342
17123TIP3    H172784   6.627   0.575  17.010  1.1349  1.9127  0.3189
17123TIP3    H272785   6.565   0.676  17.104 -3.0790 -0.1713 -0.0996
17124TIP3   OH272786   4.605   5.576   0.420  0.0579 -0.0997  0.2982
17124TIP3    H172787   4.686   5.540   0.456  0.3324 -0.3627 -0.5646
17124TIP3    H272788   4.630   5.661   0.385  0.0544 -0.3585 -0.3396
17125TIP3   OH272789   5.486   2.715   0.698 -0.7442  0.6736  0.8738
17125TIP3    H172790   5.569   2.746   0.733  1.4907 -0.7337 -2.9200
17125TIP3    H272791   5.461   2.782   0.634 -1.6704  0.2288  0.7569
17126TIP3   OH272792   1.811   2.857  12.466  0.1785 -0.7044 -0.0109
17126TIP3    H172793   1.865   2.812  12.402  2.0519  0.5039  0.6740
17126TIP3    H272794   1.725   2.816  12.459  0.2866 -0.4868 -3.4219
17127TIP3   OH272795   4.934   3.081  13.431 -0.1860 -0.3263  0.5825
17127TIP3    H172796   4.920   3.006  13.489 -1.0474 -1.0455 -0.5286
17127TIP3    H272797   4.846   3.115  13.415  0.2606  1.4774  1.7753
17128TIP3   OH272798   6.552   1.314   2.284 -0.2107  0.0532 -0.0766
17128TIP3    H172799   6.488   1.269   2.340 -0.3322  2.4531  1.7908
17128TIP3    H272800   6.549   1.405   2.313  3.2044  0.4431 -0.7759
17129TIP3   OH272801   1.985   5.474  16.373 -0.1456  0.0450 -0.4373
17129TIP3    H172802   1.904   5.525  16.380  0.0675  0.2207  0.7802
17129TIP3    H272803   2.053   5.533  16.405  0.0813 -1.0557  1.1341
17130TIP3   OH272804   2.133   1.985   5.863  0.3892  0.1537 -0.3047
17130TIP3    H172805   2.153   2.055   5.801  2.8682  1.1327  1.5171
17130TIP3    H272806   2.110   2.031   5.944 -1.9945 -1.1189 -0.2158
17131TIP3   OH272807   0.924   3.751  15.880 -0.9097 -0.1573  0.3840
17131TIP3    H172808   0.839   3.723  15.845 -1.4326 -0.6262  1.9765
17131TIP3    H272809   0.940   3.692  15.954  0.9416 -0.2396 -0.0748
17132TIP3   OH272810   4.142   0.432  11.519  0.2275  0.3470  0.0771
17132TIP3    H172811   4.138   0.527  11.531  1.5812  0.7038 -2.0865
17132TIP3    H272812   4.080   0.415  11.448 -1.7154 -0.7039  1.9755
17133TIP3   OH272813   6.299   6.393  15.609 -0.1533  0.1799 -0.4330
17133TIP3    H172814   6.366   6.460  15.594 -1.2580  1.4008  0.0244
17133TIP3    H272815   6.216   6.439  15.599 -0.9356 -1.3941 -1.3038
17134TIP3   OH272816   6.254   4.142   3.970  0.2409 -0.7014  0.2378
17134TIP3    H172817   6.158   4.144   3.972  0.1982 -2.2420  0.9383
17134TIP3    H272818   6.276   4.122   3.879 -0.1765 -2.0268  0.4111
17135TIP3   OH272819   1.780   4.457  16.616 -0.0018 -0.6968  0.4694
17135TIP3    H172820   1.801   4.450  16.709  1.1132  0.1884  0.3002
17135TIP3    H272821   1.853   4.412  16.573 -0.0672 -0.3357 -0.0133
17136TIP3   OH272822   6.496   4.511   5.197  0.0547 -0.0147  0.3779
17136TIP3    H172823   6.405   4.494   5.172  0.4412 -2.1564  0.3353
17136TIP3    H272824   6.546   4.501   5.116  0.3247  1.4356  0.3435
17137TIP3   OH272825   3.892   6.780  15.303  0.0803 -0.5790 -0.1922
17137TIP3    H172826   3.899   6.853  15.241 -1.8033  0.5101  0.8353
17137TIP3    H272827   3.852   6.709  15.252 -0.7449  0.0538 -0.4351
17138TIP3   OH272828   3.774   0.366   0.894  0.4599 -0.0874 -0.2366
17138TIP3    H172829   3.858   0.321   0.899  0.5040 -0.1897 -1.6138
17138TIP3    H272830   3.714   0.311   0.944  1.0037 -0.5027 -0.0347
17139TIP3   OH272831   0.282   0.249   0.923 -0.1336  0.5502  0.2817
17139TIP3    H172832   0.369   0.215   0.941  0.2057  1.6071  0.6680
17139TIP3    H272833   0.278   0.258   0.828 -0.7804 -2.0061  0.0353
17140TIP3   OH272834   3.653   3.218   2.042 -0.1199 -0.1409 -0.1151
17140TIP3    H172835   3.697   3.142   2.080  2.1241  1.2595  0.1510
17140TIP3    H272836   3.600   3.254   2.113  0.3301 -0.3224  0.3104
17141TIP3   OH272837   2.944   0.590  12.782 -0.0413 -0.0511  0.2713
17141TIP3    H172838   2.855   0.566  12.755  0.6149 -0.1335 -1.9460
17141TIP3    H272839   2.950   0.562  12.873 -1.9194 -1.0775  0.1031
17142TIP3   OH272840   2.298   3.855  16.929  0.1027  0.0776  0.4480
17142TIP3    H172841   2.315   3.896  16.844 -0.2988  2.3106  1.4035
17142TIP3    H272842   2.351   3.775  16.928 -1.3212 -0.9030 -2.6007
17143TIP3   OH272843   2.523   3.649  13.126  0.2935  0.2504  0.2789
17143TIP3    H172844   2.444   3.669  13.076  1.0269  2.8951  0.1194
17143TIP3    H272845   2.595   3.668  13.066  1.1432  1.8969  1.7824
17144TIP3   OH272846   0.394   1.554  10.387 -0.0005  0.1372  0.1487
17144TIP3    H172847   0.453   1.615  10.430 -2.2512  1.3485  1.6415
17144TIP3    H272848   0.334   1.610  10.338 -0.4489 -1.0145 -0.6367
17145TIP3   OH272849   3.764   6.773  14.931  0.2757  0.1973 -0.0939
17145TIP3    H172850   3.688   6.716  14.918  0.1328 -0.0739  1.7363
17145TIP3    H272851   3.835   6.730  14.883 -0.6593  0.3374 -1.6379
17146TIP3   OH272852   3.499   0.270  12.332  0.0927 -0.5489 -0.2489
17146TIP3    H172853   3.416   0.306  12.301  0.0083 -0.5724 -0.0527
17146TIP3    H272854   3.482   0.247  12.423  0.2204 -0.8548 -0.3023
17147TIP3   OH272855   5.965   2.380  12.923 -0.4542 -0.4486  0.5482
17147TIP3    H172856   5.992   2.407  13.010  2.3708 -0.7896 -0.1600
17147TIP3    H272857   5.954   2.462  12.874  1.0939 -0.3267  0.3742
17148TIP3   OH272858   3.389   2.227  10.955 -0.4460  0.0697 -0.6362
17148TIP3    H172859   3.397   2.168  10.880  0.5606  1.0258 -1.3047
17148TIP3    H272860   3.328   2.184  11.014  0.9187 -2.0339 -0.7208
17149TIP3   OH272861   5.859   0.667   3.702  0.0346 -0.4097  0.7829
17149TIP3    H172862   5.928   0.730   3.680 -0.0135 -0.5305  0.2761
17149TIP3    H272863   5.806   0.712   3.767 -0.5410  0.4420 -0.2668
17150TIP3   OH272864   0.462   6.313   1.831  0.2710  0.3687  0.3868
17150TIP3    H172865   0.554   6.337   1.845  0.6195 -0.2848 -0.6199
17150TIP3    H272866   0.467   6.234   1.776 -0.9159  1.2565 -1.0517
17151TIP3   OH272867   5.894   3.885  13.230 -0.3974 -0.3562 -0.4061
17151TIP3    H172868   5.866   3.898  13.139  0.0573 -1.8286 -0.7872
17151TIP3    H272869   5.817   3.852  13.275 -0.1317 -1.4569 -0.7281
17152TIP3   OH272870   1.222   4.569   5.137 -0.7859 -0.1100 -0.4998
17152TIP3    H172871   1.226   4.475   5.154  1.3528  0.0476 -0.0732
17152TIP3    H272872   1.300   4.605   5.179 -1.9032  1.9541 -0.1250
17153TIP3   OH272873   3.791   1.649  15.604  0.0395  0.2025  0.4989
17153TIP3    H172874   3.776   1.566  15.557  2.1557 -0.5854  1.1819
17153TIP3    H272875   3.847   1.700  15.545  2.8949 -0.8778  2.1688
17154TIP3   OH272876   2.574   1.917   6.184  0.1534  0.5568  0.1504
17154TIP3    H172877   2.547   1.855   6.117  0.3101 -0.8107  1.3192
17154TIP3    H272878   2.595   1.863   6.260 -1.2581  2.1496  1.7185
17155TIP3   OH272879   0.353   1.017   1.250  0.0811  0.6700 -0.9529
17155TIP3    H172880   0.321   1.094   1.202 -4.0661 -0.5155 -0.2745
17155TIP3    H272881   0.352   1.044   1.341  1.7395  0.8285 -0.9747
17156TIP3   OH272882   6.029   4.760   6.041  0.0979 -0.4214  0.0137
17156TIP3    H172883   6.068   4.673   6.049  0.5184 -0.3343 -1.0428
17156TIP3    H272884   5.959   4.748   5.977 -0.0026 -0.0297  0.0518
17157TIP3   OH272885   3.140   1.077   5.646 -0.1622 -0.6068  0.4751
17157TIP3    H172886   3.083   1.046   5.716 -1.2241 -1.1448 -0.5975
17157TIP3    H272887   3.227   1.082   5.686 -1.0826  0.9341  2.3327
17158TIP3   OH272888   3.682   0.343  11.684  0.5992 -0.2157 -0.0273
17158TIP3    H172889   3.733   0.391  11.749 -0.2468  2.3557 -1.1663
17158TIP3    H272890   3.604   0.398  11.671 -0.8694 -2.4158 -0.6897
17159TIP3   OH272891   1.532   3.023  15.297  0.6400  0.2320  0.2633
17159TIP3    H172892   1.602   3.007  15.233  1.7919  3.2218  0.7066
17159TIP3    H272893   1.578   3.039  15.379 -0.5100  2.2952  0.5463
17160TIP3   OH272894   3.451   0.170  11.274  0.0801  0.2448  0.1423
17160TIP3    H172895   3.477   0.144  11.363 -1.3420 -1.5357  0.0647
17160TIP3    H272896   3.533   0.180  11.227  0.7969 -0.1599  1.2841
17161TIP3   OH272897   5.982   5.470  16.877  0.8123  0.1856  0.4818
17161TIP3    H172898   6.010   5.408  16.809 -1.0387  0.7884 -0.8497
17161TIP3    H272899   5.893   5.495  16.853  0.7607  1.7763  2.1717
17162TIP3   OH272900   3.465   0.485  14.225 -0.2647 -0.3600 -0.5523
17162TIP3    H172901   3.375   0.518  14.228 -0.5589 -1.0838 -1.0393
17162TIP3    H272902   3.505   0.532  14.152  0.0587  0.6890  0.2906
17163TIP3   OH272903   6.419   3.480  12.670  0.4143 -0.4971 -0.4874
17163TIP3    H172904   6.344   3.422  12.682 -1.3807  1.7581 -0.3201
17163TIP3    H272905   6.458   3.453  12.587 -0.0754 -2.2260 -0.1783
17164TIP3   OH272906   1.307   2.113   2.508 -0.1928  0.6281 -0.0644
17164TIP3    H172907   1.276   2.022   2.506  0.1109  0.5313 -1.2948
17164TIP3    H272908   1.313   2.135   2.601  2.6184 -1.6348  0.3748
17165TIP3   OH272909   1.277   1.638  14.493 -0.3300 -0.5229 -0.2862
17165TIP3    H172910   1.279   1.708  14.558 -1.1621  1.2453 -2.1185
17165TIP3    H272911   1.204   1.661  14.435  0.8038 -1.7091 -2.2316
17166TIP3   OH272912   0.299   2.000   2.067 -0.2717 -0.2573  0.6531
17166TIP3    H172913   0.389   1.970   2.053 -0.5157 -0.9931  0.6077
17166TIP3    H272914   0.246   1.937   2.018 -0.8839 -0.5080  1.6312
17167TIP3   OH272915   1.700   0.373   4.082 -0.2261 -0.2239 -0.3078
17167TIP3    H172916   1.627   0.311   4.086 -0.3563 -0.1178 -1.0340
17167TIP3    H272917   1.767   0.336   4.140 -1.6383  0.7178  1.9967
17168TIP3   OH272918   5.263   6.744  11.190  0.0133 -0.3401  0.6662
17168TIP3    H172919   5.328   6.675  11.178 -1.8267 -2.0319  0.1849
17168TIP3    H272920   5.182   6.708  11.154 -0.7107  2.5450 -0.7392
17169TIP3   OH272921   1.293   2.973  14.702 -0.2689  0.0952  0.2693
17169TIP3    H172922   1.384   2.948  14.717 -0.2438  0.6296  1.0685
17169TIP3    H272923   1.255   2.900  14.653  0.6638 -0.0016 -0.3213
17170TIP3   OH272924   2.193   5.863   6.448  0.3742 -0.5167  0.0211
17170TIP3    H172925   2.287   5.868   6.432 -0.0963  0.6716 -2.6443
17170TIP3    H272926   2.178   5.923   6.521  1.5071  0.3121 -0.4143
17171TIP3   OH272927   2.217   2.908  12.393 -0.3653  0.3057 -0.0123
17171TIP3    H172928   2.291   2.854  12.364 -0.3326 -0.0212  0.6608
17171TIP3    H272929   2.183   2.862  12.470 -1.5516  0.2147 -0.5845
17172TIP3   OH272930   3.647   4.185  15.609 -0.3640 -0.2086 -0.0945
17172TIP3    H172931   3.683   4.098  15.588 -0.7124 -0.0399 -1.4274
17172TIP3    H272932   3.725   4.240  15.621 -0.1349 -0.7525  1.0319
17173TIP3   OH272933   5.160   4.086  17.047 -0.1416 -0.1769  0.3248
17173TIP3    H172934   5.154   4.136  16.965 -1.5405 -0.0058  0.5255
17173TIP3    H272935   5.206   4.006  17.022  0.9787  0.6391 -0.2653
17174TIP3   OH272936   4.448   1.800   0.126  0.7554 -0.4931 -0.2039
17174TIP3    H172937   4.361   1.821   0.162  0.4577  0.2478 -1.3379
17174TIP3    H272938   4.509   1.845   0.184  0.4164 -1.2803  0.7951
17175TIP3   OH272939   6.450   5.300   1.652 -0.3405 -0.0256  0.8388
17175TIP3    H172940   6.431   5.249   1.573  0.8136 -1.0931  1.2533
17175TIP3    H272941   6.385   5.371   1.650 -0.5344 -0.2312 -0.8894
17176TIP3   OH272942   2.225   6.691   6.497 -0.4697 -0.5029 -0.0338
17176TIP3    H172943   2.183   6.751   6.435  0.5280  1.4993  1.1832
17176TIP3    H272944   2.247   6.614   6.445  0.1515  1.0535 -2.1351
17177TIP3   OH272945   1.167   3.654   5.727  0.2448 -0.1459  0.2312
17177TIP3    H172946   1.144   3.686   5.640  1.3666  2.0124  0.6881
17177TIP3    H272947   1.085   3.653   5.775  0.0004  0.9939 -0.1484
17178TIP3   OH272948   4.223   1.627   4.266 -0.4385 -0.6473 -0.4326
17178TIP3    H172949   4.269   1.655   4.187 -3.0827  0.4863 -1.6316
17178TIP3    H272950   4.230   1.531   4.264  0.2137 -0.5972 -1.5938
17179TIP3   OH272951   3.141   4.824   1.082 -0.3103  0.1836 -0.3213
17179TIP3    H172952   3.139   4.739   1.040 -0.3250  0.8734 -1.7487
17179TIP3    H272953   3.129   4.805   1.175 -0.9719 -1.3136 -0.6962
17180TIP3   OH272954   0.122   5.049   5.131  0.2039  0.3990  0.2553
17180TIP3    H172955   0.127   5.095   5.215  1.9839  0.4980  0.1099
17180TIP3    H272956   0.054   5.095   5.082 -2.5758 -1.1277  2.5141
17181TIP3   OH272957   6.538   3.348  12.169  0.4587 -0.1944  0.0987
17181TIP3    H172958   6.521   3.357  12.075  1.3871  0.4559 -0.0068
17181TIP3    H272959   6.625   3.384  12.182 -0.1517  0.8863  1.4147
17182TIP3   OH272960   6.324   4.212   4.284  0.3982 -0.7033  0.1937
17182TIP3    H172961   6.367   4.253   4.209 -0.3739 -2.0756 -1.0125
17182TIP3    H272962   6.380   4.138   4.306  0.0141 -0.9793  0.2432
17183TIP3   OH272963   2.736   2.032   3.356 -0.1193  0.5191 -0.2615
17183TIP3    H172964   2.668   2.079   3.404 -0.5147  1.1166 -1.3640
17183TIP3    H272965   2.687   1.976   3.295  0.3651 -0.1784 -0.0117
17184TIP3   OH272966   5.993   4.361  12.952 -0.2275  0.6320 -0.2806
17184TIP3    H172967   6.067   4.420  12.937 -0.6395  1.5729  1.2539
17184TIP3    H272968   6.031   4.273  12.946  1.1313  1.1075  0.9270
17185TIP3   OH272969   0.240   5.718  13.800  0.4512  0.1120  0.0605
17185TIP3    H172970   0.230   5.623  13.794 -2.0870  0.3039  0.9213
17185TIP3    H272971   0.233   5.738  13.893  1.9013  1.0678 -0.0146
17186TIP3   OH272972   2.836   1.434   2.035 -0.2599 -0.1524 -0.3129
17186TIP3    H172973   2.805   1.515   2.074  0.9560 -0.9423  2.4435
17186TIP3    H272974   2.894   1.462   1.964 -0.1309  1.3911  0.3813
17187TIP3   OH272975   0.314   6.571  11.318 -0.2397  0.1415  0.6206
17187TIP3    H172976   0.259   6.504  11.359 -0.8554 -0.7420 -1.5748
17187TIP3    H272977   0.399   6.563  11.363  0.0078 -2.8218 -0.2511
17188TIP3   OH272978   5.204   5.790   0.349  0.1521 -0.1263 -0.2347
17188TIP3    H172979   5.210   5.877   0.387 -0.9937  0.5826 -1.6143
17188TIP3    H272980   5.295   5.762   0.339  0.5379  1.0151 -0.0193
17189TIP3   OH272981   2.271   5.686  16.268  0.9151  0.0669 -0.1009
17189TIP3    H172982   2.366   5.673  16.273  1.3136  2.1705 -1.3250
17189TIP3    H272983   2.255   5.765  16.321 -0.2085 -0.5257  0.4598
17190TIP3   OH272984   0.359   3.019   4.647  0.1129 -0.4494  0.1821
17190TIP3    H172985   0.282   3.003   4.594  0.3668  0.3684 -0.4463
17190TIP3    H272986   0.416   3.074   4.592  0.4526  0.2559  1.2079
17191TIP3   OH272987   4.315   4.659  10.740 -0.2507  1.2711  0.3241
17191TIP3    H172988   4.401   4.658  10.696  0.7213 -1.4620  2.1381
17191TIP3    H272989   4.254   4.627  10.673  1.1403 -2.4156  0.6855
17192TIP3   OH272990   2.560   4.397  13.834 -0.0468  0.3302  0.3803
17192TIP3    H172991   2.517   4.404  13.920 -2.8069 -0.7301 -0.8374
17192TIP3    H272992   2.581   4.487  13.811  0.3764  0.6624  2.0101
17193TIP3   OH272993   2.678   0.073   4.297  0.1481  0.3345 -0.3738
17193TIP3    H172994   2.625   0.105   4.370  0.7309 -1.0746  0.6885
17193TIP3    H272995   2.678  -0.022   4.307 -1.2561 -0.0217 -3.2576
17194TIP3   OH272996   4.804   3.627   2.804  0.1023 -0.0322 -0.3467
17194TIP3    H172997   4.847   3.710   2.827  3.2477 -0.6708 -3.5979
17194TIP3    H272998   4.840   3.564   2.866 -0.2970  0.4841  0.4273
17195TIP3   OH272999   3.083   0.741  14.803 -0.4114 -0.7006  0.6120
17195TIP3    H173000   3.115   0.763  14.715 -1.0277 -1.7035  0.1376
17195TIP3    H273001   3.107   0.817  14.856  1.5315 -0.8408 -0.0345
17196TIP3   OH273002   1.044   1.636   4.485 -0.0931 -0.2204  0.9760
17196TIP3    H173003   1.092   1.555   4.470  1.1974  0.6522  0.3613
17196TIP3    H273004   1.111   1.704   4.490 -1.1295  0.7585  1.9509
17197TIP3   OH273005   1.744   3.745   1.535  0.1482  0.1538  0.0831
17197TIP3    H173006   1.749   3.662   1.582 -0.9677 -0.2753 -0.5357
17197TIP3    H273007   1.794   3.731   1.455  0.9371  0.4663  0.5063
17198TIP3   OH273008   5.625   1.857   4.427 -0.6526 -0.2349  0.1898
17198TIP3    H173009   5.711   1.876   4.465 -1.8108  1.2118  2.1334
17198TIP3    H273010   5.616   1.762   4.435  0.7167 -0.3864  0.0757
17199TIP3   OH273011   4.888   4.969  11.241  0.3832  0.0623 -0.1989
17199TIP3    H173012   4.982   4.955  11.240  0.6806  1.8338  0.2217
17199TIP3    H273013   4.864   4.979  11.148  1.0573  2.2265 -0.1589
17200TIP3   OH273014   5.998   5.075  17.032 -0.1602 -0.3278  0.2753
17200TIP3    H173015   6.093   5.070  17.043  0.0509  2.0018 -0.4077
17200TIP3    H273016   5.983   5.046  16.942 -0.1642 -1.2871  0.5785
17201TIP3   OH273017   4.722   6.613   5.421 -0.0027 -0.1351  0.3526
17201TIP3    H173018   4.708   6.519   5.428  0.3436 -0.0931  1.8628
17201TIP3    H273019   4.635   6.651   5.432 -0.4943 -0.3290 -2.3974
17202TIP3   OH273020   5.129   5.466  11.570 -0.3515  0.4406 -0.3596
17202TIP3    H173021   5.175   5.536  11.525 -0.8606  0.2613 -1.1776
17202TIP3    H273022   5.074   5.511  11.634 -0.5050  0.7790 -0.7256
17203TIP3   OH273023   3.330   2.222   4.793 -0.2970 -0.5281 -0.3099
17203TIP3    H173024   3.386   2.145   4.808  0.7020  0.4808  1.2918
17203TIP3    H273025   3.392   2.293   4.776 -1.1412  0.3450  0.2513
17204TIP3   OH273026   4.196   1.361   3.729  0.0266 -0.1022  0.0401
17204TIP3    H173027   4.284   1.336   3.701 -0.1784  0.0134 -0.6993
17204TIP3    H273028   4.172   1.434   3.673  0.1209  0.9642  1.3640
17205TIP3   OH273029   1.099   0.870   3.662  0.1386  1.1504  0.5447
17205TIP3    H173030   1.097   0.821   3.744  0.8362 -0.7853 -0.5683
17205TIP3    H273031   1.024   0.839   3.612  2.1316 -0.8969 -1.3104
17206TIP3   OH273032   5.542   4.730  15.258 -0.1368  0.3578  0.1179
17206TIP3    H173033   5.565   4.726  15.351 -0.2133 -0.5178  0.1007
17206TIP3    H273034   5.587   4.656  15.218  1.9055  2.1260 -0.9937
17207TIP3   OH273035   5.320   1.155   2.303 -0.3738 -0.3461  0.8439
17207TIP3    H173036   5.325   1.125   2.212  0.1921  4.1272 -0.7056
17207TIP3    H273037   5.231   1.134   2.330 -1.5131  0.9517 -1.7693
17208TIP3   OH273038   2.204   1.810   3.847 -0.3471  0.2716  0.6778
17208TIP3    H173039   2.179   1.769   3.764 -1.3142  0.7751  0.7172
17208TIP3    H273040   2.145   1.771   3.912  0.0095  0.3224  1.0388
17209TIP3   OH273041   3.751   4.870  15.652  0.0244  0.0242 -0.2075
17209TIP3    H173042   3.799   4.806  15.703  1.0509  1.4472  0.6603
17209TIP3    H273043   3.718   4.932  15.717 -0.0518  0.9526 -1.1155
17210TIP3   OH273044   4.937   5.459   3.521  0.2799  0.0403 -0.3848
17210TIP3    H173045   4.996   5.512   3.468  0.7223 -1.0363 -0.9879
17210TIP3    H273046   4.910   5.516   3.593  1.0089  0.9586 -0.8442
17211TIP3   OH273047   6.701   0.607   5.213 -0.0366  0.1789 -0.1690
17211TIP3    H173048   6.688   0.674   5.147  0.4537 -0.7669 -1.2329
17211TIP3    H273049   6.619   0.556   5.212 -0.7895  1.3117  1.3002
17212TIP3   OH273050   4.088   5.978   0.211 -0.1122 -0.1514 -0.6850
17212TIP3    H173051   4.031   5.913   0.251  0.5663  1.6902  3.5397
17212TIP3    H273052   4.030   6.051   0.189 -0.1348 -0.2398 -0.9181
17213TIP3   OH273053   6.222   4.862  14.996 -0.0004  0.3405  0.2487
17213TIP3    H173054   6.299   4.874  15.052 -1.9466  2.9935  2.5216
17213TIP3    H273055   6.247   4.901  14.912  1.4856  0.2047  0.6168
17214TIP3   OH273056   2.426   5.811  14.620  0.2570 -0.1404  0.4754
17214TIP3    H173057   2.370   5.739  14.647  0.0680  0.1982  0.9983
17214TIP3    H273058   2.514   5.785  14.648  0.0523  0.2409  1.4963
17215TIP3   OH273059   5.951   1.170  12.493  0.4059  0.5977 -0.3850
17215TIP3    H173060   5.958   1.219  12.411  1.9721 -3.0176 -2.5724
17215TIP3    H273061   6.041   1.166  12.526 -0.4254  3.2705  2.3522
17216TIP3   OH273062   3.979   4.916  11.120  0.2331 -0.3359 -0.5861
17216TIP3    H173063   3.899   4.950  11.078 -0.1032 -0.6768 -0.2282
17216TIP3    H273064   4.027   4.872  11.050  0.3000  0.2183 -0.8901
17217TIP3   OH273065   5.291   5.373  13.527 -0.2073 -0.9375  0.4423
17217TIP3    H173066   5.292   5.460  13.567  2.2313 -0.9367  0.4248
17217TIP3    H273067   5.313   5.313  13.598  1.9381 -1.1423 -0.3530
17218TIP3   OH273068   2.974   6.783   0.660 -0.2270 -0.2650  0.1384
17218TIP3    H173069   2.907   6.832   0.612 -0.6563 -1.6611 -0.7060
17218TIP3    H273070   3.051   6.841   0.659 -0.4495  0.0338 -1.6298
17219TIP3   OH273071   2.234   6.329   0.002  0.2918 -0.0422  0.4280
17219TIP3    H173072   2.315   6.326   0.053 -0.9715  1.3333  2.6048
17219TIP3    H273073   2.165   6.345   0.067 -1.6665 -0.6186 -1.4419
17220TIP3   OH273074   6.226   1.460   4.083 -0.0274 -0.7815  1.0086
17220TIP3    H173075   6.201   1.374   4.117 -3.0766 -0.0147  0.8182
17220TIP3    H273076   6.154   1.485   4.026  0.1731  2.4934  2.1051
17221TIP3   OH273077   1.690   6.059  15.584 -0.6318  0.3049  0.0423
17221TIP3    H173078   1.736   5.988  15.539  0.1549  0.5099  0.5020
17221TIP3    H273079   1.702   6.040  15.677 -0.2565  1.1269  0.1690
17222TIP3   OH273080   0.518   3.044  15.968  0.0674 -0.4883  0.3374
17222TIP3    H173081   0.527   3.020  16.060  0.0742 -0.1192  0.4355
17222TIP3    H273082   0.538   3.138  15.966 -1.0877 -0.2395  0.1445
17223TIP3   OH273083   6.747   1.379  11.833 -0.6306  0.0825  0.7372
17223TIP3    H173084   6.759   1.284  11.831 -0.0920  0.0938  2.7030
17223TIP3    H273085   6.652   1.391  11.824 -0.6468 -0.6075 -0.0959
17224TIP3   OH273086   5.003   0.294   3.669  0.0419  0.3654 -0.3407
17224TIP3    H173087   4.943   0.250   3.730  0.1151 -0.1019 -0.6059
17224TIP3    H273088   5.073   0.327   3.724  0.5502 -0.8007 -0.2714
17225TIP3   OH273089   5.974   3.724   4.097 -0.1140  0.2024 -0.3014
17225TIP3    H173090   6.039   3.756   4.034  1.1137 -2.3846 -0.4387
17225TIP3    H273091   5.896   3.707   4.044  0.2576 -0.0600 -0.7700
17226TIP3   OH273092   3.870   2.161  12.956  0.1672  0.3814  0.2732
17226TIP3    H173093   3.922   2.083  12.977  2.8144  1.8036 -0.6852
17226TIP3    H273094   3.779   2.133  12.965  0.9980 -3.3910 -2.0981
17227TIP3   OH273095   1.093   6.065   1.415 -0.1273  0.4674 -0.0343
17227TIP3    H173096   1.035   6.128   1.372 -1.6667 -0.1054  1.1459
17227TIP3    H273097   1.142   6.117   1.479 -1.4903  0.4648  1.0306
17228TIP3   OH273098   1.547   6.630  11.802 -0.1533  0.0215  0.0956
17228TIP3    H173099   1.600   6.642  11.723  0.4504 -1.2604  0.2986
17228TIP3    H273100   1.584   6.691  11.865 -0.6992  1.1256 -0.6297
17229TIP3   OH273101   6.087   0.830  16.500  0.0922 -0.7243 -0.1968
17229TIP3    H173102   6.027   0.776  16.552 -0.3161 -0.1493 -0.0552
17229TIP3    H273103   6.139   0.877  16.565 -1.0999  0.7535 -0.2708
17230TIP3   OH273104   0.649   6.017  11.273 -0.3443 -0.3706 -0.1413
17230TIP3    H173105   0.677   6.068  11.348 -0.4053  2.1599 -1.7943
17230TIP3    H273106   0.708   5.941  11.272  1.0848  0.7047  1.1668
17231TIP3   OH273107   2.535   0.020  12.925 -0.6927  0.5399 -0.0024
17231TIP3    H173108   2.566   0.005  12.836  0.7332  0.1628  0.5414
17231TIP3    H273109   2.541   0.114  12.938 -0.3461  0.5334 -0.1124
17232TIP3   OH273110   5.299   3.886  12.859  0.1462 -0.3646 -0.0760
17232TIP3    H173111   5.346   3.869  12.778 -0.2909  0.2704 -0.4627
17232TIP3    H273112   5.365   3.876  12.928  0.4786 -1.0548 -0.4926
17233TIP3   OH273113   1.660   4.148   4.616 -0.1839  0.0744  0.1380
17233TIP3    H173114   1.724   4.135   4.686 -0.5887  0.4621  0.5823
17233TIP3    H273115   1.659   4.064   4.570 -1.0757 -0.7305  1.5795
17234TIP3   OH273116   0.342   0.174  13.905 -0.2129 -0.0069 -0.4543
17234TIP3    H173117   0.249   0.194  13.898  0.2476  2.1260 -0.9711
17234TIP3    H273118   0.385   0.260  13.903  1.5868 -0.7568  2.9940
17235TIP3   OH273119   2.196   3.006  10.742  0.1421 -0.0977  0.5723
17235TIP3    H173120   2.273   3.022  10.688 -1.2442 -0.3434 -1.5337
17235TIP3    H273121   2.135   3.076  10.719 -1.0334 -1.0529  0.7508
17236TIP3   OH273122   2.202   5.993   3.983  0.5097 -0.4578  0.5571
17236TIP3    H173123   2.284   5.984   4.031 -0.4075 -3.0087  1.7425
17236TIP3    H273124   2.204   5.923   3.918 -0.0704  0.3884 -0.3798
17237TIP3   OH273125   3.479   5.935   0.867 -0.0492 -0.4346 -0.4845
17237TIP3    H173126   3.527   5.853   0.872  1.2353  0.2976 -0.5303
17237TIP3    H273127   3.427   5.928   0.787 -1.2313 -1.8614  0.3839
17238TIP3   OH273128   5.696   5.523   0.165  0.4568  0.2644  0.0475
17238TIP3    H173129   5.776   5.560   0.202  0.8700 -0.4047 -0.1814
17238TIP3    H273130   5.636   5.516   0.239  0.8357  0.1471  0.3404
17239TIP3   OH273131   3.463   3.403   0.617 -0.4992  0.6415  0.4361
17239TIP3    H173132   3.417   3.365   0.692 -1.3728  0.8285  0.0055
17239TIP3    H273133   3.393   3.430   0.558  0.1848  0.2299 -0.5746
17240TIP3   OH273134   6.172   0.869   0.744 -0.3687  0.0226 -0.1440
17240TIP3    H173135   6.124   0.867   0.827  0.8395  1.6464  0.6137
17240TIP3    H273136   6.120   0.814   0.685 -1.5160 -0.7336  1.5295
17241TIP3   OH273137   5.161   6.606  17.143 -0.0122  0.3003  0.5627
17241TIP3    H173138   5.151   6.565  17.057 -1.5103 -0.5808  1.1333
17241TIP3    H273139   5.073   6.603  17.181  0.5603  1.0238  1.9766
17242TIP3   OH273140   0.068   0.132   1.746  0.5394 -0.3030 -0.3070
17242TIP3    H173141   0.024   0.058   1.704  0.1328 -1.3678  1.9098
17242TIP3    H273142  -0.000   0.172   1.801  0.7738  1.6825 -1.4395
17243TIP3   OH273143   2.589   1.173  14.087  0.2599  0.0947 -0.7456
17243TIP3    H173144   2.622   1.140  14.171 -0.3762  1.4171  0.0419
17243TIP3    H273145   2.637   1.254  14.072 -0.4945  0.4948 -1.0602
17244TIP3   OH273146   3.425   0.902   4.846 -0.1252  0.1237 -0.0428
17244TIP3    H173147   3.419   0.987   4.802  0.2834 -0.4094 -1.1625
17244TIP3    H273148   3.513   0.902   4.884  0.2269 -0.1678 -0.8442
17245TIP3   OH273149   0.572   3.779   1.911 -0.1882  0.0852  0.2021
17245TIP3    H173150   0.551   3.808   2.000 -0.7454  0.1335  0.0618
17245TIP3    H273151   0.495   3.728   1.884 -0.4195  0.8438 -0.5848
17246TIP3   OH273152   0.002   0.032  15.484  0.3053  0.0760 -0.3168
17246TIP3    H173153  -0.040   0.105  15.439  0.8601  0.7236  0.2124
17246TIP3    H273154   0.092   0.061  15.498 -0.3965  0.7676  3.1519
17247TIP3   OH273155   0.820   6.404   2.561  0.6687  0.5935 -0.2162
17247TIP3    H173156   0.762   6.383   2.634 -0.0966  0.9149 -0.7149
17247TIP3    H273157   0.782   6.358   2.486 -0.9730  3.5399 -1.2891
17248TIP3   OH273158   4.749   1.605  15.217 -1.0890 -0.0072 -0.2028
17248TIP3    H173159   4.809   1.531  15.215  0.6216  1.3520 -0.9098
17248TIP3    H273160   4.669   1.572  15.177 -0.6011 -1.6655  0.1434
17249TIP3   OH273161   2.771   2.705  12.311  0.0828 -0.2418 -0.3887
17249TIP3    H173162   2.767   2.790  12.267 -3.0345  0.9826  2.0861
17249TIP3    H273163   2.690   2.661  12.286  0.8438 -1.7719 -0.2284
17250TIP3   OH273164   6.659   4.950  16.636  0.6128 -0.7182 -0.0259
17250TIP3    H173165   6.634   4.858  16.633  1.0374 -0.8360  0.0931
17250TIP3    H273166   6.584   4.996  16.597  0.3944 -1.1085 -0.0690
17251TIP3   OH273167   2.663   1.805  12.044 -0.5306  0.2529  0.2147
17251TIP3    H173168   2.746   1.782  12.085 -1.0418 -1.5464  0.3207
17251TIP3    H273169   2.599   1.800  12.115 -1.3876 -2.7009 -0.6772
17252TIP3   OH273170   4.786   0.767  15.672  0.1363 -0.1450 -0.0787
17252TIP3    H173171   4.849   0.707  15.631 -1.9435 -2.1355 -0.4898
17252TIP3    H273172   4.754   0.821  15.600 -1.4286 -1.7446 -0.6309
17253TIP3   OH273173   0.420   5.700  16.824  0.0288 -0.3358  0.1707
17253TIP3    H173174   0.455   5.757  16.757 -1.3792 -0.0225 -0.3031
17253TIP3    H273175   0.497   5.655  16.860  0.8883  0.2265 -0.9524
17254TIP3   OH273176   3.257   0.361  12.266 -0.3123  0.0929  0.5414
17254TIP3    H173177   3.202   0.429  12.306 -0.9126  0.6754 -1.1847
17254TIP3    H273178   3.198   0.286  12.257 -0.4635  0.2812 -0.0968
17255TIP3   OH273179   5.851   3.525  16.865  0.6285 -0.0505  0.2446
17255TIP3    H173180   5.774   3.581  16.864  0.3983 -0.2291  3.0169
17255TIP3    H273181   5.867   3.503  16.773 -1.3324  1.7183 -0.5493
17256TIP3   OH273182   3.708   4.238  11.704 -1.2414  0.5473  0.1915
17256TIP3    H173183   3.754   4.155  11.691  1.2726  1.9254 -0.0361
17256TIP3    H273184   3.706   4.250  11.799 -0.1104  1.0197  0.1611
17257TIP3   OH273185   2.332   0.740  12.093  0.3501  0.8140 -0.3769
17257TIP3    H173186   2.337   0.685  12.015 -1.0155 -0.4973  0.4366
17257TIP3    H273187   2.246   0.781  12.088 -0.5308 -0.7216  1.3421
17258TIP3   OH273188   6.282   2.309   0.856  1.0330  0.5052  0.0255
17258TIP3    H173189   6.190   2.285   0.866  1.0913  0.5186  0.6317
17258TIP3    H273190   6.331   2.231   0.881  1.1915  0.6185  0.0760
17259TIP3   OH273191   0.935   4.351  12.948 -0.0163 -0.5015  0.2555
17259TIP3    H173192   1.008   4.343  12.886 -1.6851  2.0488 -2.1375
17259TIP3    H273193   0.883   4.272  12.934 -2.5656  1.8433 -4.6879
17260TIP3   OH273194   1.847   3.510  14.117  0.3820 -0.6724  0.2881
17260TIP3    H173195   1.879   3.598  14.136  0.4071 -1.0988  2.2719
17260TIP3    H273196   1.754   3.522  14.098  0.4460 -0.1955  0.2711
17261TIP3   OH273197   1.985   0.255   5.755  0.2292  0.3365 -0.4518
17261TIP3    H173198   1.900   0.280   5.718 -0.3150  1.0515  1.2315
17261TIP3    H273199   1.964   0.210   5.837  1.4111 -1.2741 -0.9991
17262TIP3   OH273200   1.514   3.420  11.493  0.0939 -0.2901 -0.0256
17262TIP3    H173201   1.528   3.365  11.416 -0.3911 -0.0250 -0.3001
17262TIP3    H273202   1.432   3.466  11.476 -0.3596 -0.7284  0.9400
17263TIP3   OH273203   2.079   0.370  14.780 -0.2588  0.0514  0.3159
17263TIP3    H173204   2.073   0.310  14.705 -0.7445  0.5779 -0.0688
17263TIP3    H273205   2.082   0.457  14.740  1.7289  0.2439  0.8129
17264TIP3   OH273206   3.787   6.523   4.936 -0.2093 -0.2516  1.2729
17264TIP3    H173207   3.822   6.464   5.003  0.6597 -0.0457  1.0125
17264TIP3    H273208   3.858   6.531   4.872 -0.6741  0.3157  0.8211
17265TIP3   OH273209   2.899   4.515  12.852  0.4187  0.2469  0.0238
17265TIP3    H173210   2.816   4.509  12.899  0.0265  0.6235 -0.6235
17265TIP3    H273211   2.877   4.554  12.768  0.5060 -3.7427 -1.9902
17266TIP3   OH273212   1.345   1.549  12.280 -0.3180 -0.0156 -0.5192
17266TIP3    H173213   1.340   1.613  12.351 -0.4416  0.2241 -0.7484
17266TIP3    H273214   1.281   1.482  12.304  0.7139 -0.6970  0.3703
17267TIP3   OH273215   2.019   4.111   0.500  0.5914 -0.6500  0.3217
17267TIP3    H173216   1.959   4.078   0.568  0.1524 -1.8819 -0.6495
17267TIP3    H273217   1.962   4.156   0.438  0.9426  0.0938  0.5406
17268TIP3   OH273218   6.578   5.220   5.189  0.1010  0.8376 -0.2096
17268TIP3    H173219   6.634   5.181   5.123 -0.6579 -1.1057  0.2337
17268TIP3    H273220   6.502   5.161   5.193  0.3037  0.6850  2.6082
17269TIP3   OH273221   3.736   1.078  16.075  0.0252  0.3763 -0.3430
17269TIP3    H173222   3.801   1.016  16.108 -0.1104  0.4386  0.0412
17269TIP3    H273223   3.709   1.041  15.990  2.1396  1.4601 -1.5362
17270TIP3   OH273224   2.323   2.802   0.606  0.1613 -0.8688 -0.4837
17270TIP3    H173225   2.262   2.766   0.671  0.4094  0.6768  0.6478
17270TIP3    H273226   2.268   2.824   0.531 -0.4239 -1.0268 -0.1091
17271TIP3   OH273227   5.962   3.377  10.813 -0.8922  0.1197  0.2806
17271TIP3    H173228   5.954   3.471  10.795  2.7483  0.3857 -0.3657
17271TIP3    H273229   5.979   3.337  10.728  0.2576 -0.7533  0.8975
17272TIP3   OH273230   6.471   2.803  15.156 -0.2109 -0.0970  0.2654
17272TIP3    H173231   6.427   2.752  15.224 -0.2117 -0.4117  0.0315
17272TIP3    H273232   6.436   2.891  15.165 -2.5097 -0.7898 -1.3029
17273TIP3   OH273233   4.833   4.468  11.453 -0.8267 -0.0460 -0.0635
17273TIP3    H173234   4.780   4.393  11.425  2.1097 -2.0834 -0.3183
17273TIP3    H273235   4.834   4.526  11.376 -1.4928 -0.6557 -0.5439
17274TIP3   OH273236   1.757   0.076  16.830 -0.1285 -0.1978 -0.2579
17274TIP3    H173237   1.794   0.089  16.917 -2.6145 -0.4260  0.8890
17274TIP3    H273238   1.697   0.151  16.818  1.5443  0.8234 -2.5469
17275TIP3   OH273239   5.399   5.577   3.804  0.2140  0.0485 -0.1558
17275TIP3    H173240   5.442   5.492   3.801  0.9383  0.4263 -1.0185
17275TIP3    H273241   5.366   5.585   3.893  1.2054 -0.6241  0.2826
17276TIP3   OH273242   4.685   5.649  16.058  0.4479 -0.2936  0.2285
17276TIP3    H173243   4.682   5.554  16.048  1.2432 -0.4662  1.4498
17276TIP3    H273244   4.758   5.677  16.002  0.9774 -0.5520  0.7794
17277TIP3   OH273245   2.275   0.085  13.651  0.0305 -0.7582 -0.0484
17277TIP3    H173246   2.306   0.159  13.599  0.1584 -1.6872 -1.3380
17277TIP3    H273247   2.185   0.071  13.621  0.2545 -1.5787 -0.3463
17278TIP3   OH273248   0.803   1.528  16.657  0.2615 -0.2472  0.2223
17278TIP3    H173249   0.786   1.439  16.687  0.2935 -0.5697 -0.6930
17278TIP3    H273250   0.762   1.584  16.723  0.0507 -0.9414  0.6868
17279TIP3   OH273251   1.304   4.302   5.165 -0.3570  0.0354  0.1552
17279TIP3    H173252   1.301   4.208   5.186 -1.0440 -0.3092 -1.3945
17279TIP3    H273253   1.396   4.318   5.142 -0.3796 -0.4214 -0.2626
17280TIP3   OH273254   6.530   2.340  14.989 -0.4362  0.2390  0.1775
17280TIP3    H173255   6.492   2.428  14.992 -0.5704  0.3918 -3.8975
17280TIP3    H273256   6.620   2.353  14.960 -0.0491 -0.8983  0.8112
17281TIP3   OH273257   6.784   0.818   6.118 -0.6178  0.3472 -0.4581
17281TIP3    H173258   6.775   0.785   6.029  2.0610  0.1416 -0.7006
17281TIP3    H273259   6.731   0.898   6.120 -1.3763 -0.0911 -1.9652
17282TIP3   OH273260   0.565   4.496   4.002 -0.2517 -0.3342  0.2426
17282TIP3    H173261   0.519   4.501   3.918  0.5800 -0.0501 -0.2016
17282TIP3    H273262   0.512   4.437   4.055 -0.9209 -0.3108 -0.3989
17283TIP3   OH273263   5.807   5.323   0.543 -0.2744  0.1071 -0.0458
17283TIP3    H173264   5.842   5.234   0.549 -0.2177  0.2340  1.9086
17283TIP3    H273265   5.840   5.356   0.460 -0.5625 -1.8035 -0.9520
17284TIP3   OH273266   4.279   0.417  15.489  0.1135 -0.0013 -0.0592
17284TIP3    H173267   4.333   0.485  15.448  3.0159 -1.8101  0.6185
17284TIP3    H273268   4.276   0.442  15.582 -0.8571  0.4709 -0.2073
17285TIP3   OH273269   6.276   0.818   1.752  0.6188  0.2260 -0.0359
17285TIP3    H173270   6.205   0.862   1.706 -0.4728 -0.1633  1.2581
17285TIP3    H273271   6.247   0.728   1.762  2.0866 -0.3952 -1.1093
17286TIP3   OH273272   3.086   5.245   4.007 -0.1989  0.4063  0.4318
17286TIP3    H173273   3.069   5.169   4.062  4.0263 -0.4208  0.7509
17286TIP3    H273274   3.027   5.235   3.932 -1.2766 -1.9809  1.5537
17287TIP3   OH273275   1.019   0.272   0.946 -0.0103 -0.1042  0.2585
17287TIP3    H173276   0.988   0.360   0.923 -0.1949 -0.3961 -0.6228
17287TIP3    H273277   1.108   0.287   0.978 -0.1301  0.4368  0.3543
17288TIP3   OH273278   4.838   3.870   1.357  0.5069  0.1489  0.6300
17288TIP3    H173279   4.864   3.844   1.268 -2.6417  2.5975 -1.1020
17288TIP3    H273280   4.915   3.914   1.393  1.4047  0.2898 -1.3860
17289TIP3   OH273281   5.351   0.294  12.231 -0.3581  0.3555  0.5471
17289TIP3    H173282   5.276   0.351  12.213 -1.3111 -0.8683  0.6277
17289TIP3    H273283   5.313   0.211  12.259  0.9231 -1.3525 -2.5121
17290TIP3   OH273284   5.367   0.209  17.015  0.2405 -0.0708  0.2941
17290TIP3    H173285   5.275   0.224  17.036  0.3383  1.0378 -0.0575
17290TIP3    H273286   5.415   0.272  17.069  0.6951  0.4397 -0.6926
17291TIP3   OH273287   6.389   0.496   1.629 -0.0880  0.1990  0.3643
17291TIP3    H173288   6.316   0.510   1.569 -0.9940  0.1924  1.4321
17291TIP3    H273289   6.467   0.518   1.579 -0.9506  1.7877 -0.2988
17292TIP3   OH273290   4.124   3.376   2.548  0.4770 -0.3324  0.7404
17292TIP3    H173291   4.118   3.408   2.458 -0.9944  0.5368  1.1222
17292TIP3    H273292   4.130   3.281   2.540  0.7450 -0.2297 -0.2928
17293TIP3   OH273293   0.466   2.997   3.015  0.4649 -0.3909  0.1198
17293TIP3    H173294   0.397   2.936   3.042  0.2628 -0.2852 -0.1565
17293TIP3    H273295   0.460   2.999   2.920 -0.9153  1.6887  0.2321
17294TIP3   OH273296   5.412   0.301   5.715 -0.2691 -0.1617  0.1762
17294TIP3    H173297   5.349   0.246   5.761 -1.6117  1.3071  0.1618
17294TIP3    H273298   5.481   0.241   5.687 -1.6696 -1.8262  0.1834
17295TIP3   OH273299   4.332   6.512   3.072  0.4171  0.6391  0.3183
17295TIP3    H173300   4.370   6.477   2.992  1.8976  1.4649  0.6431
17295TIP3    H273301   4.238   6.509   3.057  0.5268 -2.4266 -0.0838
17296TIP3   OH273302   2.600   6.457   5.088  0.0310 -1.0037 -0.1191
17296TIP3    H173303   2.659   6.526   5.059 -1.3293  0.0523 -0.4447
17296TIP3    H273304   2.657   6.383   5.110  1.4484 -0.0023 -0.4061
17297TIP3   OH273305   6.514   6.222   4.551  0.6547 -0.0345 -0.5365
17297TIP3    H173306   6.532   6.148   4.609 -0.6715 -0.1824 -0.2861
17297TIP3    H273307   6.597   6.269   4.545  1.4193 -1.3214 -0.3802
17298TIP3   OH273308   5.548   1.109   0.827 -0.2505 -0.4338 -0.1770
17298TIP3    H173309   5.544   1.170   0.753  2.9545 -1.9968 -1.7441
17298TIP3    H273310   5.485   1.144   0.890 -2.1816  1.6621 -3.0926
17299TIP3   OH273311   0.612   5.216   1.869 -0.1973 -0.0858  0.2535
17299TIP3    H173312   0.674   5.245   1.802  0.0620 -1.4415 -0.1163
17299TIP3    H273313   0.539   5.178   1.820 -0.6763  0.2348  0.7136
17300TIP3   OH273314   0.572   0.856   3.034  0.4689  0.0795  0.1481
17300TIP3    H173315   0.522   0.779   3.060  0.2204 -0.2524 -1.2583
17300TIP3    H273316   0.550   0.923   3.099 -2.2141  0.1052 -0.7402
17301TIP3   OH273317   3.017   0.853   3.893 -0.1041  0.4242  0.2334
17301TIP3    H173318   2.987   0.845   3.803  0.2580  1.0599  0.0530
17301TIP3    H273319   2.977   0.934   3.925 -1.7100 -0.7282  1.2367
17302TIP3   OH273320   4.050   0.105  13.585 -0.6535  0.1567  0.1703
17302TIP3    H173321   4.066   0.190  13.544  1.6202  0.0233  0.7288
17302TIP3    H273322   4.029   0.125  13.676  1.6310  0.0551  0.7467
17303TIP3   OH273323   2.922   4.051  15.009  0.2165  0.0370  0.3147
17303TIP3    H173324   2.931   3.980  15.073 -0.4016  0.5923  1.0249
17303TIP3    H273325   3.002   4.047  14.957  1.2861  0.3630  1.9150
17304TIP3   OH273326   3.974   2.447   0.493 -0.5391  0.8648 -0.0979
17304TIP3    H173327   4.032   2.453   0.569 -0.6592 -0.4972  0.1188
17304TIP3    H273328   3.887   2.465   0.527 -0.3226  2.3809 -0.3228
17305TIP3   OH273329   0.242   1.034  15.524  0.0426  0.8143  0.7050
17305TIP3    H173330   0.248   1.058  15.431 -1.0468  0.4088  0.5152
17305TIP3    H273331   0.187   1.103  15.562  0.5774  1.0402  1.0771
17306TIP3   OH273332   5.405   4.063  13.564 -0.1792  0.0870 -0.0063
17306TIP3    H173333   5.332   4.124  13.579  0.8231  0.9351  1.5988
17306TIP3    H273334   5.364   3.976  13.570 -1.0374  0.5464  1.1405
17307TIP3   OH273335   6.746   0.207   0.625 -0.2040 -0.0524  0.5075
17307TIP3    H173336   6.720   0.126   0.669 -1.4118  0.4360  0.7082
17307TIP3    H273337   6.785   0.178   0.543 -1.8828 -0.7981 -0.0464
17308TIP3   OH273338   5.522   0.564  12.673  0.2393  0.2047  0.1433
17308TIP3    H173339   5.440   0.538  12.715 -0.2126  0.7660 -0.3607
17308TIP3    H273340   5.536   0.499  12.604  0.5134 -0.2173  0.6042
17309TIP3   OH273341   5.964   0.462  12.483  0.4276  0.4459 -0.1519
17309TIP3    H173342   5.913   0.493  12.559 -0.7583  0.2564 -0.8618
17309TIP3    H273343   6.051   0.443  12.519  0.6595  2.8395  0.6673
17310TIP3   OH273344   4.296   2.676   0.743  0.5310  0.0293 -0.3521
17310TIP3    H173345   4.239   2.738   0.789 -0.5769 -1.0956 -0.1860
17310TIP3    H273346   4.248   2.593   0.747  1.9443 -0.8016 -0.6843
17311TIP3   OH273347   6.421   4.856  15.269  0.3825 -0.3589  0.0363
17311TIP3    H173348   6.486   4.909  15.315  0.0029  0.6429 -0.5588
17311TIP3    H273349   6.439   4.766  15.297  1.5032 -0.0009  0.4961
17312TIP3   OH273350   1.855   3.770  10.749  0.3497  0.0191 -0.8570
17312TIP3    H173351   1.930   3.805  10.701 -0.0688  1.8197 -0.2551
17312TIP3    H273352   1.784   3.831  10.728 -0.5903 -0.8973 -0.3450
17313TIP3   OH273353   6.645   0.733  15.734 -0.5387 -0.1424 -0.2351
17313TIP3    H173354   6.654   0.639  15.716  1.3023 -0.0944  0.3312
17313TIP3    H273355   6.695   0.775  15.664  1.6378  0.2582  1.4981
17314TIP3   OH273356   2.929   4.913  12.665  0.1727  0.0478  0.1016
17314TIP3    H173357   2.945   4.857  12.589 -0.7008 -1.0889  0.7375
17314TIP3    H273358   2.834   4.912  12.676  0.0184  2.6415 -0.5874
17315TIP3   OH273359   5.410   1.935   2.793 -0.3016  0.2878 -0.2762
17315TIP3    H173360   5.379   2.000   2.855  0.6559 -0.8022  1.3838
17315TIP3    H273361   5.338   1.926   2.729 -0.7948  2.2800 -0.0282
17316TIP3   OH273362   2.928   5.958   4.179  0.7834 -0.0528 -0.0957
17316TIP3    H173363   2.893   5.943   4.091  0.9383  0.9905 -0.3382
17316TIP3    H273364   3.001   5.897   4.187 -1.5226 -2.8233  0.6869
17317TIP3   OH273365   4.397   3.345  14.269 -0.3865  0.3109  0.5734
17317TIP3    H173366   4.370   3.436  14.265 -1.5194 -0.0777 -0.9566
17317TIP3    H273367   4.453   3.340  14.347 -1.4511  1.9863  1.4657
17318TIP3   OH273368   2.575   1.885   1.622  0.6865  0.4784  0.1459
17318TIP3    H173369   2.602   1.976   1.622 -0.2836  0.7842 -1.1042
17318TIP3    H273370   2.490   1.885   1.664  1.0882  0.0153  0.9638
17319TIP3   OH273371   2.908   6.188   1.515 -0.0306 -0.1467 -0.1241
17319TIP3    H173372   2.813   6.187   1.507 -0.1825  1.6245  1.0889
17319TIP3    H273373   2.925   6.159   1.605  0.5413  0.2398 -0.1040
17320TIP3   OH273374   4.526   1.567  11.041 -0.1477 -0.5805  0.0467
17320TIP3    H173375   4.529   1.604  10.953 -0.3064 -0.9027 -0.0955
17320TIP3    H273376   4.472   1.629  11.091 -0.1762 -0.4715 -0.1171
17321TIP3   OH273377   0.985   2.242  12.369  0.1417  0.1014 -0.2295
17321TIP3    H173378   0.980   2.217  12.462 -0.3903 -0.9766 -0.5468
17321TIP3    H273379   1.038   2.321  12.369  0.3787 -0.0453  0.9740
17322TIP3   OH273380   4.386   1.868  17.091  0.1066 -0.1288 -0.1976
17322TIP3    H173381   4.447   1.839  17.159  0.2069 -0.5530 -0.4656
17322TIP3    H273382   4.397   1.804  17.020 -1.0328 -0.5140 -0.0264
17323TIP3   OH273383   0.270   3.297  11.440  0.8545 -0.3779 -0.5032
17323TIP3    H173384   0.197   3.317  11.498  1.2228 -2.0471  0.5849
17323TIP3    H273385   0.240   3.223  11.387  0.6379  0.9277 -2.2513
17324TIP3   OH273386   6.745   5.077   1.463  0.1975  0.2145 -0.2022
17324TIP3    H173387   6.694   5.049   1.539 -0.0056  1.0443 -0.0263
17324TIP3    H273388   6.835   5.081   1.494  0.1285  0.4585 -0.0346
17325TIP3   OH273389   5.340   3.462  13.470 -0.4242  0.3957 -0.2889
17325TIP3    H173390   5.303   3.545  13.441  0.6592  1.5893  1.6512
17325TIP3    H273391   5.288   3.438  13.546  1.4303  1.0411  1.2091
17326TIP3   OH273392   4.406   0.688   0.071  0.8058  0.2698 -0.4980
17326TIP3    H173393   4.340   0.727   0.130  1.2369 -0.9175  0.7946
17326TIP3    H273394   4.371   0.602   0.050  1.5100  0.0017 -0.5664
17327TIP3   OH273395   5.878   2.315  13.625  0.9134 -0.1970 -0.4934
17327TIP3    H173396   5.908   2.302  13.535 -2.5185 -0.2418 -1.7207
17327TIP3    H273397   5.860   2.226  13.656  1.1888 -0.1148 -0.1043
17328TIP3   OH273398   5.339   6.504   4.077 -0.0154 -0.0614 -0.0395
17328TIP3    H173399   5.341   6.414   4.109  1.5820  0.2190  0.6642
17328TIP3    H273400   5.360   6.498   3.984  1.1424 -0.3081  0.2412
17329TIP3   OH273401   6.283   4.368  10.114  0.3955 -0.7410  0.2278
17329TIP3    H173402   6.367   4.410  10.131 -0.0369  0.0783  0.3641
17329TIP3    H273403   6.266   4.316  10.193  0.2983 -0.1028  0.6344
17330TIP3   OH273404   5.984   3.377   1.641 -0.2701 -0.1339 -0.7119
17330TIP3    H173405   5.963   3.325   1.718  1.1938 -1.1292 -0.9696
17330TIP3    H273406   6.078   3.393   1.647 -0.2691  0.3934 -1.9246
17331TIP3   OH273407   6.544   0.042   2.125  0.4135 -0.6092  1.1911
17331TIP3    H173408   6.575  -0.047   2.108 -0.8102 -0.7678 -0.3099
17331TIP3    H273409   6.620   0.088   2.161  1.6394 -1.6950  0.0059
17332TIP3   OH273410   2.570   4.254  14.087 -0.4534 -0.1906 -0.2087
17332TIP3    H173411   2.630   4.198  14.137  0.2239  0.1274 -0.6630
17332TIP3    H273412   2.590   4.343  14.116  0.5271  0.0730 -1.6414
17333TIP3   OH273413   5.720   5.435  13.280  0.0708 -0.6969  0.0434
17333TIP3    H173414   5.775   5.422  13.203 -2.7310 -0.1569 -2.1283
17333TIP3    H273415   5.660   5.361  13.280  0.3797 -0.9987  2.0799
17334TIP3   OH273416   4.574   1.320   5.004 -0.2966  0.3299 -0.5044
17334TIP3    H173417   4.536   1.392   4.953  0.0430  0.6437 -0.3175
17334TIP3    H273418   4.519   1.314   5.082 -0.7473 -0.0745 -0.8485
17335TIP3   OH273419   5.496   0.079  12.745 -0.1193  0.3003  0.2237
17335TIP3    H173420   5.558   0.082  12.818 -0.5622 -0.8346  0.6569
17335TIP3    H273421   5.548   0.049  12.671  0.1931  0.8377  0.2262
17336TIP3   OH273422   0.629   3.662   3.691 -0.1368  0.3299 -0.2150
17336TIP3    H173423   0.585   3.647   3.608 -0.1165 -0.1556 -0.1397
17336TIP3    H273424   0.575   3.616   3.755  0.8415 -0.8401 -0.2136
17337TIP3   OH273425   0.691   1.961   3.556  0.0625  0.3392  0.0946
17337TIP3    H173426   0.614   1.934   3.507  1.7086 -3.0381 -0.7709
17337TIP3    H273427   0.658   1.982   3.644 -1.7971 -1.4337 -0.1495
17338TIP3   OH273428   0.393   3.798  14.635 -0.9693  0.0826  0.4414
17338TIP3    H173429   0.451   3.797  14.711  1.6499  1.0459 -1.4463
17338TIP3    H273430   0.375   3.890  14.619  0.1878  0.0406 -1.2816
17339TIP3   OH273431   3.154   3.122   5.352  0.3509 -0.3818 -0.5366
17339TIP3    H173432   3.069   3.131   5.308 -0.0401 -1.8846 -0.1371
17339TIP3    H273433   3.133   3.127   5.446  0.8641  0.4551 -0.4659
17340TIP3   OH273434   1.519   1.508   1.663 -0.3640  0.4315 -0.9529
17340TIP3    H173435   1.436   1.509   1.616  0.0560  0.7683 -1.6999
17340TIP3    H273436   1.495   1.516   1.755 -1.1848 -0.0578 -1.1236
17341TIP3   OH273437   2.317   6.425   0.886  0.0495  0.2502 -0.4165
17341TIP3    H173438   2.386   6.491   0.893 -0.2041  0.3885  0.9391
17341TIP3    H273439   2.348   6.352   0.940 -1.1003  0.5313  0.6514
17342TIP3   OH273440   4.366   4.917   3.049  0.0353  0.2942 -0.7516
17342TIP3    H173441   4.342   4.848   3.110  1.3398  0.5535  0.0761
17342TIP3    H273442   4.283   4.961   3.029 -0.5343 -0.3528  0.1234
17343TIP3   OH273443   2.548   1.153   3.829 -0.2096 -0.4350  0.4327
17343TIP3    H173444   2.488   1.101   3.776  0.5243  1.5184 -2.4057
17343TIP3    H273445   2.566   1.231   3.777  2.1891  0.5955  2.6566
17344TIP3   OH273446   0.214   3.881  14.970  0.4708 -0.4287  0.0155
17344TIP3    H173447   0.275   3.825  14.922 -0.7613 -1.6966 -0.1093
17344TIP3    H273448   0.193   3.951  14.909  1.7813  0.0085  0.0538
17345TIP3   OH273449   3.823   3.167   2.862  0.1344 -0.4982  0.0229
17345TIP3    H173450   3.754   3.200   2.804 -0.0106 -1.9633 -0.6692
17345TIP3    H273451   3.852   3.244   2.911 -2.8269 -0.0834  1.2092
17346TIP3   OH273452   5.909   2.202  14.452  0.3086  0.3925  0.0715
17346TIP3    H173453   5.951   2.280  14.415  0.2108  0.0575 -0.7634
17346TIP3    H273454   5.941   2.198  14.542  2.0693  0.1624 -0.5360
17347TIP3   OH273455   2.556   1.755  11.122 -0.3382 -0.0167 -0.4397
17347TIP3    H173456   2.536   1.764  11.029 -0.8555  2.0019 -0.1639
17347TIP3    H273457   2.471   1.739  11.163 -0.4817  1.8143 -0.0147
17348TIP3   OH273458   6.346   3.315   4.656 -0.0663 -0.4325  0.8863
17348TIP3    H173459   6.347   3.236   4.602 -1.6078  0.3149 -0.2652
17348TIP3    H273460   6.378   3.384   4.598 -3.5804  0.7589  0.2858
17349TIP3   OH273461   4.573   6.214   4.674 -0.3755  0.1320 -0.3760
17349TIP3    H173462   4.502   6.150   4.681 -2.2852  2.1870 -0.7573
17349TIP3    H273463   4.531   6.295   4.647  2.2403  1.1913 -1.4713
17350TIP3   OH273464   6.532   1.807  12.553 -0.3367  0.9497 -0.2359
17350TIP3    H173465   6.555   1.874  12.618  0.3677  1.0819 -0.6128
17350TIP3    H273466   6.566   1.842  12.470  0.2459  0.0181 -0.3957
17351TIP3   OH273467   6.135   3.774   2.973  0.3584  0.1664  0.0072
17351TIP3    H173468   6.190   3.723   3.032  0.3473 -1.9240 -1.7265
17351TIP3    H273469   6.189   3.786   2.895 -0.7443  0.2312 -0.7481
17352TIP3   OH273470   4.401   6.672   2.759 -0.1494  0.0932  0.2983
17352TIP3    H173471   4.382   6.739   2.694  0.3665 -2.1634 -2.2535
17352TIP3    H273472   4.315   6.637   2.783 -0.2535  0.0692 -0.1091
17353TIP3   OH273473   3.361   0.263  13.596  0.4552 -0.0952 -0.3412
17353TIP3    H173474   3.384   0.199  13.529 -1.1134  0.8413 -1.8278
17353TIP3    H273475   3.276   0.234  13.630 -0.1271  1.0049 -0.8168
17354TIP3   OH273476   5.270   6.013   0.510 -0.0742 -0.1294  0.1423
17354TIP3    H173477   5.364   6.013   0.489  0.2233 -0.9783  1.3697
17354TIP3    H273478   5.267   5.992   0.604 -1.5081 -0.3921  0.0440
17355TIP3   OH273479   2.236   4.672  15.228  0.0898  0.2912  0.3815
17355TIP3    H173480   2.287   4.749  15.200 -1.4177  1.5348  0.9577
17355TIP3    H273481   2.302   4.607  15.251  1.4208  0.3254 -2.9732
17356TIP3   OH273482   1.467   1.002   3.050 -0.5276 -1.0516  0.5732
17356TIP3    H173483   1.559   0.979   3.064  0.4235  2.5976  0.7231
17356TIP3    H273484   1.426   0.985   3.135 -0.2195 -3.5648  0.2492
17357TIP3   OH273485   3.731   0.692  15.072  0.7326  0.1830  0.1599
17357TIP3    H173486   3.678   0.646  15.007  0.2939  1.1028 -0.1393
17357TIP3    H273487   3.807   0.636  15.085  0.9823  0.1393 -1.3994
17358TIP3   OH273488   6.473   2.680  14.377 -0.2103  0.6080  0.2747
17358TIP3    H173489   6.398   2.624  14.357  0.9757 -0.5004 -1.1522
17358TIP3    H273490   6.537   2.621  14.416  0.7035  1.1406 -0.4067
17359TIP3   OH273491   0.157   6.786   5.019 -0.6125  0.2036 -0.8250
17359TIP3    H173492   0.180   6.838   4.942 -1.1730  2.0035  0.1939
17359TIP3    H273493   0.061   6.788   5.021 -0.6351 -0.8315 -0.7359
17360TIP3   OH273494   5.888   6.644   1.414 -0.3766  0.1974  0.0831
17360TIP3    H173495   5.897   6.549   1.415  0.0188  0.2420  1.0056
17360TIP3    H273496   5.904   6.671   1.504  1.3767  1.3072 -0.5307
17361TIP3   OH273497   1.239   1.858   0.390  0.0408 -0.5611 -0.3899
17361TIP3    H173498   1.305   1.807   0.438  1.2269  0.4330 -0.9547
17361TIP3    H273499   1.201   1.796   0.329 -0.7867 -1.5957  1.1383
17362TIP3   OH273500   5.635   4.887   3.857  0.4097  0.8890  0.0194
17362TIP3    H173501   5.571   4.948   3.895  0.3458  0.7196  0.1803
17362TIP3    H273502   5.619   4.804   3.901 -0.7981  0.2496 -1.5540
17363TIP3   OH273503   4.861   6.735  14.027  0.4217 -0.9621  0.2065
17363TIP3    H173504   4.861   6.666  14.093 -0.3331 -0.3651  0.8433
17363TIP3    H273505   4.811   6.699  13.954 -0.3539 -0.9199  0.7175
17364TIP3   OH273506   2.031   3.293  17.189 -0.2586  1.1337  0.1758
17364TIP3    H173507   1.994   3.215  17.230 -0.4201  0.3153 -1.4978
17364TIP3    H273508   2.086   3.332  17.257 -1.6524  0.6039  1.6510
17365TIP3   OH273509   1.343   5.606  12.177  0.2426  0.1826  0.2676
17365TIP3    H173510   1.363   5.534  12.117  0.4394 -0.1060  0.6722
17365TIP3    H273511   1.319   5.563  12.259 -1.8629  0.5420 -0.1447
17366TIP3   OH273512   3.054   1.428   6.078  0.7829 -0.6813 -0.1615
17366TIP3    H173513   3.053   1.481   5.998  2.1304 -1.1752 -0.5338
17366TIP3    H273514   3.127   1.463   6.129 -2.5912  2.3848  2.8205
17367TIP3   OH273515   3.725   3.083   5.152 -0.3681 -0.0923  0.0732
17367TIP3    H173516   3.765   3.089   5.065 -0.6823  1.5553  0.0345
17367TIP3    H273517   3.767   3.151   5.203 -0.1975 -1.0466  1.2287
17368TIP3   OH273518   2.759   5.835  13.941 -0.7733  0.0630 -0.3374
17368TIP3    H173519   2.828   5.864  14.000 -0.4169  1.0442 -1.2157
17368TIP3    H273520   2.774   5.741  13.930 -2.3505 -0.6490  3.0933
17369TIP3   OH273521   1.083   3.227  15.833  0.1874  0.1668 -0.0739
17369TIP3    H173522   1.079   3.286  15.758 -0.2071  1.7028  1.1262
17369TIP3    H273523   0.992   3.209  15.854  0.2705  0.7158  0.7736
17370TIP3   OH273524   4.765   1.963   0.523  0.7402 -0.6659  0.5486
17370TIP3    H173525   4.835   2.021   0.492  0.2786  0.4710  1.6097
17370TIP3    H273526   4.718   1.938   0.443  1.2252  0.0371  0.0286
17371TIP3   OH273527   3.473   2.231  12.481  0.2854 -0.1238  0.2860
17371TIP3    H173528   3.470   2.136  12.469 -2.2755  0.2261 -2.3652
17371TIP3    H273529   3.395   2.252  12.533  0.1310  0.6240 -0.2229
17372TIP3   OH273530   2.550   6.704  13.164  0.0030 -0.4017  0.4487
17372TIP3    H173531   2.515   6.767  13.101 -1.6544 -0.5894  1.1642
17372TIP3    H273532   2.614   6.653  13.114 -0.9199 -0.2271 -0.9507
17373TIP3   OH273533   4.962   3.065   3.151  0.1878  0.1178 -0.3804
17373TIP3    H173534   4.972   3.014   3.231 -0.4672 -0.2578 -0.5276
17373TIP3    H273535   4.867   3.067   3.136  0.4076 -1.1462 -1.9956
17374TIP3   OH273536   4.168   5.137   4.833  0.2135 -0.0149  0.0036
17374TIP3    H173537   4.258   5.147   4.862  0.6503  2.3147 -1.9524
17374TIP3    H273538   4.119   5.204   4.881 -0.2863 -0.6416  0.3673
17375TIP3   OH273539   5.373   3.064  11.735 -0.5403  0.5851  0.3656
17375TIP3    H173540   5.386   2.978  11.776  0.1255 -0.8940 -2.8051
17375TIP3    H273541   5.461   3.101  11.730 -0.6872  0.9842  0.7386
17376TIP3   OH273542   3.137   1.927   5.474 -0.4268 -0.4881 -0.7212
17376TIP3    H173543   3.102   1.850   5.519  0.7585 -0.8950 -0.4999
17376TIP3    H273544   3.111   1.915   5.382 -1.2852 -0.5493 -0.4723
17377TIP3   OH273545   0.733   5.879   0.772  0.1383 -0.3691  0.0236
17377TIP3    H173546   0.782   5.947   0.817 -1.7852  1.4546 -0.5852
17377TIP3    H273547   0.741   5.901   0.679 -1.6880 -0.1126 -0.0965
17378TIP3   OH273548   4.763   1.613   4.208  0.2011 -0.2808  0.5180
17378TIP3    H173549   4.719   1.697   4.220 -0.1538 -0.5590  1.1787
17378TIP3    H273550   4.855   1.630   4.231  0.1804 -0.0130  0.3995
17379TIP3   OH273551   3.922   0.833  13.442  0.3310  0.0504  0.3335
17379TIP3    H173552   3.942   0.899  13.508  0.2602 -0.6495  1.0620
17379TIP3    H273553   3.924   0.750  13.490  2.8234 -0.7265 -1.0429
17380TIP3   OH273554   0.007   2.199  15.906 -0.0317 -0.1382 -0.3255
17380TIP3    H173555  -0.035   2.241  15.831 -0.1017 -0.7221 -0.6162
17380TIP3    H273556   0.052   2.270  15.952 -2.2344  0.6979  0.6209
17381TIP3   OH273557   1.275   3.539  11.439 -0.1868  0.4775  0.0483
17381TIP3    H173558   1.266   3.601  11.367 -0.1134 -0.8830 -1.1623
17381TIP3    H273559   1.189   3.495  11.442 -0.0927  0.3362  0.6022
17382TIP3   OH273560   5.929   2.763   1.367  0.5953 -0.2724 -0.3075
17382TIP3    H173561   5.946   2.692   1.305 -1.7898 -1.3057  0.1398
17382TIP3    H273562   5.920   2.841   1.312  1.3269 -0.6706 -0.9976
17383TIP3   OH273563   1.654   6.710   1.196 -0.2912  0.1440 -0.7480
17383TIP3    H173564   1.563   6.701   1.224 -0.2251 -1.5689 -0.9957
17383TIP3    H273565   1.692   6.623   1.212  1.3279  0.8866 -0.5217
17384TIP3   OH273566   4.929   3.608  11.256 -0.1656  0.1730  0.0735
17384TIP3    H173567   4.841   3.593  11.221 -1.6068  0.3805  3.4204
17384TIP3    H273568   4.958   3.522  11.285 -0.2372  0.4718  1.0637
17385TIP3   OH273569   1.780   4.517  11.729 -0.2249 -0.2076 -0.5476
17385TIP3    H173570   1.827   4.434  11.729  2.5517  1.2969 -1.0260
17385TIP3    H273571   1.744   4.524  11.640  0.2920 -0.4855 -0.7809
17386TIP3   OH273572   4.658   0.002  15.992 -0.4426 -0.0083  0.1718
17386TIP3    H173573   4.673  -0.001  15.897 -0.5827 -1.4078  0.1881
17386TIP3    H273574   4.699  -0.077  16.026  2.4340  2.0673  1.7324
17387TIP3   OH273575   6.643   4.994   5.719 -0.3226 -0.0033  0.0550
17387TIP3    H173576   6.632   4.922   5.780 -3.2872  1.1377  0.9323
17387TIP3    H273577   6.590   4.970   5.643  2.0021 -0.6330 -1.4340
17388TIP3   OH273578   6.175   5.277   4.909 -0.1097 -0.3400  0.2354
17388TIP3    H173579   6.093   5.232   4.889  0.7714 -2.7794  1.8721
17388TIP3    H273580   6.225   5.273   4.828 -1.2110  0.2939 -0.4863
17389TIP3   OH273581   6.099   5.828  16.061  0.2151 -0.0661  0.6595
17389TIP3    H173582   6.094   5.902  16.121  2.9494  1.1742 -0.5627
17389TIP3    H273583   6.065   5.861  15.978 -0.4651 -0.8048  0.6345
17390TIP3   OH273584   3.548   0.311  16.859 -0.1558 -0.2362 -0.1712
17390TIP3    H173585   3.552   0.259  16.940 -0.1588 -0.3777 -0.2637
17390TIP3    H273586   3.508   0.253  16.795 -0.5455  0.0191 -0.1648
17391TIP3   OH273587   1.520   0.022  12.444 -0.1910 -0.4494 -0.1380
17391TIP3    H173588   1.499  -0.009  12.532 -1.3291 -0.2922 -0.3450
17391TIP3    H273589   1.444  -0.002  12.392  0.3074 -0.1825 -0.9968
17392TIP3   OH273590   2.674   4.794   1.943 -0.1707 -0.0639 -0.5910
17392TIP3    H173591   2.639   4.707   1.959  2.2478 -0.6000  2.1626
17392TIP3    H273592   2.615   4.853   1.991 -0.5167 -0.3806 -0.6249
17393TIP3   OH273593   5.259   3.761   3.065 -0.0851  0.3387  0.0168
17393TIP3    H173594   5.308   3.698   3.117 -0.6063  1.5048  1.9785
17393TIP3    H273595   5.167   3.742   3.084 -0.2982  0.4940 -0.8271
17394TIP3   OH273596   4.713   3.123   2.366  0.1574 -0.7389 -0.7185
17394TIP3    H173597   4.799   3.166   2.373  0.4281 -1.3270 -0.3618
17394TIP3    H273598   4.725   3.039   2.411 -1.3862  0.3448  1.8028
17395TIP3   OH273599   3.858   4.895  13.601 -0.2644  0.3364 -0.0959
17395TIP3    H173600   3.936   4.951  13.597  0.0922 -0.1901 -0.4914
17395TIP3    H273601   3.848   4.861  13.512  0.2678 -1.2531  0.4430
17396TIP3   OH273602   5.934   0.183   3.942 -0.1384  0.1965  0.0259
17396TIP3    H173603   5.862   0.131   3.978  0.9817  0.5950  3.0588
17396TIP3    H273604   5.957   0.243   4.014  1.4510  1.9052 -1.8500
17397TIP3   OH273605   5.009   0.101  15.286  0.2745  0.9886 -0.5857
17397TIP3    H173606   5.074   0.144  15.342 -0.4991  3.0221 -1.1711
17397TIP3    H273607   4.926   0.140  15.313 -0.6994 -1.5207  0.0936
17398TIP3   OH273608   3.492   5.929   0.103 -0.0982  0.0029  0.2617
17398TIP3    H173609   3.542   5.938   0.185 -0.0478  1.1561  0.1233
17398TIP3    H273610   3.401   5.935   0.130 -0.1537 -1.6053  0.4574
17399TIP3   OH273611   2.002   5.479   2.668  0.1261 -0.2162 -0.0489
17399TIP3    H173612   2.087   5.521   2.653  1.5735 -1.6832  3.4116
17399TIP3    H273613   1.988   5.423   2.592  0.7447  2.3363 -2.1226
17400TIP3   OH273614   0.505   6.404  11.888 -0.0987  0.5013 -0.6961
17400TIP3    H173615   0.487   6.434  11.977 -0.4512 -0.0904 -0.5677
17400TIP3    H273616   0.435   6.441  11.835  0.5770  1.5388 -0.8642
17401TIP3   OH273617   4.638   4.024  15.979  0.0960 -0.4626  0.7068
17401TIP3    H173618   4.562   4.078  15.997  1.0516  0.8398  0.9310
17401TIP3    H273619   4.692   4.077  15.920  0.6535 -1.5233  0.2377
17402TIP3   OH273620   1.850   0.427  10.879 -0.2585 -0.0848 -0.5214
17402TIP3    H173621   1.831   0.496  10.816  2.0549 -0.8546 -2.1467
17402TIP3    H273622   1.871   0.350  10.826  1.1985 -0.9095  1.1769
17403TIP3   OH273623   5.867   2.606   5.755 -0.2567  0.2627  0.7659
17403TIP3    H173624   5.924   2.635   5.826  1.5670 -3.0618  0.7827
17403TIP3    H273625   5.827   2.525   5.787  0.1718 -1.0148 -1.7532
17404TIP3   OH273626   5.551   5.567  14.615 -0.0341  0.2349  0.2709
17404TIP3    H173627   5.518   5.648  14.652 -0.1951  1.0749 -1.6560
17404TIP3    H273628   5.643   5.565  14.638 -0.6335 -0.4286  2.7250
17405TIP3   OH273629   3.156   3.837   4.203  0.1307  0.7589  0.2118
17405TIP3    H173630   3.173   3.806   4.114  0.6079  0.1373  0.5111
17405TIP3    H273631   3.171   3.932   4.199 -0.1039  0.7720 -0.4241
17406TIP3   OH273632   6.759   0.269  12.421 -0.3182  0.1762 -0.0665
17406TIP3    H173633   6.790   0.293  12.334 -0.4122 -0.0477 -0.1625
17406TIP3    H273634   6.668   0.245  12.408 -0.3234  0.1124  0.0886
17407TIP3   OH273635   4.127   1.819  10.781 -0.0514  0.1449  0.5437
17407TIP3    H173636   4.131   1.861  10.867  1.4947  1.1595 -0.0108
17407TIP3    H273637   4.113   1.891  10.719 -1.3800 -0.5982 -0.0663
17408TIP3   OH273638   5.748   3.995  12.211 -0.3699 -0.1713  0.3706
17408TIP3    H173639   5.701   4.056  12.268  1.5738  1.5465  0.1657
17408TIP3    H273640   5.808   4.049  12.161 -0.0085 -2.0167 -1.2822
17409TIP3   OH273641   3.336   0.783  14.154  0.0756  0.5795 -0.6134
17409TIP3    H173642   3.274   0.735  14.209  0.0037  0.7877 -0.5133
17409TIP3    H273643   3.354   0.724  14.081  2.7823 -1.1605  1.3592
17410TIP3   OH273644   1.933   0.408   3.170 -0.1271  0.7790  0.4952
17410TIP3    H173645   2.010   0.360   3.140 -1.4121  0.7684 -3.0092
17410TIP3    H273646   1.965   0.464   3.241  3.6343  2.4717 -2.3613
17411TIP3   OH273647   4.981   6.690   3.631 -0.2336 -0.8493 -1.1389
17411TIP3    H173648   4.938   6.604   3.632 -0.1173 -0.9141  1.4096
17411TIP3    H273649   5.045   6.685   3.703 -0.2739  1.3860 -0.9376
17412TIP3   OH273650   1.142   1.148   2.334  0.0922  0.0192 -0.5400
17412TIP3    H173651   1.164   1.189   2.417  0.0910 -0.1332 -0.4643
17412TIP3    H273652   1.055   1.111   2.349 -0.2828  0.7505 -0.8829
17413TIP3   OH273653   0.703   4.347   0.420 -0.3479 -0.4533 -0.3537
17413TIP3    H173654   0.743   4.281   0.363 -1.4423 -0.2629 -1.3637
17413TIP3    H273655   0.609   4.329   0.415 -0.6322  0.9472 -0.3478
17414TIP3   OH273656   5.586   2.284   0.676 -0.1806  0.6670  0.2162
17414TIP3    H173657   5.669   2.315   0.711  0.7595 -0.1179 -1.2493
17414TIP3    H273658   5.554   2.355   0.622  0.5388  0.2246 -0.8124
17415TIP3   OH273659   0.574   4.506  15.619 -0.3307  0.2631  0.1469
17415TIP3    H173660   0.640   4.447  15.583  0.8650  1.6182  0.0698
17415TIP3    H273661   0.492   4.456  15.617  0.5741 -1.1991 -0.3649
17416TIP3   OH273662   6.669   1.846   3.780  0.6580  0.5156 -0.2635
17416TIP3    H173663   6.694   1.876   3.867  0.4846  1.1234 -0.4210
17416TIP3    H273664   6.705   1.758   3.773 -0.9424 -0.2673  1.1521
17417TIP3   OH273665   6.199   5.547  14.919  0.1281  0.4551  0.0377
17417TIP3    H173666   6.198   5.567  15.013  1.0276  1.4272 -0.1439
17417TIP3    H273667   6.157   5.622  14.878 -0.6091 -0.1447 -0.3119
17418TIP3   OH273668   5.708   2.498  16.915 -0.0922  0.0323 -0.0919
17418TIP3    H173669   5.618   2.509  16.885  0.2860 -0.8305 -1.5920
17418TIP3    H273670   5.703   2.505  17.011 -1.4625  1.8759 -0.2854
17419TIP3   OH273671   6.732   0.864  15.248  0.6004  0.6314 -0.3867
17419TIP3    H173672   6.822   0.857  15.279  0.3262  1.9702  0.7382
17419TIP3    H273673   6.690   0.785  15.279  1.5595 -0.3716 -1.5636
17420TIP3   OH273674   4.318   1.430   4.620  1.0490  0.4718 -0.6469
17420TIP3    H173675   4.383   1.451   4.687 -0.0268 -0.1856  0.6170
17420TIP3    H273676   4.299   1.514   4.577  0.8001  1.1299  0.7231
17421TIP3   OH273677   1.395   0.068  11.442 -0.0424  0.1536  0.1207
17421TIP3    H173678   1.334   0.056  11.515 -1.7290 -0.8804 -1.4143
17421TIP3    H273679   1.378   0.158  11.413  0.0804  0.3039  0.5053
17422TIP3   OH273680   2.786   4.357  11.542 -0.5533 -0.3850 -0.1546
17422TIP3    H173681   2.695   4.337  11.567 -1.3471  3.2323  0.0116
17422TIP3    H273682   2.778   4.418  11.469  1.7648 -0.4418 -0.4846
17423TIP3   OH273683   0.887   1.405  11.803 -0.3701  0.0755  0.0174
17423TIP3    H173684   0.975   1.394  11.767 -1.2713 -1.1859 -1.8595
17423TIP3    H273685   0.834   1.436  11.729 -1.8108 -0.5623  0.7469
17424TIP3   OH273686   4.855   3.473  16.184 -0.3453 -0.0349  0.5112
17424TIP3    H173687   4.790   3.492  16.116 -0.2780  0.0354  0.4666
17424TIP3    H273688   4.936   3.458  16.135 -0.9890 -3.2647  0.3462
17425TIP3   OH273689   0.959   3.878  11.385 -0.4801 -0.2146  0.1280
17425TIP3    H173690   0.962   3.944  11.454 -0.3332 -0.6467  0.5354
17425TIP3    H273691   1.013   3.806  11.418 -1.0108 -0.7272 -0.1183
17426TIP3   OH273692   3.434   4.797   2.583  0.2798 -0.2961  0.1273
17426TIP3    H173693   3.393   4.857   2.521 -0.0394 -0.6056  0.0360
17426TIP3    H273694   3.470   4.727   2.529  2.8810  1.0802  0.0185
17427TIP3   OH273695   6.660   4.396  13.208  1.1447 -0.3947 -0.0686
17427TIP3    H173696   6.725   4.362  13.271  0.4753 -1.9412 -0.1823
17427TIP3    H273697   6.673   4.343  13.130  2.3279  1.8818 -1.4646
17428TIP3   OH273698   5.983   4.562  13.215 -0.6238 -0.0278 -0.4220
17428TIP3    H173699   6.012   4.495  13.153  1.0687  0.5866 -0.3020
17428TIP3    H273700   5.897   4.589  13.181 -0.1744 -0.4223 -1.9266
17429TIP3   OH273701   4.073   3.389  12.556  0.4298  0.1862  0.8411
17429TIP3    H173702   4.081   3.483  12.573 -1.4761  0.6794 -0.8210
17429TIP3    H273703   4.011   3.358  12.622  1.2042  0.0332  1.5125
17430TIP3   OH273704   5.766   3.385   2.175 -0.3306 -0.2638  0.0893
17430TIP3    H173705   5.809   3.301   2.161  0.7935  0.0960  1.2678
17430TIP3    H273706   5.794   3.439   2.101  1.7420  0.1307  1.1048
17431TIP3   OH273707   6.283   2.114  11.907 -0.2715  0.3047  0.0551
17431TIP3    H173708   6.323   2.197  11.883  0.2597 -0.3592 -1.4630
17431TIP3    H273709   6.332   2.084  11.984  1.1736  0.2253 -0.8882
17432TIP3   OH273710   4.174   3.112  16.313  0.0270  0.3917  0.4784
17432TIP3    H173711   4.191   3.118  16.407 -1.2478 -0.3317  0.7701
17432TIP3    H273712   4.093   3.061  16.306 -0.1623  0.8498 -0.9901
17433TIP3   OH273713   5.642   2.437  13.746 -1.0502 -0.2230 -0.3615
17433TIP3    H173714   5.734   2.446  13.721 -0.8117  1.0562  0.9643
17433TIP3    H273715   5.597   2.506  13.697 -0.8939  0.9079  1.0592
17434TIP3   OH273716   5.509   0.799   1.323 -0.1232  0.0091 -0.1903
17434TIP3    H173717   5.586   0.755   1.285  1.3984  0.6585  2.0855
17434TIP3    H273718   5.467   0.841   1.248  2.0521  0.1080 -1.4012
17435TIP3   OH273719   2.339   3.329  15.972  0.4207 -0.1092 -0.1099
17435TIP3    H173720   2.260   3.284  16.003 -0.0785  0.6171 -0.3265
17435TIP3    H273721   2.361   3.390  16.042 -0.7869  1.6332 -1.2225
17436TIP3   OH273722   1.519   4.029  16.105  0.1628  0.3532 -0.3949
17436TIP3    H173723   1.497   3.962  16.040  0.5118  0.1618 -0.3182
17436TIP3    H273724   1.440   4.040  16.156  0.8395 -1.7483  1.1511
17437TIP3   OH273725   1.133   5.307  15.515 -0.3806  0.2574  0.4335
17437TIP3    H173726   1.199   5.370  15.544 -0.9447  0.7680  0.6144
17437TIP3    H273727   1.179   5.251  15.453  0.3521  0.3106  0.9238
17438TIP3   OH273728   0.603   0.762  11.862 -0.4973  0.0035 -0.4157
17438TIP3    H173729   0.574   0.671  11.862  1.3953 -0.6153  1.4833
17438TIP3    H273730   0.523   0.812  11.877 -1.3618 -1.4009 -0.2592
17439TIP3   OH273731   0.910   6.430   2.243 -0.1851 -0.2146  0.9656
17439TIP3    H173732   0.902   6.376   2.165 -0.6760  0.4256  0.5724
17439TIP3    H273733   0.847   6.500   2.231  0.2156  0.2693  1.6263
17440TIP3   OH273734   0.621   1.265  16.439  0.0586 -0.3207  0.3680
17440TIP3    H173735   0.642   1.190  16.384 -1.0028  0.3147 -0.9319
17440TIP3    H273736   0.578   1.327  16.380 -1.7252  0.0980  2.0560
17441TIP3   OH273737   6.542   6.708   1.423  0.1183  0.4397 -0.4980
17441TIP3    H173738   6.624   6.756   1.417  0.2902  0.3869  1.1660
17441TIP3    H273739   6.550   6.657   1.503 -2.5843  2.4363  1.1450
17442TIP3   OH273740   6.565   6.372  10.512 -0.2640 -0.1393  0.1491
17442TIP3    H173741   6.592   6.451  10.559 -0.9763  0.3388 -0.2344
17442TIP3    H273742   6.643   6.316  10.513  0.7230  1.1760 -0.8628
17443TIP3   OH273743   6.680   1.750  13.677  0.3245 -0.3210  0.4162
17443TIP3    H173744   6.739   1.683  13.644 -0.5532 -0.6418 -0.5129
17443TIP3    H273745   6.593   1.711  13.670 -0.0936  0.5182  0.8514
17444TIP3   OH273746   0.911   3.651   5.819 -0.0180 -0.3282 -0.0559
17444TIP3    H173747   0.894   3.671   5.911 -2.7752 -0.0737 -0.6018
17444TIP3    H273748   0.839   3.594   5.793  0.2005  0.3910 -2.3160
17445TIP3   OH273749   4.934   3.982  15.871  0.2132  0.0455 -0.2141
17445TIP3    H173750   4.882   3.913  15.913  0.5809 -0.1952 -0.1464
17445TIP3    H273751   4.996   3.934  15.816 -0.4318  0.3735 -1.2288
17446TIP3   OH273752   1.594   2.839  14.449 -0.2482  0.0663 -0.0091
17446TIP3    H173753   1.557   2.759  14.411 -0.8753 -0.0486  0.8059
17446TIP3    H273754   1.673   2.856  14.398 -2.1148  1.0685 -2.6744
17447TIP3   OH273755   1.501   5.531  16.900  0.1774 -0.0210  0.3480
17447TIP3    H173756   1.446   5.607  16.918 -0.8209 -0.7665  0.4963
17447TIP3    H273757   1.464   5.493  16.820  0.8433 -0.1882  0.1168
17448TIP3   OH273758   4.298   5.213   1.632 -0.0481 -0.1692  0.1507
17448TIP3    H173759   4.261   5.135   1.674  4.0598 -3.1472 -1.4330
17448TIP3    H273760   4.358   5.249   1.697  1.7637 -1.2795 -0.8539
17449TIP3   OH273761   6.476   6.767  14.639 -0.1726  0.3971  0.7385
17449TIP3    H173762   6.510   6.693  14.688  0.3696 -1.0885 -1.8049
17449TIP3    H273763   6.381   6.757  14.643 -0.0884 -0.7410 -0.0383
17450TIP3   OH273764   5.202   4.108  12.029 -0.0777  0.5965 -0.8626
17450TIP3    H173765   5.185   4.197  12.062  0.6783  0.1921  0.6529
17450TIP3    H273766   5.284   4.082  12.072 -0.0890 -0.6839 -1.6083
17451TIP3   OH273767   0.776   3.364  11.350 -0.6540 -0.1529  0.3654
17451TIP3    H173768   0.726   3.438  11.383 -1.0915 -0.1340 -0.3373
17451TIP3    H273769   0.716   3.317  11.292 -0.6091 -1.4735  1.3730
17452TIP3   OH273770   4.425   6.480  12.938  0.9082 -0.0041  0.4030
17452TIP3    H173771   4.351   6.534  12.964  1.8654  0.9996  1.0715
17452TIP3    H273772   4.398   6.390  12.957 -0.1928  0.3445  0.4767
17453TIP3   OH273773   4.619   4.716  17.114  0.4592 -0.3290  0.0653
17453TIP3    H173774   4.604   4.794  17.168  1.2455 -0.7620  0.9293
17453TIP3    H273775   4.587   4.740  17.027  1.0504  1.0850  0.2298
17454TIP3   OH273776   3.942   4.948  15.451 -0.3671  0.1035 -0.2687
17454TIP3    H173777   3.971   5.020  15.507 -2.0733  0.8097 -0.2508
17454TIP3    H273778   3.889   4.893  15.509 -2.5025  1.0626 -1.2419
17455TIP3   OH273779   2.153   2.760   0.397 -0.0708 -0.1395 -0.6518
17455TIP3    H173780   2.065   2.790   0.374 -0.2020 -1.4336 -1.9101
17455TIP3    H273781   2.194   2.741   0.313  1.5737  0.9015 -0.0842
17456TIP3   OH273782   0.149   0.418  13.373  0.6002 -0.2862 -0.2919
17456TIP3    H173783   0.179   0.464  13.295  0.4764  2.1722  1.0625
17456TIP3    H273784   0.075   0.365  13.342 -0.1005  1.4330 -1.6636
17457TIP3   OH273785   3.575   5.678   0.825 -0.0312 -0.1454 -0.5741
17457TIP3    H173786   3.494   5.644   0.787 -1.3494 -0.9279  2.6680
17457TIP3    H273787   3.639   5.608   0.812 -0.6950 -0.7498 -0.6380
17458TIP3   OH273788   1.437   5.297   5.437  0.3382 -0.3155 -0.6457
17458TIP3    H173789   1.419   5.273   5.527 -0.2105 -1.0020 -0.9396
17458TIP3    H273790   1.351   5.309   5.397  0.5733  1.5329 -0.6822
17459TIP3   OH273791   5.441   5.019   5.628  0.6008  0.0271 -0.1980
17459TIP3    H173792   5.533   5.043   5.618  0.8833  0.1257  2.2238
17459TIP3    H273793   5.406   5.085   5.688 -0.7609 -0.6481 -0.2367
17460TIP3   OH273794   4.403   4.338   2.843 -0.2638 -0.4538  0.6463
17460TIP3    H173795   4.419   4.254   2.887  3.0500 -0.2152  0.0348
17460TIP3    H273796   4.411   4.403   2.913  3.7787 -0.1753  0.0267
17461TIP3   OH273797   0.291   6.229  15.580 -0.3267  0.3100 -0.1187
17461TIP3    H173798   0.304   6.301  15.518  0.2918 -0.3894 -0.8155
17461TIP3    H273799   0.372   6.227  15.632  0.9320 -1.7500 -2.0679
17462TIP3   OH273800   3.587   6.010  11.909  0.2203 -0.7133 -0.0552
17462TIP3    H173801   3.601   6.102  11.931  0.3273 -0.9084  0.7024
17462TIP3    H273802   3.493   6.003  11.894  0.1278 -0.6059  0.4722
17463TIP3   OH273803   1.951   2.298  10.645 -0.4733 -0.1488 -0.0037
17463TIP3    H173804   1.985   2.225  10.696 -0.9428 -0.9319 -0.8073
17463TIP3    H273805   2.028   2.334  10.601 -0.0837  0.4604  1.1549
17464TIP3   OH273806   6.357   4.267   1.821 -0.1603 -0.0926 -0.9341
17464TIP3    H173807   6.426   4.200   1.822 -1.7744 -1.7614 -0.2137
17464TIP3    H273808   6.380   4.326   1.893  0.1525 -1.0162 -0.2667
17465TIP3   OH273809   2.094   4.472  13.449 -0.1072  0.9030  0.0718
17465TIP3    H173810   2.016   4.421  13.427  0.8901 -1.1154  1.0156
17465TIP3    H273811   2.145   4.473  13.367 -0.6992  1.4124 -0.2844
17466TIP3   OH273812   5.919   3.256   0.228 -0.5860 -0.1812 -0.0484
17466TIP3    H173813   5.922   3.209   0.311  1.1082 -0.7405 -0.4175
17466TIP3    H273814   5.885   3.192   0.166  1.9054 -1.0180 -0.5915
17467TIP3   OH273815   5.175   4.179  15.571  0.5171 -0.1030 -0.3430
17467TIP3    H173816   5.234   4.106  15.554 -0.5487 -1.3779  1.2814
17467TIP3    H273817   5.207   4.250  15.515  2.2931 -1.4312 -1.0363
17468TIP3   OH273818   5.946   0.776  17.040 -0.1060 -0.1865 -0.5872
17468TIP3    H173819   6.034   0.792  17.073  0.2975 -2.6025 -0.3422
17468TIP3    H273820   5.889   0.791  17.115  0.1496  0.8967 -0.6120
17469TIP3   OH273821   5.842   5.014   0.524  0.0331 -0.2864 -0.0898
17469TIP3    H173822   5.937   5.011   0.534 -0.1353 -0.1737  1.5935
17469TIP3    H273823   5.825   4.956   0.450  1.3276 -1.0592  0.1905
17470TIP3   OH273824   4.790   4.006   3.431 -0.5547 -0.7818  0.4521
17470TIP3    H173825   4.857   4.049   3.484  1.1835 -1.3884 -1.2099
17470TIP3    H273826   4.709   4.054   3.451  0.8399  1.5540  0.6221
17471TIP3   OH273827   0.309   3.119  17.030 -0.2770 -0.1479 -0.7048
17471TIP3    H173828   0.292   3.028  17.005  0.3028 -0.4443 -0.0411
17471TIP3    H273829   0.400   3.134  17.004 -0.2348  0.1046 -0.4060
17472TIP3   OH273830   2.979   2.434  15.096  0.8572  0.1793 -0.3464
17472TIP3    H173831   2.910   2.447  15.030  1.3942 -0.9195 -1.1516
17472TIP3    H273832   3.026   2.517  15.098 -0.2391  0.7988 -0.0858
17473TIP3   OH273833   4.289   6.650   1.054  0.5040 -0.1232 -0.2928
17473TIP3    H173834   4.203   6.641   1.014  0.3742  0.2735 -0.1074
17473TIP3    H273835   4.351   6.632   0.984  0.2708 -0.3699 -0.4363
17474TIP3   OH273836   2.852   1.958  14.884 -0.2957  0.0070 -0.0997
17474TIP3    H173837   2.877   2.027  14.946  1.1228 -1.7077  1.2632
17474TIP3    H273838   2.758   1.948  14.896 -0.2868  0.7838  0.6424
17475TIP3   OH273839   3.498   2.911   4.036 -0.0176  0.5624  0.4792
17475TIP3    H173840   3.580   2.866   4.055 -0.7206 -0.8363  0.2780
17475TIP3    H273841   3.497   2.919   3.941 -0.6993 -0.5740  0.3837
17476TIP3   OH273842   6.125   2.276   2.584 -0.4619  0.3774  0.3965
17476TIP3    H173843   6.100   2.264   2.676 -3.2820 -0.3651 -0.3906
17476TIP3    H273844   6.186   2.205   2.566 -1.5862 -0.8031  1.1477
17477TIP3   OH273845   4.798   5.663   0.738  0.0332 -0.5175  0.0440
17477TIP3    H173846   4.767   5.750   0.711  1.1627 -0.3060 -0.5968
17477TIP3    H273847   4.781   5.607   0.663  0.5771 -0.5536 -0.0480
17478TIP3   OH273848   0.397   2.062  15.388 -0.1908 -0.2629  0.6030
17478TIP3    H173849   0.355   2.102  15.464 -2.0379 -1.3568  0.1982
17478TIP3    H273850   0.393   1.968  15.406  1.7987 -0.4084  0.3743
17479TIP3   OH273851   5.808   4.695   4.393  0.1607  0.1657 -0.3384
17479TIP3    H173852   5.792   4.760   4.461  2.1319 -0.6415  0.9198
17479TIP3    H273853   5.751   4.621   4.417  1.2294 -0.3162  0.7218
17480TIP3   OH273854   1.987   5.799  10.580  0.2350  0.0977 -0.3780
17480TIP3    H173855   2.074   5.811  10.618  0.4203 -2.9643  0.2577
17480TIP3    H273856   2.003   5.794  10.486  0.5727  0.7993 -0.3645
17481TIP3   OH273857   3.915   1.647  16.522 -0.1810  0.0006 -0.3079
17481TIP3    H173858   3.905   1.558  16.490 -0.8514  0.6241 -1.8771
17481TIP3    H273859   3.885   1.643  16.613 -2.0402 -0.9861 -0.9303
17482TIP3   OH273860   4.284   3.418   4.936  0.1312 -0.3942  0.5658
17482TIP3    H173861   4.193   3.433   4.909 -0.5010 -0.6603  2.4687
17482TIP3    H273862   4.277   3.375   5.022  2.0768  0.6996  1.3023
17483TIP3   OH273863   4.644   6.236  11.754 -0.8783  0.7155  0.3884
17483TIP3    H173864   4.714   6.218  11.692  0.7734  0.7788  2.1825
17483TIP3    H273865   4.598   6.152  11.763 -0.5525  0.4701 -0.2158
17484TIP3   OH273866   6.484   2.603  14.973  0.0454 -0.0345 -0.0126
17484TIP3    H173867   6.432   2.607  14.893 -0.5312  0.5661  0.3812
17484TIP3    H273868   6.464   2.685  15.018 -0.5842 -0.8896  1.3128
17485TIP3   OH273869   3.629   6.777   0.584 -0.1334 -0.1783  0.1739
17485TIP3    H173870   3.614   6.852   0.528 -0.4408  0.2578  0.8329
17485TIP3    H273871   3.628   6.702   0.525 -3.5289 -0.0372 -0.0105
17486TIP3   OH273872   2.671   2.143  13.945 -0.5779 -0.4256  0.5307
17486TIP3    H173873   2.626   2.176  14.023  0.7736 -0.8871  1.5317
17486TIP3    H273874   2.691   2.052  13.966 -0.3257 -0.5878 -0.4109
17487TIP3   OH273875   0.644   5.221  14.294  0.0724 -0.5996 -0.2085
17487TIP3    H173876   0.565   5.251  14.340  0.1075  0.2911 -0.7200
17487TIP3    H273877   0.663   5.291  14.232  0.6394 -1.3194 -0.8439
17488TIP3   OH273878   4.806   1.315  14.502 -0.3128  0.5561  0.7370
17488TIP3    H173879   4.737   1.357  14.451  0.4994  0.8027 -0.1692
17488TIP3    H273880   4.878   1.379  14.502  0.6498 -0.5031 -0.0129
17489TIP3   OH273881   3.829   5.275   4.610  0.4940  0.1448 -0.1633
17489TIP3    H173882   3.818   5.276   4.705 -1.2429  1.1717 -0.3556
17489TIP3    H273883   3.746   5.243   4.576  1.1326 -0.3063 -1.3492
17490TIP3   OH273884   2.996   0.341  11.307  0.3055 -0.4718 -0.0099
17490TIP3    H173885   2.909   0.348  11.266  1.0825 -2.4069 -2.0984
17490TIP3    H273886   3.001   0.250  11.337  0.4758  0.4245  2.8831
17491TIP3   OH273887   3.955   5.517   6.495 -0.5020  0.3017  0.2172
17491TIP3    H173888   3.863   5.503   6.475 -1.0134  0.2623  2.3885
17491TIP3    H273889   4.001   5.445   6.452 -1.5246  0.1681 -0.6503
17492TIP3   OH273890   2.942   3.898  14.125  0.0479 -0.4891 -0.0669
17492TIP3    H173891   2.920   3.806  14.138 -0.7667 -0.4460 -1.0342
17492TIP3    H273892   2.879   3.946  14.178  1.3993 -0.5242  1.5889
17493TIP3   OH273893   1.544   5.277   4.780 -0.1795 -0.3628 -0.3165
17493TIP3    H173894   1.586   5.196   4.810 -0.4008 -0.1215  0.6642
17493TIP3    H273895   1.611   5.344   4.791 -0.8834  0.0808  1.5557
17494TIP3   OH273896   1.205   5.895  13.022  0.0147  0.2406 -0.3467
17494TIP3    H173897   1.229   5.982  13.055  0.1463  0.4920 -1.0964
17494TIP3    H273898   1.257   5.834  13.075  0.3030  0.6454 -0.1611
17495TIP3   OH273899   6.755   3.212   4.320  0.2139 -0.6350 -0.2172
17495TIP3    H173900   6.761   3.184   4.229  0.3661  0.6472 -0.6211
17495TIP3    H273901   6.662   3.205   4.341  0.3587 -2.1618 -0.0601
17496TIP3   OH273902   0.949   5.863   3.305 -0.8626 -0.5095 -0.1091
17496TIP3    H173903   0.958   5.919   3.229 -2.2729  1.7258  1.3276
17496TIP3    H273904   0.855   5.852   3.317 -0.7290  0.5437  2.2492
17497TIP3   OH273905   4.818   2.995  15.551  0.0834  0.0708  0.8715
17497TIP3    H173906   4.749   2.938  15.586  1.7661 -3.1429 -0.8278
17497TIP3    H273907   4.778   3.036  15.474 -0.6830  0.0901  1.2712
17498TIP3   OH273908   3.749   4.067   0.225  1.0038 -0.3278 -0.3870
17498TIP3    H173909   3.692   4.139   0.197  1.2352 -0.9230 -2.4843
17498TIP3    H273910   3.689   3.992   0.233  1.0532 -0.3197  0.0633
17499TIP3   OH273911   1.249   4.493   3.667  0.1157 -0.6844 -0.1028
17499TIP3    H173912   1.314   4.498   3.737  0.8051 -0.0317 -0.7690
17499TIP3    H273913   1.195   4.571   3.679 -0.2903 -1.0137  0.2069
17500TIP3   OH273914   6.044   6.603  16.781 -0.4532 -0.6217  0.2804
17500TIP3    H173915   5.950   6.611  16.768  0.0192  2.3089 -1.8136
17500TIP3    H273916   6.054   6.589  16.875 -2.9830 -1.0824  0.5049
17501TIP3   OH273917   5.550   5.999  11.823 -0.3673  0.2415  0.5233
17501TIP3    H173918   5.616   5.971  11.886 -0.1475 -0.0734  0.1538
17501TIP3    H273919   5.470   5.954  11.850 -0.2967  0.1791  0.6309
17502TIP3   OH273920   3.929   2.936  16.783 -0.0898  0.4513  0.0401
17502TIP3    H173921   3.920   2.874  16.856  1.2462  0.4990  0.2464
17502TIP3    H273922   3.983   3.007  16.818 -0.1488  0.8892 -0.7415
17503TIP3   OH273923   1.003   2.767  11.197 -0.0131 -0.3742 -0.2386
17503TIP3    H173924   0.998   2.780  11.103 -0.7045 -0.9287 -0.2843
17503TIP3    H273925   1.065   2.696  11.209  1.3613  0.8184 -0.1721
17504TIP3   OH273926   3.446   2.594   5.066  0.1510  0.6097 -0.6803
17504TIP3    H173927   3.480   2.530   5.005  0.4961 -0.0556  0.1926
17504TIP3    H273928   3.518   2.607   5.129 -0.1658  1.3271 -0.4597
17505TIP3   OH273929   6.437   5.525  13.810 -0.2428  0.1560  0.0640
17505TIP3    H173930   6.398   5.571  13.884 -0.5183 -0.4027  0.2658
17505TIP3    H273931   6.424   5.584  13.735 -2.9071 -0.7000 -0.2019
17506TIP3   OH273932   0.530   6.312   0.925  0.2078 -0.1038  0.1217
17506TIP3    H173933   0.537   6.390   0.980 -0.4394 -0.7490  1.1384
17506TIP3    H273934   0.473   6.338   0.852 -1.5882 -0.1738  1.4767
17507TIP3   OH273935   6.040   2.078   0.766 -0.0766 -0.1517  0.4312
17507TIP3    H173936   5.979   2.023   0.718  1.5841 -1.8174  0.1513
17507TIP3    H273937   6.056   2.030   0.847  2.0480 -0.5410 -0.1916
17508TIP3   OH273938   1.215   5.435   2.720 -0.0468 -0.1580  0.4849
17508TIP3    H173939   1.292   5.428   2.664  0.4176  1.2144  0.9301
17508TIP3    H273940   1.249   5.471   2.802 -1.0654 -0.1274  0.8908
17509TIP3   OH273941   4.430   3.879  13.270  0.9429 -0.5606  0.3749
17509TIP3    H173942   4.363   3.908  13.332  1.1637  0.3689  0.1855
17509TIP3    H273943   4.381   3.851  13.193  0.7232 -0.7519  0.5821
17510TIP3   OH273944   3.674   4.172   4.926  0.1497  0.5199 -0.1988
17510TIP3    H173945   3.722   4.248   4.958 -0.4251  0.4043  0.9505
17510TIP3    H273946   3.634   4.134   5.004 -1.5271  0.4136 -1.0799
17511TIP3   OH273947   1.873   4.314   3.764  0.0828 -0.1976 -0.0049
17511TIP3    H173948   1.789   4.357   3.744  0.7739  1.0130 -0.3453
17511TIP3    H273949   1.868   4.230   3.719 -0.8657 -0.0504 -0.1930
17512TIP3   OH273950   3.263   5.818  15.675 -0.1382  0.2374 -0.2681
17512TIP3    H173951   3.224   5.786  15.757 -0.7248  1.3327 -0.1047
17512TIP3    H273952   3.259   5.743  15.616  1.2455 -0.8801  1.0255
17513TIP3   OH273953   4.933   1.262   4.369  0.1609 -0.6992  0.4628
17513TIP3    H173954   4.955   1.233   4.457  1.9967  0.1246  0.2913
17513TIP3    H273955   4.884   1.188   4.331  0.4892 -1.5769  1.7187
17514TIP3   OH273956   1.483   2.910   3.924 -0.3196  0.2659 -0.2770
17514TIP3    H173957   1.439   2.989   3.892 -0.0740  0.0749 -1.1119
17514TIP3    H273958   1.437   2.838   3.881  0.0322  0.0064 -0.2205
17515TIP3   OH273959   1.386   3.170  15.618 -0.2855 -0.3587 -0.4961
17515TIP3    H173960   1.311   3.158  15.560 -1.4758  0.2698  0.8901
17515TIP3    H273961   1.437   3.240  15.577 -1.5399  0.6480 -0.3835
17516TIP3   OH273962   3.179   3.919   1.207 -0.0657 -0.6938 -0.3767
17516TIP3    H173963   3.139   4.004   1.223 -1.8201 -1.5467 -0.0611
17516TIP3    H273964   3.253   3.915   1.267 -2.1125 -0.8123  2.2246
17517TIP3   OH273965   6.063   3.930   3.478  0.4567  0.4055 -0.5170
17517TIP3    H173966   6.024   4.015   3.493 -0.2336 -0.0210  0.1123
17517TIP3    H273967   6.001   3.884   3.421  0.9416  0.4056 -1.0549
17518TIP3   OH273968   2.555   0.402  17.088 -0.0078  0.5292  0.0129
17518TIP3    H173969   2.566   0.363  17.002  3.6833 -1.3989  1.2702
17518TIP3    H273970   2.607   0.347  17.146 -1.0779  2.7606  3.2182
17519TIP3   OH273971   1.069   6.365  16.900  0.6334  0.3152  0.0926
17519TIP3    H173972   1.005   6.339  16.966  1.2186  0.0857  0.5694
17519TIP3    H273973   1.105   6.283  16.867  0.2104  0.4184 -0.6564
17520TIP3   OH273974   0.887   1.294   5.117  0.7243 -0.1347  0.2942
17520TIP3    H173975   0.899   1.350   5.040  0.5925  1.0298  1.1091
17520TIP3    H273976   0.805   1.249   5.102  0.0613  1.0419  0.3243
17521TIP3   OH273977   0.886   6.140  12.579  0.1382 -0.2050 -0.5657
17521TIP3    H173978   0.961   6.082  12.568  0.4068  0.1275 -0.5219
17521TIP3    H273979   0.868   6.140  12.673  1.8773  1.9050 -0.1862
17522TIP3   OH273980   1.911   5.332   2.446  0.6844  0.6014  0.5330
17522TIP3    H173981   1.970   5.390   2.398 -0.0296  0.0592 -1.0316
17522TIP3    H273982   1.937   5.244   2.421  1.2474  0.2475  2.2944
17523TIP3   OH273983   2.234   2.268   0.927 -0.6913 -0.6418 -0.6111
17523TIP3    H173984   2.315   2.305   0.891  0.1320 -1.1746  0.6581
17523TIP3    H273985   2.184   2.241   0.850 -0.4965  1.3909 -1.4915
17524TIP3   OH273986   1.369   0.152  14.121  0.5144  0.1946  0.5139
17524TIP3    H173987   1.432   0.119  14.185 -1.0549 -0.0258  1.9601
17524TIP3    H273988   1.333   0.074  14.079  0.2046  0.2657  0.6468
17525TIP3   OH273989   5.690   3.599  15.319  0.3092 -0.0472 -0.4176
17525TIP3    H173990   5.636   3.580  15.396  1.3899 -1.2089  0.0564
17525TIP3    H273991   5.649   3.677  15.281 -1.7415 -0.9083 -0.0926
17526TIP3   OH273992   6.318   3.456  11.112 -0.0946  0.1249  0.4836
17526TIP3    H173993   6.346   3.528  11.056  1.3303 -1.7100 -1.1969
17526TIP3    H273994   6.223   3.463  11.114 -0.0784  1.0198 -1.0878
17527TIP3   OH273995   2.478   0.699  12.879 -0.6576 -0.2126  0.5738
17527TIP3    H173996   2.394   0.687  12.923 -0.0066 -2.1681  1.3681
17527TIP3    H273997   2.543   0.687  12.948  0.2823  1.7235  0.0536
17528TIP3   OH273998   6.268   3.546   3.730 -0.3846 -0.6846  0.4971
17528TIP3    H173999   6.206   3.585   3.669 -0.4985  0.7586  1.5096
17528TIP3    H274000   6.218   3.478   3.775 -0.8263 -0.4858  0.3050
17529TIP3   OH274001   1.265   5.016   3.772  0.0395  0.2834  0.3208
17529TIP3    H174002   1.279   5.093   3.827 -1.5864  0.1126  0.9979
17529TIP3    H274003   1.170   5.009   3.764  0.1777 -1.5795  0.1642
17530TIP3   OH274004   3.930   2.096   3.904 -0.2032 -0.3133  0.4268
17530TIP3    H174005   3.923   2.022   3.844  0.5185 -0.0861  0.0588
17530TIP3    H274006   3.849   2.094   3.955 -0.0146 -1.5836  0.6836
17531TIP3   OH274007   3.230   4.791   3.455  0.3719 -0.6087 -0.0326
17531TIP3    H174008   3.278   4.735   3.516 -0.2557 -1.2508 -0.1126
17531TIP3    H274009   3.186   4.855   3.510  2.0590  0.5651 -0.0280
17532TIP3   OH274010   6.302   4.099   2.784 -0.0523  0.5916  0.1639
17532TIP3    H174011   6.245   4.153   2.839 -2.2638 -0.3269 -1.1443
17532TIP3    H274012   6.278   4.122   2.694  1.0594 -0.4260 -0.4224
17533TIP3   OH274013   5.282   5.318  17.212 -0.5990  0.0237 -0.1565
17533TIP3    H174014   5.326   5.325  17.127 -3.5707  2.2293 -1.6141
17533TIP3    H274015   5.300   5.402  17.255 -1.8981  0.2783 -0.0710
17534TIP3   OH274016   3.649   3.921   4.787  0.1196  0.1910 -0.4173
17534TIP3    H174017   3.728   3.931   4.733 -0.7799  0.4480 -1.7025
17534TIP3    H274018   3.643   4.004   4.835 -0.0945  0.6843 -1.2965
17535TIP3   OH274019   4.205   3.734   2.395  0.1619  0.1083 -0.3080
17535TIP3    H174020   4.163   3.648   2.394  1.9000 -0.7623 -0.0339
17535TIP3    H274021   4.287   3.721   2.347  0.6034  1.5265  0.0532
17536TIP3   OH274022   5.231   4.928  11.072 -0.0706  0.0870 -0.0053
17536TIP3    H174023   5.198   4.864  11.009 -2.1401 -0.7190  1.8040
17536TIP3    H274024   5.185   5.009  11.051  0.7231  0.3424 -0.7667
17537TIP3   OH274025   0.147   4.105  15.420  0.2405 -0.6224 -0.4430
17537TIP3    H174026   0.214   4.117  15.353 -1.1767  0.4074 -1.6949
17537TIP3    H274027   0.186   4.042  15.482  1.7994 -1.1026 -1.8886
17538TIP3   OH274028   6.362   6.297  12.309  0.4261 -0.4060 -0.0302
17538TIP3    H174029   6.317   6.363  12.255  0.9253 -1.0449 -1.2574
17538TIP3    H274030   6.444   6.339  12.334  1.4243 -1.0684 -2.0642
17539TIP3   OH274031   3.906   6.264  16.468  0.1051 -0.3916 -0.1081
17539TIP3    H174032   3.947   6.329  16.412 -0.5159 -0.2923 -0.4595
17539TIP3    H274033   3.814   6.263  16.440 -0.0572 -0.8510  0.4250
17540TIP3   OH274034   4.575   1.564   3.147  0.2175 -0.1583  0.1481
17540TIP3    H174035   4.642   1.561   3.079 -1.8190 -3.4711 -1.8658
17540TIP3    H274036   4.621   1.542   3.228  2.0455  0.4141 -0.7186
17541TIP3   OH274037   0.666   1.194  13.411  0.6403  0.2371  0.6932
17541TIP3    H174038   0.679   1.174  13.504 -0.1971 -0.3341  0.6932
17541TIP3    H274039   0.644   1.287  13.410 -2.2316 -0.3729  1.3721
17542TIP3   OH274040   1.952   3.868  17.097  0.2465 -0.5364 -0.1254
17542TIP3    H174041   1.908   3.907  17.173  0.3232 -1.7623  0.5560
17542TIP3    H274042   2.025   3.819  17.133 -0.6723 -2.4788 -0.8259
17543TIP3   OH274043   2.570   4.757   1.073  0.2506 -0.1638 -0.2992
17543TIP3    H174044   2.629   4.708   1.015  1.7806  1.3926 -0.1222
17543TIP3    H274045   2.606   4.846   1.072 -1.3526  0.5005  0.8664
17544TIP3   OH274046   0.433   6.239   5.917  0.0406  0.4128  0.5230
17544TIP3    H174047   0.367   6.308   5.918 -0.0377  0.3306  1.4637
17544TIP3    H274048   0.383   6.159   5.902  0.1735  0.5887 -0.9690
17545TIP3   OH274049   4.077   4.518  13.638 -0.2314 -0.2499  0.2394
17545TIP3    H174050   4.088   4.448  13.575  0.5491 -0.6065  0.7632
17545TIP3    H274051   3.985   4.514  13.664  0.3114 -2.6019  2.0164
17546TIP3   OH274052   2.540   2.611   0.602 -0.0031 -0.5063 -0.2392
17546TIP3    H174053   2.488   2.679   0.644  0.8586 -0.3720  0.6451
17546TIP3    H274054   2.481   2.536   0.594 -0.4779 -0.1947  0.2926
17547TIP3   OH274055   5.923   4.571  16.294  0.6667 -0.1431  0.1012
17547TIP3    H174056   5.829   4.551  16.291  0.5211  0.6634 -0.9003
17547TIP3    H274057   5.964   4.488  16.319 -0.2697 -0.6135  0.1243
17548TIP3   OH274058   4.163   1.246  12.183 -0.3479 -0.1291 -0.3429
17548TIP3    H174059   4.173   1.259  12.089 -3.2090  0.2251 -0.6436
17548TIP3    H274060   4.224   1.176  12.204  1.8482  1.2199 -2.0615
17549TIP3   OH274061   1.670   1.885   0.250  0.0908 -0.3548 -0.3852
17549TIP3    H174062   1.622   1.968   0.258  0.3463 -0.3200  0.9103
17549TIP3    H274063   1.756   1.910   0.216  0.0075 -0.1360 -0.4344
17550TIP3   OH274064   3.963   3.661  11.963  0.8405 -0.0057 -0.2635
17550TIP3    H174065   3.979   3.709  11.882 -0.4949  0.9040  0.0027
17550TIP3    H274066   3.892   3.600  11.942  0.7806 -0.0673  0.1078
17551TIP3   OH274067   4.209   2.406  13.789 -0.4609  0.2898  0.2296
17551TIP3    H174068   4.298   2.442  13.780 -0.2695 -0.2276  0.0171
17551TIP3    H274069   4.214   2.350  13.866 -0.5914  0.2292  0.1938
17552TIP3   OH274070   1.877   2.024   6.029 -0.2965 -0.3409  0.1766
17552TIP3    H174071   1.964   2.052   6.057 -0.5846  1.5746 -0.7365
17552TIP3    H274072   1.820   2.043   6.104  0.2829 -2.9658  1.3271
17553TIP3   OH274073   0.303   2.069   5.806 -0.1339  0.2407 -0.2582
17553TIP3    H174074   0.316   2.101   5.895  0.6201  0.9467 -0.6116
17553TIP3    H274075   0.234   2.125   5.771  0.0162  0.3898 -0.3209
17554TIP3   OH274076   0.550   0.564  14.631 -0.0431  0.5907 -0.0644
17554TIP3    H174077   0.536   0.497  14.564 -0.2127 -0.9858  1.5301
17554TIP3    H274078   0.475   0.623  14.621 -0.5282 -0.1166 -0.6823
17555TIP3   OH274079   3.542   0.422   2.142  0.1964 -0.7819  0.2921
17555TIP3    H174080   3.449   0.407   2.158  0.0737  1.3049  1.6185
17555TIP3    H274081   3.559   0.379   2.058 -1.9080 -1.3351  0.1286
17556TIP3   OH274082   3.429   6.728  13.228  0.2222 -0.4313 -0.5880
17556TIP3    H174083   3.391   6.766  13.149 -1.0189  0.8445  0.5909
17556TIP3    H274084   3.457   6.640  13.201  0.3644  0.1960 -2.5750
17557TIP3   OH274085   2.883   1.658  16.843  0.1913 -0.6863 -0.0705
17557TIP3    H174086   2.927   1.624  16.921  1.3217 -0.1113 -0.4304
17557TIP3    H274087   2.887   1.753  16.853  0.1999 -0.6122 -0.7467
17558TIP3   OH274088   3.894   4.282   2.381  0.0554 -0.3891  0.6124
17558TIP3    H174089   3.949   4.222   2.331 -0.2642  1.0370 -1.4660
17558TIP3    H274090   3.930   4.369   2.363 -0.5908  0.2216  2.1894
17559TIP3   OH274091   4.073   3.203   5.031  0.2487 -0.2736 -0.3675
17559TIP3    H174092   4.159   3.179   4.996  0.8841 -0.4998  1.3180
17559TIP3    H274093   4.085   3.205   5.126 -1.3937  0.5494 -0.1588
17560TIP3   OH274094   2.091   4.597   3.363 -0.1659  0.5679 -0.2624
17560TIP3    H174095   2.143   4.676   3.371  2.6777 -1.4026  1.6284
17560TIP3    H274096   2.110   4.546   3.442 -0.6154 -2.7305 -2.1611
17561TIP3   OH274097   4.660   2.659  17.109  0.1940 -0.3217 -0.5480
17561TIP3    H174098   4.733   2.673  17.049 -0.1769  1.8387 -0.5306
17561TIP3    H274099   4.582   2.675  17.056 -0.1343  1.4931  0.4590
17562TIP3   OH274100   2.971   5.327   2.085  0.2003 -0.2802  0.1861
17562TIP3    H174101   2.940   5.385   2.016 -0.5428 -0.5205  0.3144
17562TIP3    H274102   2.948   5.371   2.167  0.8226 -0.1305  0.2828
17563TIP3   OH274103   5.023   4.775  11.700  0.5136  0.2709  0.1067
17563TIP3    H174104   4.927   4.781  11.702  0.4606 -0.4377 -0.5607
17563TIP3    H274105   5.041   4.684  11.680  1.3448 -0.0460  2.1752
17564TIP3   OH274106   3.447   0.722  14.787 -0.1205  0.3168  0.2418
17564TIP3    H174107   3.435   0.768  14.704 -0.2231  0.4375  0.3230
17564TIP3    H274108   3.440   0.790  14.854 -0.4596  0.1522  0.3736
17565TIP3   OH274109   0.504   5.415  13.895  0.2903 -0.5300  0.0137
17565TIP3    H174110   0.502   5.325  13.861  1.1976 -0.7409  0.4998
17565TIP3    H274111   0.412   5.436  13.913  0.0511 -1.2868 -0.3051
17566TIP3   OH274112   5.817   1.266  11.756  0.4657 -0.5576  0.2166
17566TIP3    H174113   5.861   1.214  11.823  1.3267  1.2475  1.0791
17566TIP3    H274114   5.822   1.356  11.788 -1.0571  0.0657 -1.2167
17567TIP3   OH274115   5.786   3.968   2.310  0.3620  0.5113 -0.1322
17567TIP3    H174116   5.799   3.907   2.238  0.1071  0.7063 -0.3436
17567TIP3    H274117   5.736   3.919   2.375 -1.3028  1.0260 -1.0154
17568TIP3   OH274118   2.569   5.007  14.440  0.0824 -0.4821  0.5584
17568TIP3    H174119   2.544   5.045  14.524  0.3459 -0.5584  0.6714
17568TIP3    H274120   2.626   5.072  14.399  1.1122 -1.0506  1.0614
17569TIP3   OH274121   1.058   3.854   2.821 -1.1626 -0.4260 -0.1200
17569TIP3    H174122   1.063   3.943   2.785  0.7022 -1.0827 -1.4856
17569TIP3    H274123   1.077   3.796   2.748 -0.6392 -1.9078  1.1526
17570TIP3   OH274124   2.586   3.431   1.050  0.2999  0.2865 -0.5470
17570TIP3    H174125   2.562   3.421   1.142  0.5537 -2.8892 -0.7779
17570TIP3    H274126   2.669   3.478   1.052 -0.6951  2.0859  0.7071
17571TIP3   OH274127   2.026   3.340  15.471 -0.1306  0.1607 -0.7485
17571TIP3    H174128   2.014   3.373  15.560 -2.6908  0.1892 -1.0813
17571TIP3    H274129   2.108   3.291  15.475 -0.5356 -0.3825  1.8063
17572TIP3   OH274130   5.470   0.566  14.452 -0.4054  0.4798  0.0494
17572TIP3    H174131   5.457   0.474  14.429  1.1843  0.1211  0.5720
17572TIP3    H274132   5.382   0.598  14.471 -0.8552 -1.1943  0.8693
17573TIP3   OH274133   3.293   3.795  13.453 -0.5914 -0.3536 -0.0928
17573TIP3    H174134   3.323   3.781  13.543  2.3800 -1.9026 -1.2509
17573TIP3    H274135   3.324   3.883  13.431 -1.6294  0.1683  0.4899
17574TIP3   OH274136   2.852   0.851   2.906 -0.0973 -0.1318  0.3495
17574TIP3    H174137   2.778   0.878   2.851 -0.8368  0.4584  1.6021
17574TIP3    H274138   2.811   0.811   2.983  0.9234 -0.9656  0.4749
17575TIP3   OH274139   1.770   4.823   3.016  0.1024  0.0124  0.0357
17575TIP3    H174140   1.725   4.861   3.092  0.9616  0.7717  0.1770
17575TIP3    H274141   1.788   4.899   2.960  0.1663 -0.4463 -0.5585
17576TIP3   OH274142   3.734   6.037   1.145 -0.1294 -0.3286 -0.0979
17576TIP3    H174143   3.741   6.130   1.121  1.1237 -0.5530 -0.6315
17576TIP3    H274144   3.640   6.021   1.148 -0.3799  1.1626  0.7856
17577TIP3   OH274145   0.626   6.326   5.354  0.3267 -0.2177  0.1353
17577TIP3    H174146   0.550   6.370   5.317  1.5032  0.8888 -0.9973
17577TIP3    H274147   0.676   6.395   5.397  1.4075 -0.7007 -0.3235
17578TIP3   OH274148   6.043   4.012   1.357 -0.6448  0.5417  0.6248
17578TIP3    H174149   6.043   3.926   1.399  2.2142  0.7695  1.2265
17578TIP3    H274150   5.964   4.013   1.304 -0.6503 -2.5273  0.4668
17579TIP3   OH274151   3.974   5.149   3.252 -0.1027 -0.0610  0.5565
17579TIP3    H174152   3.977   5.180   3.343 -1.8734  0.6142  0.4031
17579TIP3    H274153   3.882   5.158   3.227  0.4644  0.2483 -1.4757
17580TIP3   OH274154   5.113   3.692  16.350 -0.1165  0.4250  0.3612
17580TIP3    H174155   5.144   3.777  16.382 -1.9594  1.2300  0.0929
17580TIP3    H274156   5.124   3.696  16.255 -0.5857  0.5566  0.3051
17581TIP3   OH274157   4.365   0.755   3.355 -0.1713  0.5831  0.4344
17581TIP3    H174158   4.430   0.748   3.284 -0.0105 -0.0347  0.6401
17581TIP3    H274159   4.282   0.767   3.310 -0.0832  0.0850  0.1350
17582TIP3   OH274160   4.752   6.459   4.881  0.4305  0.5184  0.0578
17582TIP3    H174161   4.681   6.510   4.841 -1.5177 -2.4153 -0.3307
17582TIP3    H274162   4.746   6.480   4.975 -1.2914 -0.1163  0.1003
17583TIP3   OH274163   4.885   3.818   3.834 -0.4857 -0.4622 -0.1438
17583TIP3    H174164   4.911   3.758   3.903 -0.6275  1.1243  1.3095
17583TIP3    H274165   4.807   3.777   3.795 -0.5780 -1.2147  0.8060
17584TIP3   OH274166   3.830   3.868   2.210 -0.3333  0.7000  0.3258
17584TIP3    H174167   3.786   3.800   2.159  0.7802  0.4616 -0.3352
17584TIP3    H274168   3.784   3.870   2.294 -1.6237  0.4872 -0.3680
17585TIP3   OH274169   5.879   4.351  15.893  0.7354 -0.3848 -0.2984
17585TIP3    H174170   5.836   4.350  15.808 -0.1374 -1.1477  0.1414
17585TIP3    H274171   5.930   4.270  15.895 -1.7871 -2.0175  1.1559
17586TIP3   OH274172   4.173   4.198   6.403  0.2841  0.4169 -0.3841
17586TIP3    H174173   4.142   4.286   6.422 -0.4424  0.4665 -1.7603
17586TIP3    H274174   4.251   4.210   6.349  0.3012  0.2213 -0.4055
17587TIP3   OH274175   3.771   4.801  12.648 -0.0234  0.0625 -0.3555
17587TIP3    H174176   3.751   4.786  12.556  1.6592  4.0004 -1.4764
17587TIP3    H274177   3.850   4.749  12.664 -0.8258 -1.3357 -0.8459
17588TIP3   OH274178   6.394   6.557   0.932  0.1354  0.3591 -0.0320
17588TIP3    H174179   6.301   6.578   0.936 -0.0461 -0.4150 -0.0769
17588TIP3    H274180   6.431   6.597   1.010 -0.6157 -1.1065  1.1091
17589TIP3   OH274181   0.613   5.736   4.575 -0.0779  0.7604  0.4014
17589TIP3    H174182   0.593   5.662   4.519  2.7277  1.2003 -1.2574
17589TIP3    H274183   0.550   5.804   4.549 -0.9085 -0.1129  0.0961
17590TIP3   OH274184   2.051   0.017   1.325  0.0224  0.3273  0.0329
17590TIP3    H174185   1.966   0.022   1.281 -0.0232  0.1425  0.0993
17590TIP3    H274186   2.029   0.015   1.419  0.0286 -1.1077  0.0212
17591TIP3   OH274187   6.753   1.591   1.076  0.3245 -0.3279  0.3270
17591TIP3    H174188   6.788   1.538   1.004  0.8804  0.1735  0.2170
17591TIP3    H274189   6.830   1.636   1.112  0.0400 -0.5254  1.1952
17592TIP3   OH274190   4.173   2.983   2.152 -0.4636 -0.3749  0.0343
17592TIP3    H174191   4.088   2.994   2.109 -0.7352 -1.2263  0.3466
17592TIP3    H274192   4.220   2.920   2.097  1.0622  2.1929 -1.7146
17593TIP3   OH274193   2.620   5.000   6.418 -0.3875  0.1641  0.6158
17593TIP3    H174194   2.536   4.974   6.457 -0.8502  1.7537  0.7078
17593TIP3    H274195   2.655   4.919   6.381 -2.1296 -0.4481  0.2634
17594TIP3   OH274196   3.115   2.816   2.336 -0.6935  0.1017 -0.2300
17594TIP3    H174197   3.040   2.827   2.394  0.5084 -0.7059  1.4969
17594TIP3    H274198   3.106   2.727   2.302  0.7282 -0.8430  1.8017
17595TIP3   OH274199   3.992   2.437   2.485  0.0204  0.1686  0.5277
17595TIP3    H174200   4.024   2.353   2.517  0.3695  0.7242  1.6507
17595TIP3    H274201   3.934   2.468   2.554  0.3021  1.0991  0.3500
17596TIP3   OH274202   4.180   4.200  11.440 -0.1912 -0.6422  0.0431
17596TIP3    H174203   4.153   4.159  11.358 -0.9121  0.0835 -0.0910
17596TIP3    H274204   4.144   4.143  11.508 -0.4884 -0.6814 -0.1448
17597TIP3   OH274205   0.162   5.641  15.461 -0.3264 -0.0557 -0.4815
17597TIP3    H174206   0.173   5.656  15.555  0.6376  0.3098 -0.6412
17597TIP3    H274207   0.068   5.636  15.448 -0.4132 -2.3391  0.8576
17598TIP3   OH274208   4.023   0.601  15.501 -0.5647 -0.7379  0.0818
17598TIP3    H174209   4.076   0.659  15.556 -3.0316  1.0893  0.6519
17598TIP3    H274210   4.072   0.594  15.419  0.1320  1.6458  0.2467
17599TIP3   OH274211   4.682   4.852  13.048  0.0673 -0.2215 -0.2645
17599TIP3    H174212   4.690   4.889  12.960  0.2805  1.2348  0.3359
17599TIP3    H274213   4.627   4.915  13.095  1.9306  0.2861  1.3054
17600TIP3   OH274214   2.150   1.811  13.769  0.4647 -0.0194 -0.6769
17600TIP3    H174215   2.231   1.775  13.732  0.2185 -1.4336  0.1270
17600TIP3    H274216   2.087   1.740  13.763 -0.1206  0.3689  0.6757
17601TIP3   OH274217   3.919   4.481   5.390  0.5580 -0.3277  0.5357
17601TIP3    H174218   3.861   4.408   5.414 -0.1956 -0.4075 -1.4685
17601TIP3    H274219   3.971   4.497   5.469 -0.9931 -1.3949  1.8006
17602TIP3   OH274220   3.369   6.223  15.478  0.4182 -0.1863 -0.3240
17602TIP3    H174221   3.331   6.153  15.424  0.4770 -1.2236  0.9595
17602TIP3    H274222   3.389   6.181  15.561  0.7257  1.3046  0.3733
17603TIP3   OH274223   2.825   3.229  16.720 -0.0861 -0.1576 -0.1786
17603TIP3    H174224   2.825   3.242  16.625 -1.6359 -1.5401 -0.3862
17603TIP3    H274225   2.748   3.277  16.751  0.8259  0.8995  0.4790
17604TIP3   OH274226   3.018   0.439  16.550  0.1811  0.6282  0.3915
17604TIP3    H174227   3.104   0.400  16.534 -0.5336 -0.3966 -1.0772
17604TIP3    H274228   2.996   0.484  16.469 -1.5054 -0.7634  0.0247
17605TIP3   OH274229   6.773   1.539   3.068  0.0214 -0.0375 -0.7455
17605TIP3    H174230   6.717   1.463   3.085  1.7050 -1.2358 -0.4949
17605TIP3    H274231   6.833   1.511   2.999 -0.5340  1.6886 -1.9861
17606TIP3   OH274232   3.411   2.099  17.141 -0.0300 -0.6972  0.0354
17606TIP3    H174233   3.407   2.169  17.207 -0.8920 -0.7240  0.0102
17606TIP3    H274234   3.481   2.126  17.082 -1.3005  0.8536 -0.7921
17607TIP3   OH274235   4.767   5.546   0.009  0.4894 -0.1881  0.3505
17607TIP3    H174236   4.789   5.453   0.006  2.8316  0.3175  0.4007
17607TIP3    H274237   4.747   5.569  -0.082 -0.1411 -0.7515  0.3478
17608TIP3   OH274238   2.790   1.279   1.697  0.2985  0.2266  0.4369
17608TIP3    H174239   2.754   1.276   1.608  0.4952  3.3810  0.1793
17608TIP3    H274240   2.883   1.293   1.684  0.6308 -1.2502  1.1569
17609TIP3   OH274241   5.026   5.039   3.697 -0.3453 -0.3391 -0.1902
17609TIP3    H174242   4.974   5.031   3.777 -2.1075 -0.3388 -1.3015
17609TIP3    H274243   5.089   5.109   3.716  0.4430 -1.5298  1.7899
17610TIP3   OH274244   2.964   5.467  16.550 -0.6188  0.0940 -0.1427
17610TIP3    H174245   3.023   5.398  16.577  1.0580  0.7332 -2.0749
17610TIP3    H274246   2.971   5.533  16.619  0.2300 -0.2487  0.1007
17611TIP3   OH274247   5.976   1.445   1.703  0.2230  0.5137 -0.3474
17611TIP3    H174248   5.966   1.355   1.672 -0.8086  0.2915  0.5804
17611TIP3    H274249   6.046   1.441   1.767 -0.2785  0.2382  0.1867
17612TIP3   OH274250   1.402   4.973   2.736 -0.2527 -0.2603 -0.2776
17612TIP3    H174251   1.439   5.044   2.683 -0.2412 -0.8560 -1.0886
17612TIP3    H274252   1.461   4.899   2.721 -1.3819 -1.0201 -1.0438
17613TIP3   OH274253   2.719   3.766   0.659 -0.0981  0.0431  0.0026
17613TIP3    H174254   2.729   3.724   0.574  0.2275  3.0222 -1.5082
17613TIP3    H274255   2.805   3.802   0.679 -0.5985  0.8571  0.7640
17614TIP3   OH274256   1.633   3.404  15.399 -0.0364  0.7047  0.0717
17614TIP3    H174257   1.547   3.408  15.441 -1.8849 -1.0942 -3.3256
17614TIP3    H274258   1.673   3.323  15.433  0.2972  1.4669  1.5408
17615TIP3   OH274259   1.905   3.789   5.582 -0.0607  0.0461  0.4592
17615TIP3    H174260   1.832   3.846   5.560 -0.3881 -0.4005  0.3816
17615TIP3    H274261   1.946   3.769   5.498  0.6464  0.9497  0.5779
17616TIP3   OH274262   4.702   2.616  14.543 -0.3814 -0.2076  0.6791
17616TIP3    H174263   4.714   2.621  14.448 -0.1571 -1.3190  0.6450
17616TIP3    H274264   4.621   2.566  14.554  0.5087 -1.5744  1.1023
17617TIP3   OH274265   5.259   2.273  12.935 -0.1425 -0.2338 -0.5696
17617TIP3    H174266   5.298   2.350  12.894 -1.2293 -0.3695 -1.8954
17617TIP3    H274267   5.318   2.252  13.007  1.2940  0.5815 -1.4821
17618TIP3   OH274268   1.328   5.129  10.531  0.1838 -0.0538  0.3764
17618TIP3    H174269   1.327   5.036  10.507 -1.2647  0.0499 -0.0210
17618TIP3    H274270   1.366   5.131  10.618 -0.7776 -1.1407  0.8344
17619TIP3   OH274271   4.722   0.875  12.005 -0.1477 -0.2540  0.0054
17619TIP3    H174272   4.645   0.828  12.038  0.4231 -2.5461 -1.7837
17619TIP3    H274273   4.719   0.862  11.910  0.4095  2.8458 -0.5049
17620TIP3   OH274274   1.983   2.450  16.273 -0.4820  0.5337  0.1313
17620TIP3    H174275   2.002   2.362  16.240  0.3017  0.7847 -0.1230
17620TIP3    H274276   2.053   2.467  16.336 -0.6667  0.9483  0.2238
17621TIP3   OH274277   3.711   3.553  13.479 -0.4946 -0.3587  0.1487
17621TIP3    H174278   3.712   3.639  13.520 -1.8064 -0.7080  0.9415
17621TIP3    H274279   3.672   3.567  13.393  1.7108  0.2713 -0.7992
17622TIP3   OH274280   0.482   4.506   2.559 -0.2202 -0.1967 -0.2073
17622TIP3    H174281   0.450   4.595   2.542  1.1627  0.5609  1.0431
17622TIP3    H274282   0.567   4.519   2.602 -0.3737 -2.1198  0.7227
17623TIP3   OH274283   0.829   1.240   0.763  0.1520  0.2472  0.0426
17623TIP3    H174284   0.891   1.241   0.690  0.8515  0.7698  0.6333
17623TIP3    H274285   0.743   1.236   0.722  0.6012 -1.9348 -0.7889
17624TIP3   OH274286   1.511   2.700   1.078  0.5202  0.3823 -0.2683
17624TIP3    H174287   1.597   2.717   1.117  0.6675  0.5662 -0.6796
17624TIP3    H274288   1.473   2.787   1.064 -0.6027  0.2722  1.8508
17625TIP3   OH274289   3.623   6.594  15.594 -0.0030 -0.1014  0.4079
17625TIP3    H174290   3.531   6.608  15.615 -0.1690 -0.4240 -0.0891
17625TIP3    H274291   3.623   6.520  15.533  0.5418  0.1944  0.0353
17626TIP3   OH274292   0.387   3.930  14.235 -0.5852  0.7694 -0.1982
17626TIP3    H174293   0.429   4.000  14.284  1.2142 -1.1059  1.0007
17626TIP3    H274294   0.459   3.885  14.190 -1.5443 -1.0582  0.0247
17627TIP3   OH274295   0.923   6.779  12.653  0.1886  0.7215 -0.1936
17627TIP3    H174296   0.973   6.787  12.734 -0.2319 -0.8142  0.2462
17627TIP3    H274297   0.844   6.830  12.669 -1.0247 -1.5146  1.3392
17628TIP3   OH274298   6.626   1.592   6.137 -0.1148  0.3403  0.1286
17628TIP3    H174299   6.586   1.626   6.217  1.4109  0.7654  0.7324
17628TIP3    H274300   6.631   1.668   6.079 -1.0412  0.0748 -0.3118
17629TIP3   OH274301   2.183   1.095   2.514 -0.3662 -0.0762 -0.3884
17629TIP3    H174302   2.103   1.130   2.473  0.2776  0.5934 -1.1031
17629TIP3    H274303   2.203   1.016   2.464  0.0387  0.3716 -0.9472
17630TIP3   OH274304   1.194   5.526   5.877 -0.4476 -0.2355  0.5492
17630TIP3    H174305   1.111   5.518   5.923 -1.6182  0.5507 -1.3542
17630TIP3    H274306   1.219   5.618   5.889  0.7547 -0.7285  2.0643
17631TIP3   OH274307   3.316   1.270   0.841 -0.0519  0.0906  0.3698
17631TIP3    H174308   3.385   1.205   0.858  1.1337  1.0753 -0.5329
17631TIP3    H274309   3.247   1.248   0.903  0.6809 -1.5026  0.6726
17632TIP3   OH274310   0.157   4.476  11.548  0.3084  0.3212  0.2355
17632TIP3    H174311   0.147   4.565  11.513 -1.9541  0.0609  0.1533
17632TIP3    H274312   0.073   4.434  11.531  1.6138 -2.1039 -0.3991
17633TIP3   OH274313   1.730   1.568  12.481  0.0213 -0.0872 -0.7024
17633TIP3    H174314   1.715   1.477  12.507  0.2040  0.2718  0.6900
17633TIP3    H274315   1.808   1.595  12.530 -1.0110  1.3358  0.2333
17634TIP3   OH274316   3.819   1.081   2.172 -0.1818 -0.0594 -0.2145
17634TIP3    H174317   3.790   1.015   2.110  0.3605 -0.6439  0.1488
17634TIP3    H274318   3.747   1.089   2.235  0.1673 -1.0453  0.3223
17635TIP3   OH274319   0.960   5.939   3.032 -0.4191 -0.4586  0.4918
17635TIP3    H174320   0.992   5.860   2.988  0.8897 -0.7215  1.8784
17635TIP3    H274321   0.931   5.996   2.960  2.2749 -0.6064 -0.7746
17636TIP3   OH274322   2.324   4.741   3.330  0.0313 -0.0752 -0.3993
17636TIP3    H174323   2.397   4.728   3.390 -0.1780  0.3705 -0.0414
17636TIP3    H274324   2.337   4.829   3.295 -0.4364  0.0846 -0.1850
17637TIP3   OH274325   4.527   4.855   4.995  0.7533  0.3559  0.3771
17637TIP3    H174326   4.480   4.928   5.035  0.0942  0.7139 -1.0003
17637TIP3    H274327   4.458   4.794   4.967  1.1549  0.3172 -0.5691
17638TIP3   OH274328   6.011   1.793  16.291 -0.0863 -0.0880  0.1652
17638TIP3    H174329   6.069   1.724  16.258 -1.1716 -1.1234  0.3974
17638TIP3    H274330   6.060   1.874  16.276  1.6150 -0.9724  0.7702
17639TIP3   OH274331   4.830   6.469   0.899 -0.0388 -0.7597  0.4316
17639TIP3    H174332   4.837   6.516   0.815  0.4823  0.4231  1.1239
17639TIP3    H274333   4.758   6.514   0.945 -0.4445 -1.5246  0.5462
17640TIP3   OH274334   5.644   6.350   3.881 -0.4662 -0.2706  0.7731
17640TIP3    H174335   5.679   6.401   3.808 -2.0790  1.5334  1.2423
17640TIP3    H274336   5.709   6.359   3.951  0.2741 -0.6388  0.1409
17641TIP3   OH274337   3.612   4.823  15.063 -0.0643 -0.0329  0.5305
17641TIP3    H174338   3.662   4.756  15.110 -0.0309 -0.6523 -0.3740
17641TIP3    H274339   3.524   4.819  15.101 -0.1633 -0.8592  0.2297
17642TIP3   OH274340   5.373   4.044   5.545  0.1294  0.0263  0.2548
17642TIP3    H174341   5.468   4.054   5.548  0.3918 -2.3906  0.8757
17642TIP3    H274342   5.343   4.064   5.634 -0.3327  3.7959 -0.6478
17643TIP3   OH274343   1.010   2.880   4.927  0.2267 -0.6739  0.4255
17643TIP3    H174344   1.063   2.905   5.002  0.2358 -0.8794  0.4870
17643TIP3    H274345   1.018   2.954   4.866  0.3142 -0.5607  0.5754
17644TIP3   OH274346   4.710   4.301  15.288 -0.0287  0.5311  0.2904
17644TIP3    H174347   4.628   4.281  15.242  0.0419  0.3606  0.2397
17644TIP3    H274348   4.722   4.229  15.349  0.7608 -0.1171 -0.6202
17645TIP3   OH274349   0.560   3.827   4.424  0.1175 -0.9126 -0.1836
17645TIP3    H174350   0.562   3.759   4.356  0.3446 -0.4307 -0.6632
17645TIP3    H274351   0.506   3.790   4.493  1.9424 -2.4553  0.4729
17646TIP3   OH274352   5.064   6.613  10.478 -0.1716 -0.2314  0.0549
17646TIP3    H174353   5.065   6.597  10.384  0.5999  1.5203 -0.2579
17646TIP3    H274354   5.153   6.591  10.507  0.2826  1.4551 -0.0338
17647TIP3   OH274355   5.209   1.050  11.741  0.2973  0.0263 -0.4543
17647TIP3    H174356   5.277   1.035  11.807  1.0923  2.7379 -0.6266
17647TIP3    H274357   5.253   1.036  11.657 -0.0380 -0.8031 -0.4962
17648TIP3   OH274358   6.718   1.091  12.882  0.5651  0.0968  0.1258
17648TIP3    H174359   6.747   1.143  12.957  1.3968 -0.6305  0.3128
17648TIP3    H274360   6.704   1.003  12.918  1.8584 -0.4749 -0.7609
17649TIP3   OH274361   2.677   4.052  13.461 -0.1881  0.1389 -0.2207
17649TIP3    H174362   2.589   4.032  13.491 -0.3940  1.2733 -0.0456
17649TIP3    H274363   2.709   4.118  13.522  0.6088  0.0660 -0.5508
17650TIP3   OH274364   0.980   2.378   3.557  0.2582 -0.1911  0.1889
17650TIP3    H174365   0.938   2.295   3.534 -0.2436  0.4330 -1.2347
17650TIP3    H274366   1.072   2.355   3.568  0.0569 -1.0137  0.2329
17651TIP3   OH274367   1.530   6.546   5.888  0.0398 -0.3856 -0.4545
17651TIP3    H174368   1.618   6.570   5.860 -0.3443  0.5754 -0.8416
17651TIP3    H274369   1.495   6.625   5.929 -0.1859 -1.1445  0.8507
17652TIP3   OH274370   3.192   3.735   3.957 -0.0484 -0.2398  0.1545
17652TIP3    H174371   3.245   3.655   3.950  0.3258 -0.0453  0.6905
17652TIP3    H274372   3.128   3.728   3.886  1.4462  0.0962 -1.2598
17653TIP3   OH274373   4.959   2.399   5.237 -0.9691 -0.3764  1.0126
17653TIP3    H174374   4.952   2.357   5.151 -1.0459  1.0384  0.3051
17653TIP3    H274375   5.007   2.336   5.291 -1.9684 -1.7813  0.2771
17654TIP3   OH274376   3.899   0.802  14.355  0.0759  0.4182  0.6076
17654TIP3    H174377   3.817   0.820  14.308 -0.1770 -0.4611  0.6983
17654TIP3    H274378   3.875   0.803  14.447 -0.4278 -2.6066  0.5485
17655TIP3   OH274379   5.983   5.661  11.274  0.0967  0.3976  0.5331
17655TIP3    H174380   5.971   5.754  11.297  1.1001  0.5927  0.2904
17655TIP3    H274381   5.944   5.653  11.187  0.0671  0.6031  0.5245
17656TIP3   OH274382   6.096   4.745  11.046  0.3490  0.5109  0.4599
17656TIP3    H174383   6.019   4.690  11.037  2.0266 -1.8471  0.0781
17656TIP3    H274384   6.073   4.809  11.113 -0.6643 -2.4534  3.0435
17657TIP3   OH274385   0.590   6.060  10.802 -0.2600  0.3456  0.1514
17657TIP3    H174386   0.650   5.989  10.826 -0.7043 -0.0607  0.0717
17657TIP3    H274387   0.617   6.087  10.714 -0.3750 -0.0353 -0.0021
17658TIP3   OH274388   5.276   0.192  12.873 -0.2372  0.7686 -0.4662
17658TIP3    H174389   5.337   0.161  12.806 -1.0906 -0.0460 -0.8832
17658TIP3    H274390   5.316   0.271  12.908  1.7919 -0.5949  0.3293
17659TIP3   OH274391   4.784   4.084   4.344  0.2490 -0.2946  0.3384
17659TIP3    H174392   4.733   4.119   4.271 -0.4925 -0.1571  0.9150
17659TIP3    H274393   4.744   3.999   4.362  0.3041 -0.2386  0.7196
17660TIP3   OH274394   3.180   0.021   2.666 -0.7259 -0.1367  0.0467
17660TIP3    H174395   3.264   0.050   2.702  0.0087 -2.2212  0.1101
17660TIP3    H274396   3.188   0.034   2.572 -0.6208  0.3741  0.1260
17661TIP3   OH274397   4.257   1.895   2.474  1.0150  0.3175  0.1124
17661TIP3    H174398   4.266   1.918   2.382 -0.2102 -3.1687 -0.9827
17661TIP3    H274399   4.163   1.900   2.491  1.1518  0.1782  0.9157
17662TIP3   OH274400   6.528   0.364  10.796  0.6575 -0.1148  0.2844
17662TIP3    H174401   6.544   0.458  10.801  2.0624 -0.2538 -1.1281
17662TIP3    H274402   6.466   0.354  10.724  1.6995 -0.3637 -0.6090
17663TIP3   OH274403   0.385   2.792  14.989  0.0049 -0.0727  0.0777
17663TIP3    H174404   0.312   2.836  14.945 -0.4037 -1.0440 -0.2506
17663TIP3    H274405   0.376   2.816  15.081  1.4148  2.7325 -0.4761
17664TIP3   OH274406   4.045   0.163   3.236  0.4348 -0.4143  0.9813
17664TIP3    H174407   4.132   0.199   3.223  0.1850 -0.9445 -2.4984
17664TIP3    H274408   3.990   0.209   3.173 -1.8797  0.0131  3.1975
17665TIP3   OH274409   4.597   4.576  13.578  0.1425  0.4571 -0.0418
17665TIP3    H174410   4.518   4.623  13.606 -0.0327  0.3865 -0.4127
17665TIP3    H274411   4.607   4.599  13.486 -0.0432 -0.3652 -0.2737
17666TIP3   OH274412   0.174   2.672   4.809  0.4371  0.0707 -0.0819
17666TIP3    H174413   0.205   2.581   4.818 -1.0040 -0.6648 -2.1915
17666TIP3    H274414   0.100   2.666   4.749 -1.0823  2.3722  1.4670
17667TIP3   OH274415   3.291   2.100   4.285  0.5202 -0.2925 -0.6172
17667TIP3    H174416   3.239   2.030   4.325 -0.7861  0.9884 -0.0531
17667TIP3    H274417   3.307   2.070   4.196  1.4381 -2.0892  0.1238
17668TIP3   OH274418   6.614   4.944  11.255  0.0269 -0.1510 -0.2015
17668TIP3    H174419   6.629   4.938  11.349  3.6917  0.8915 -0.6240
17668TIP3    H274420   6.546   5.011  11.245  1.6012  1.7795  1.6027
17669TIP3   OH274421   0.200   6.056   1.652 -0.6163 -0.2354 -0.7925
17669TIP3    H174422   0.148   6.032   1.729  3.3246 -0.7468  1.8558
17669TIP3    H274423   0.223   5.973   1.612  0.2630 -0.1522 -0.4704
17670TIP3   OH274424   2.011   6.100   3.673  0.6420  0.2130 -0.0660
17670TIP3    H174425   2.102   6.125   3.686  0.4711  0.4855  0.5904
17670TIP3    H274426   2.015   6.031   3.606  1.3469  0.0776  0.1088
17671TIP3   OH274427   5.790   6.734  14.023 -0.0707  0.2808 -0.3611
17671TIP3    H174428   5.748   6.750  14.108 -0.9887  0.7788 -0.9046
17671TIP3    H274429   5.881   6.713  14.045 -0.3908  0.0370  0.7731
17672TIP3   OH274430   5.245   2.529  13.110  0.0993 -0.7325  0.4943
17672TIP3    H174431   5.171   2.569  13.065 -1.1961 -1.7456  1.7038
17672TIP3    H274432   5.287   2.475  13.043  1.7936  2.4038 -1.1293
17673TIP3   OH274433   0.417   6.148   3.053 -0.5571  0.0493  0.5546
17673TIP3    H174434   0.461   6.233   3.054  0.3145 -0.3950 -0.1795
17673TIP3    H274435   0.335   6.165   3.006  0.0916  0.2526 -0.5133
17674TIP3   OH274436   4.837   6.618   4.297  0.1881  0.2077 -0.5507
17674TIP3    H174437   4.882   6.684   4.244  1.0764  1.0818  1.2669
17674TIP3    H274438   4.764   6.666   4.337 -0.5664 -0.4853 -1.0821
17675TIP3   OH274439   5.562   0.127  10.902  0.2001 -0.3267 -0.2479
17675TIP3    H174440   5.607   0.210  10.888 -1.2622  0.2292 -1.7677
17675TIP3    H274441   5.484   0.150  10.953 -0.6202 -0.6482 -1.3530
17676TIP3   OH274442   5.891   0.773   5.741 -0.1268 -0.3709 -0.5642
17676TIP3    H174443   5.902   0.739   5.652 -1.3366 -0.8561 -0.5394
17676TIP3    H274444   5.939   0.712   5.797  0.4605 -0.1802 -0.8553
17677TIP3   OH274445   1.639   0.899  12.733 -0.6242 -0.0838 -0.0957
17677TIP3    H174446   1.618   0.962  12.664 -0.3861 -0.0037 -0.0969
17677TIP3    H274447   1.656   0.817  12.686 -0.4102 -0.0163 -0.1384
17678TIP3   OH274448   3.232   5.492   3.018  0.1457  0.1632  0.0300
17678TIP3    H174449   3.148   5.507   3.061  0.5235  0.7210  0.5914
17678TIP3    H274450   3.218   5.414   2.964 -0.4508 -0.3247  0.8718
17679TIP3   OH274451   6.132   1.808  12.650  0.2215  0.5146  0.5206
17679TIP3    H174452   6.221   1.802  12.685  0.5243 -0.0834 -0.3324
17679TIP3    H274453   6.128   1.895  12.609  0.0841  0.9408  1.4192
17680TIP3   OH274454   0.528   6.415  13.490  0.0762 -0.0051  0.3111
17680TIP3    H174455   0.593   6.440  13.425 -0.4832 -0.3254 -0.3714
17680TIP3    H274456   0.450   6.466  13.467 -0.7028 -1.5040 -0.3825
17681TIP3   OH274457   3.089   0.606  17.004 -0.0477  0.6763  0.1097
17681TIP3    H174458   3.043   0.569  16.929  1.4803  0.5223 -0.7822
17681TIP3    H274459   3.153   0.538  17.028 -0.0654  1.0072  1.1103
17682TIP3   OH274460   1.519   0.482  16.572 -0.2676  0.7230  0.6356
17682TIP3    H174461   1.524   0.474  16.477  0.3511  0.7867  0.6574
17682TIP3    H274462   1.476   0.402  16.601  2.1260 -0.6642  0.5176
17683TIP3   OH274463   2.350   2.021  10.601 -0.3930 -0.3379 -0.4892
17683TIP3    H174464   2.428   1.994  10.649 -1.2185  0.8371  1.5765
17683TIP3    H274465   2.377   2.019  10.509  2.5290  1.4205  0.2487
17684TIP3   OH274466   3.317   5.366  12.875  0.1483  0.6840  0.0164
17684TIP3    H174467   3.345   5.284  12.916  1.2146 -0.5847 -3.1321
17684TIP3    H274468   3.397   5.417  12.866 -0.3140  1.5583  0.7590
17685TIP3   OH274469   4.227   1.123  11.042  0.2442  0.1400  0.1457
17685TIP3    H174470   4.276   1.139  11.123 -0.5831  0.1954  0.6484
17685TIP3    H274471   4.149   1.075  11.071 -0.2917  0.5778 -0.5574
17686TIP3   OH274472   3.995   1.749   1.715  0.0281 -0.0458  0.5967
17686TIP3    H174473   4.059   1.751   1.644 -0.5934 -1.6829 -0.0410
17686TIP3    H274474   3.998   1.837   1.753  1.1675  0.5051 -0.7303
17687TIP3   OH274475   5.030   0.953   1.412 -0.0994  0.2331  0.1576
17687TIP3    H174476   5.030   0.942   1.317  0.9024  0.3106  0.1471
17687TIP3    H274477   4.944   0.921   1.439  0.8006 -2.8736 -0.4192
17688TIP3   OH274478   1.711   2.625   4.883  0.2577  0.2204 -0.3656
17688TIP3    H174479   1.743   2.559   4.946  4.1249  0.3675 -2.0845
17688TIP3    H274480   1.638   2.581   4.839  0.6307 -1.6942  0.8281
17689TIP3   OH274481   5.865   5.186  15.817  0.0341 -0.0711 -0.1863
17689TIP3    H174482   5.852   5.119  15.884  2.4227  0.2085  0.5850
17689TIP3    H274483   5.924   5.146  15.754 -1.4725  0.0033 -1.6744
17690TIP3   OH274484   6.207   2.060  13.764  0.2050  0.0744 -0.0387
17690TIP3    H174485   6.226   2.029  13.852  0.7590 -0.4553 -0.3376
17690TIP3    H274486   6.162   2.143  13.776  0.9738  0.3806  0.7208
17691TIP3   OH274487   1.493   0.359  12.636 -0.0201  0.7774 -0.2717
17691TIP3    H174488   1.469   0.271  12.608 -0.5799  1.0177 -0.5608
17691TIP3    H274489   1.530   0.348  12.724 -1.8464  0.4740  0.4830
17692TIP3   OH274490   0.520   6.559   1.081 -0.6675  0.3124  0.7098
17692TIP3    H174491   0.586   6.627   1.094 -0.4830 -0.0909  1.9306
17692TIP3    H274492   0.486   6.542   1.169 -3.0635  1.1843 -0.0103
17693TIP3   OH274493   5.262   3.276  12.034  0.5603 -0.4894 -0.4628
17693TIP3    H174494   5.226   3.266  12.122  0.0373  1.4396 -0.4173
17693TIP3    H274495   5.213   3.350  11.997  0.2884 -1.6919 -2.6277
17694TIP3   OH274496   6.496   2.381  11.148  0.2395  0.2943  0.0201
17694TIP3    H174497   6.456   2.440  11.084 -0.1843  1.4303  1.3128
17694TIP3    H274498   6.424   2.327  11.180  1.0035 -2.6013 -2.8483
17695TIP3   OH274499   2.397   4.620  12.413 -0.3674  0.6089  0.2003
17695TIP3    H174500   2.468   4.672  12.375 -0.4338  1.9672  1.8844
17695TIP3    H274501   2.353   4.582  12.337  2.1801 -0.3200 -0.8910
17696TIP3   OH274502   1.310   2.975  16.139  0.1299  0.0030 -0.8118
17696TIP3    H174503   1.228   2.953  16.182  0.8254  0.5433  0.8543
17696TIP3    H274504   1.300   3.067  16.115  0.2679  0.0947 -0.5287
17697TIP3   OH274505   4.980   0.393  11.805 -0.4627  0.0669 -0.2046
17697TIP3    H174506   4.975   0.308  11.763 -0.5274 -0.3028  0.5404
17697TIP3    H274507   4.889   0.421  11.816 -0.5071 -0.4933  0.9830
17698TIP3   OH274508   0.323   1.392   5.343 -0.7890  0.1547 -0.3891
17698TIP3    H174509   0.329   1.316   5.285  2.2310  0.4978 -0.5874
17698TIP3    H274510   0.394   1.450   5.316 -0.2316  1.0069  2.6405
17699TIP3   OH274511   1.167   3.118   0.368  0.0513 -0.1854  0.5746
17699TIP3    H174512   1.242   3.173   0.343 -1.2890  0.8969 -1.1523
17699TIP3    H274513   1.144   3.072   0.288 -2.6238  1.3039  0.4223
17700TIP3   OH274514   0.986   1.462   4.930 -0.2078 -0.5233 -0.1817
17700TIP3    H174515   1.061   1.521   4.940 -0.7694  0.0005  1.0660
17700TIP3    H274516   0.979   1.447   4.836  2.2588 -1.6102 -0.2309
17701TIP3   OH274517   0.080   2.721  10.338 -0.1285  0.9938 -0.3900
17701TIP3    H174518   0.136   2.791  10.304  1.2576  1.0796  1.9659
17701TIP3    H274519  -0.004   2.763  10.356  0.0899  1.6060 -0.7871
17702TIP3   OH274520   3.812   2.485   2.680 -0.3762 -0.7248 -0.1771
17702TIP3    H174521   3.775   2.573   2.680  0.3761 -0.3965 -1.3584
17702TIP3    H274522   3.834   2.467   2.771  0.0507  0.5600 -0.0208
17703TIP3   OH274523   1.659   5.371   5.182 -0.2215 -0.1567 -0.1244
17703TIP3    H174524   1.589   5.377   5.246 -0.1186 -0.6451  0.0420
17703TIP3    H274525   1.626   5.309   5.116 -0.1381 -0.0196 -0.2959
17704TIP3   OH274526   3.850   3.330   4.511 -0.4863 -0.2014  0.1487
17704TIP3    H174527   3.945   3.336   4.517 -0.4502  1.5674 -1.8426
17704TIP3    H274528   3.830   3.239   4.534  1.7166 -0.7515 -0.0591
17705TIP3   OH274529   0.210   4.825   2.338 -0.1718  0.3198  0.1316
17705TIP3    H174530   0.242   4.868   2.417  1.0255 -3.1053  1.6097
17705TIP3    H274531   0.286   4.822   2.279  0.0974 -0.7670  0.5136
17706TIP3   OH274532   4.434   6.637   0.520  0.7151  0.4611  0.2880
17706TIP3    H174533   4.434   6.605   0.430  2.6097  1.9196 -0.2715
17706TIP3    H274534   4.473   6.567   0.571  1.2249  0.3027 -0.3114
17707TIP3   OH274535   6.341   3.197  11.107 -0.7137  0.4139 -0.4815
17707TIP3    H174536   6.341   3.177  11.013 -0.5403  0.0034 -0.3969
17707TIP3    H274537   6.365   3.290  11.112  0.5416  0.1209 -0.7825
17708TIP3   OH274538   6.719   5.791   4.951  0.0197 -0.3170  0.1746
17708TIP3    H174539   6.781   5.741   5.005  0.4930 -0.6057 -0.6272
17708TIP3    H274540   6.724   5.750   4.865  0.5996  1.2753 -0.5702
17709TIP3   OH274541   5.797   4.263  13.110  0.2489  0.1891  0.3604
17709TIP3    H174542   5.725   4.261  13.047  0.8448 -1.0699 -0.2979
17709TIP3    H274543   5.869   4.304  13.062  0.5654 -0.3510  0.3751
17710TIP3   OH274544   0.324   3.872   3.981  0.1723  0.0905 -0.3486
17710TIP3    H174545   0.319   3.967   3.965 -0.7605  0.1179  0.0422
17710TIP3    H274546   0.387   3.863   4.053 -1.8787  0.6764  1.5819
17711TIP3   OH274547   1.172   1.356  12.400 -0.1053 -0.6522  0.8316
17711TIP3    H174548   1.110   1.405  12.454  1.4113  0.6792  1.3992
17711TIP3    H274549   1.184   1.274  12.447 -0.6058 -0.4766  1.2793
17712TIP3   OH274550   3.103   3.405  15.320  0.0204 -0.0579  0.1009
17712TIP3    H174551   3.131   3.431  15.408  0.1916 -0.0931  0.0559
17712TIP3    H274552   3.030   3.345  15.335 -1.5882  1.8474  0.2000
17713TIP3   OH274553   2.391   6.167  11.637 -0.2619  0.0900  0.3537
17713TIP3    H174554   2.444   6.159  11.558 -1.5424 -0.9879 -0.4141
17713TIP3    H274555   2.368   6.076  11.659 -1.5245  0.5179  0.8485
17714TIP3   OH274556   0.682   0.930   3.891 -0.7362  0.0784  0.2868
17714TIP3    H174557   0.629   0.972   3.824  1.3614  0.4733 -1.1801
17714TIP3    H274558   0.632   0.941   3.972 -2.6697  0.7686 -0.9657
17715TIP3   OH274559   4.518   1.596   5.206  0.1258  0.7382  0.0020
17715TIP3    H174560   4.526   1.511   5.248 -0.1267  0.3707 -0.6992
17715TIP3    H274561   4.602   1.610   5.163 -0.6579 -0.2185 -1.8759
17716TIP3   OH274562   0.786   3.731   0.753 -0.2757  0.1164  0.3840
17716TIP3    H174563   0.850   3.798   0.731  0.0337 -0.3564 -0.1692
17716TIP3    H274564   0.701   3.770   0.733 -0.1036  0.3932  0.1992
17717TIP3   OH274565   2.681   4.885   0.748 -0.2119 -0.1793 -0.1443
17717TIP3    H174566   2.730   4.818   0.796  1.4992  0.3510 -1.1075
17717TIP3    H274567   2.718   4.968   0.778  0.1286  0.1936 -1.5501
17718TIP3   OH274568   1.370   1.682  13.158 -0.2711  0.0307  0.0530
17718TIP3    H174569   1.425   1.755  13.184  1.6446 -0.6203 -2.0068
17718TIP3    H274570   1.321   1.716  13.082  0.1117 -0.5964 -0.4751
17719TIP3   OH274571   5.477   4.290   2.092  0.2074  0.4163  0.5849
17719TIP3    H174572   5.452   4.376   2.127 -0.7637  0.5801 -0.4665
17719TIP3    H274573   5.526   4.310   2.012  1.1558  0.0141  1.0600
17720TIP3   OH274574   2.861   0.153  11.691  0.4542  0.0310  0.4911
17720TIP3    H174575   2.945   0.169  11.735 -1.0900  1.5437  3.0160
17720TIP3    H274576   2.848   0.059  11.699  1.9465 -0.2377 -0.0151
17721TIP3   OH274577   5.988   6.178  16.441 -0.3524  0.7980  0.8414
17721TIP3    H174578   5.987   6.236  16.365 -0.6326 -1.2308 -0.7493
17721TIP3    H274579   5.992   6.237  16.517 -1.3252  2.8900 -0.6900
17722TIP3   OH274580   2.344   6.058  16.129  0.3248  0.4493  0.2999
17722TIP3    H174581   2.362   6.142  16.087 -2.1637  0.6854 -0.3685
17722TIP3    H274582   2.292   6.009  16.065  2.6021 -2.0481  0.2576
17723TIP3   OH274583   4.832   4.143   4.600 -0.3170 -0.3618 -1.0287
17723TIP3    H174584   4.827   4.127   4.506  2.1801  0.1611 -1.2697
17723TIP3    H274585   4.859   4.234   4.608 -2.9324  0.3437  0.2525
17724TIP3   OH274586   1.698   6.369   5.558 -0.0277 -0.0209 -0.0306
17724TIP3    H174587   1.602   6.371   5.555 -0.0122 -1.1580 -1.3520
17724TIP3    H274588   1.720   6.276   5.564  0.9934  0.2589  0.7097
17725TIP3   OH274589   3.871   0.198  17.043  0.5714  0.0089  0.5239
17725TIP3    H174590   3.918   0.115  17.036  1.3775  0.3387  1.8161
17725TIP3    H274591   3.789   0.175  17.087 -0.3939 -0.5138 -1.4586
17726TIP3   OH274592   1.885   1.013  12.842  0.0480  0.3084 -0.3278
17726TIP3    H174593   1.805   0.988  12.796 -1.4372  1.5106  1.5323
17726TIP3    H274594   1.911   0.935  12.890 -0.8686  0.3555  0.2553
17727TIP3   OH274595   2.120   4.012   5.169  0.3390  0.0541  0.4798
17727TIP3    H174596   2.122   4.070   5.093  1.2599 -0.5115  0.0614
17727TIP3    H274597   2.139   4.069   5.243 -0.8200  0.6587  0.3244
17728TIP3   OH274598   4.988   2.372  12.595  0.1205 -0.2629 -0.3078
17728TIP3    H174599   4.971   2.443  12.658  1.7038 -1.0945  1.1207
17728TIP3    H274600   5.003   2.417  12.512  0.3232  1.0477  0.4230
17729TIP3   OH274601   5.399   3.456   2.319  0.7088 -0.0120  0.0712
17729TIP3    H174602   5.440   3.387   2.266 -1.5271 -1.0944 -0.3142
17729TIP3    H274603   5.440   3.448   2.405  0.3270 -1.9921  0.0907
17730TIP3   OH274604   4.992   0.534  13.401  0.0767 -0.2403 -0.5112
17730TIP3    H174605   5.006   0.444  13.428  0.8440 -0.8303 -2.7581
17730TIP3    H274606   5.079   0.574  13.405 -0.2374  0.3703  0.3419
17731TIP3   OH274607   6.570   1.955   5.610 -0.2058  0.2112  0.1604
17731TIP3    H174608   6.575   1.934   5.516  0.7716  1.1779 -0.0104
17731TIP3    H274609   6.559   1.870   5.652 -0.5420 -0.2465 -0.8274
17732TIP3   OH274610   3.553   2.329   2.667 -0.0737 -0.0802  0.0913
17732TIP3    H174611   3.647   2.342   2.681 -0.3237 -0.4127  2.2076
17732TIP3    H274612   3.520   2.417   2.645  0.4788  0.3114  0.8234
17733TIP3   OH274613   4.953   0.345   3.199 -0.2021  0.4034  0.9086
17733TIP3    H174614   4.906   0.422   3.169  0.3212  0.9463  1.4557
17733TIP3    H274615   4.897   0.306   3.266  0.1450  1.0811  1.5997
17734TIP3   OH274616   0.794   1.938  16.183 -0.2481  0.5747  0.4377
17734TIP3    H174617   0.782   1.983  16.267  1.1587  2.1845 -0.1822
17734TIP3    H274618   0.824   1.850  16.207 -0.9814  0.6431  1.6408
17735TIP3   OH274619   3.147   2.508   1.359 -0.1327 -0.7212 -0.0151
17735TIP3    H174620   3.096   2.542   1.286  0.2043 -0.3019 -0.0557
17735TIP3    H274621   3.164   2.416   1.336 -0.0109 -0.5844 -0.4670
17736TIP3   OH274622   2.575   4.813  13.236 -0.3355 -0.2581  0.1489
17736TIP3    H174623   2.636   4.802  13.163 -2.0160 -1.9741 -1.0829
17736TIP3    H274624   2.586   4.734  13.288 -1.3161 -0.4877  0.0306
17737TIP3   OH274625   4.932   4.116  12.834  0.2333  0.6484 -0.2671
17737TIP3    H174626   4.869   4.055  12.796  0.0111  0.3169  0.6223
17737TIP3    H274627   5.004   4.118  12.771  1.4091 -2.5115  0.8516
17738TIP3   OH274628   5.529   0.852  16.987 -0.4693  0.1440 -0.0639
17738TIP3    H174629   5.497   0.901  17.063  1.1123 -0.2056  0.8445
17738TIP3    H274630   5.605   0.804  17.020 -0.4059 -0.8363 -1.6166
17739TIP3   OH274631   4.655   2.335   5.192  0.1639  0.4113  0.2956
17739TIP3    H174632   4.690   2.410   5.144  1.0704 -0.3679 -0.2871
17739TIP3    H274633   4.658   2.263   5.129 -0.8121 -0.0952  0.8083
17740TIP3   OH274634   4.843   2.948   5.049 -0.0345  0.3674 -0.3953
17740TIP3    H174635   4.902   2.875   5.069 -0.2869  0.3262  0.2311
17740TIP3    H274636   4.893   3.005   4.991  0.3623 -0.0279 -0.4466
17741TIP3   OH274637   4.393   5.490  14.106 -0.2717 -0.1537 -0.0959
17741TIP3    H174638   4.462   5.433  14.074 -0.7273 -1.5685  1.3644
17741TIP3    H274639   4.415   5.576  14.071  1.2186 -0.9342 -1.1413
17742TIP3   OH274640   2.838   4.956  16.019  0.1539 -0.1237 -0.2938
17742TIP3    H174641   2.821   4.992  15.931 -1.1341  1.9856  0.7705
17742TIP3    H274642   2.896   4.882  16.003 -1.6047 -0.9892 -3.1144
17743TIP3   OH274643   2.026   5.276   4.654  0.0767 -0.0914 -1.1337
17743TIP3    H174644   2.015   5.186   4.684 -0.1583  0.3916  0.2955
17743TIP3    H274645   2.113   5.279   4.614  1.2163 -0.3273  1.2316
17744TIP3   OH274646   5.038   3.139   0.895 -0.1458 -0.5326  0.2372
17744TIP3    H174647   4.996   3.053   0.891  3.0593 -2.1881 -0.0571
17744TIP3    H274648   5.091   3.136   0.975  0.6507  0.8683 -0.2248
17745TIP3   OH274649   3.274   1.395   1.174  0.2573  0.8274  0.1089
17745TIP3    H174650   3.190   1.352   1.191  1.4223 -2.2520 -1.5785
17745TIP3    H274651   3.252   1.468   1.116 -1.2570  0.1259 -0.2243
17746TIP3   OH274652   3.437   0.499  17.128  0.2403 -0.1918  0.0177
17746TIP3    H174653   3.451   0.407  17.151  0.4580 -0.1193  0.1734
17746TIP3    H274654   3.468   0.506  17.037  2.3893  0.2476  0.7621
17747TIP3   OH274655   2.185   1.138   0.811 -0.8147  0.2016  0.0533
17747TIP3    H174656   2.172   1.044   0.799  0.7380 -0.0839  0.4830
17747TIP3    H274657   2.234   1.166   0.733  0.0363  0.3550  0.6337
17748TIP3   OH274658   5.935   3.257  11.368  0.4372 -0.1996  0.3824
17748TIP3    H174659   5.864   3.309  11.333  1.2455  0.5177 -0.2092
17748TIP3    H274660   5.982   3.224  11.291  0.1729 -1.4751  0.7465
17749TIP3   OH274661   5.675   4.180   1.174  0.1361  0.1147  0.2480
17749TIP3    H174662   5.740   4.114   1.151 -0.1028  0.3393 -1.1147
17749TIP3    H274663   5.722   4.263   1.166  0.0126  0.2053  0.4587
17750TIP3   OH274664   4.296   3.338  13.786  0.6591 -0.0983 -0.4089
17750TIP3    H174665   4.235   3.266  13.801 -0.9720  1.0123 -1.5604
17750TIP3    H274666   4.244   3.417  13.800  2.9019  0.9170  2.7810
17751TIP3   OH274667   0.306   1.987  16.214  0.1962  0.4226  0.0583
17751TIP3    H174668   0.286   2.076  16.184  0.2919  0.5768  0.4508
17751TIP3    H274669   0.325   1.939  16.134 -0.7594  0.5266 -0.2426
17752TIP3   OH274670   2.931   5.356  15.205  0.0219 -0.0115 -0.1999
17752TIP3    H174671   2.945   5.274  15.156  0.8631  0.6553 -1.0854
17752TIP3    H274672   3.014   5.372  15.250  0.9330  1.9853 -2.5095
17753TIP3   OH274673   3.105   4.679   2.965 -0.0287 -0.3611 -0.0966
17753TIP3    H174674   3.147   4.711   3.045 -2.0252 -0.1996  0.8941
17753TIP3    H274675   3.172   4.624   2.924  2.7821  3.3395 -0.7887
17754TIP3   OH274676   4.253   1.265  10.770  0.4039  0.1323 -0.3277
17754TIP3    H174677   4.199   1.344  10.771 -3.0235 -2.0961  0.0856
17754TIP3    H274678   4.267   1.244  10.862 -0.8289 -1.1045 -0.4122
17755TIP3   OH274679   1.793   1.663  11.841 -0.0566  0.5294 -0.6018
17755TIP3    H174680   1.786   1.712  11.923 -0.1764 -0.0273 -0.2780
17755TIP3    H274681   1.768   1.726  11.774  1.1964  1.3418 -0.3287
17756TIP3   OH274682   1.811   4.825   4.855  0.0471  0.5525  0.2397
17756TIP3    H174683   1.756   4.816   4.933  0.2637 -1.6244  0.1746
17756TIP3    H274684   1.816   4.736   4.819  1.5823  1.1709 -1.1317
17757TIP3   OH274685   5.903   4.527  11.051 -0.1821 -0.2181 -0.2248
17757TIP3    H174686   5.893   4.434  11.070 -1.1288 -0.1701 -0.4867
17757TIP3    H274687   5.828   4.569  11.094  0.5876  0.5082  0.4524
17758TIP3   OH274688   1.536   5.877  13.948  0.1876  0.4263  0.4512
17758TIP3    H174689   1.572   5.856  13.862 -2.1807  2.8810 -1.2291
17758TIP3    H274690   1.578   5.960  13.972  0.4563  0.0089  1.4472
17759TIP3   OH274691   5.680   4.516   3.200  0.2183  0.4210  0.2706
17759TIP3    H174692   5.717   4.499   3.114  0.5271  0.2057  0.4458
17759TIP3    H274693   5.585   4.510   3.187  0.2397  1.0504 -0.1948
17760TIP3   OH274694   1.933   2.369   0.852  0.6109  0.1284  0.6387
17760TIP3    H174695   2.006   2.311   0.831  1.2535  0.2739  2.3398
17760TIP3    H274696   1.856   2.326   0.814  1.1811 -1.4592  1.2314
17761TIP3   OH274697   6.553   6.285   3.004  0.0084  0.4151 -0.4626
17761TIP3    H174698   6.595   6.319   3.083  0.6275  0.8007 -0.9554
17761TIP3    H274699   6.464   6.265   3.032  1.0663 -2.3538  1.1007
17762TIP3   OH274700   5.043   4.767  16.048  0.0058  1.0370  0.2920
17762TIP3    H174701   5.012   4.680  16.075  0.0142  0.8061 -0.4257
17762TIP3    H274702   4.999   4.783  15.964 -1.8932  2.7795  1.5918
17763TIP3   OH274703   4.535   4.682  14.623 -0.6103  0.1058 -1.1677
17763TIP3    H174704   4.535   4.777  14.608  0.2986  0.6466  1.8070
17763TIP3    H274705   4.481   4.671  14.702 -1.7265 -2.0006 -2.1909
17764TIP3   OH274706   2.079   0.631  15.035  0.5208 -0.3456 -0.0707
17764TIP3    H174707   2.137   0.704  15.013  0.7414 -0.4628  0.1125
17764TIP3    H274708   2.045   0.653  15.122  1.2174 -0.8423  0.3362
17765TIP3   OH274709   0.703   3.606   5.659 -0.2693  0.6264  0.4582
17765TIP3    H174710   0.630   3.660   5.630  0.4719  1.0461 -0.6308
17765TIP3    H274711   0.679   3.517   5.634 -1.2818  0.5039  1.8419
17766TIP3   OH274712   5.915   1.814  12.798 -0.2998 -0.2311 -0.0549
17766TIP3    H174713   5.981   1.803  12.730  1.3722 -1.7365  1.7665
17766TIP3    H274714   5.941   1.894  12.844  0.2310 -0.8045  0.6397
17767TIP3   OH274715   6.088   3.441  16.412 -0.1530 -0.3580 -0.1096
17767TIP3    H174716   6.100   3.509  16.346  0.1828  0.5587  0.8840
17767TIP3    H274717   6.086   3.359  16.362  1.6922  0.1837 -1.1052
17768TIP3   OH274718   5.440   3.680  11.913 -0.6912 -0.0757 -0.1542
17768TIP3    H174719   5.416   3.616  11.846 -1.7464  1.0813 -0.8895
17768TIP3    H274720   5.469   3.757  11.864 -1.1446  0.6556  0.7115
17769TIP3   OH274721   4.748   2.628  15.846 -0.6327 -0.1122 -0.4848
17769TIP3    H174722   4.672   2.584  15.885 -0.8680 -0.2633 -1.1070
17769TIP3    H274723   4.750   2.714  15.889 -0.3594 -0.6123  0.4966
17770TIP3   OH274724   5.426   6.198  14.381  0.0748 -0.4269 -0.5533
17770TIP3    H174725   5.414   6.125  14.320 -0.3143 -0.3284 -0.5978
17770TIP3    H274726   5.340   6.208  14.423 -0.5325  1.4806 -2.1936
17771TIP3   OH274727   1.567   3.932  13.536 -0.1323 -0.4272 -0.6198
17771TIP3    H174728   1.496   3.910  13.596  0.2139  0.1768  0.0318
17771TIP3    H274729   1.638   3.872  13.559 -0.3050 -0.7791 -1.0147
17772TIP3   OH274730   2.851   5.321  11.826  0.3762  0.4123  0.0764
17772TIP3    H174731   2.862   5.407  11.868 -0.8803  0.2754  0.7056
17772TIP3    H274732   2.896   5.260  11.884 -0.2171  0.4036  0.5221
17773TIP3   OH274733   2.335   6.195  14.964 -0.5194  0.2060  0.5933
17773TIP3    H174734   2.370   6.107  14.978 -1.9910 -0.3610  0.7992
17773TIP3    H274735   2.244   6.188  14.990 -1.0481  1.4036 -0.9000
17774TIP3   OH274736   0.639   3.853  13.866 -0.8293  0.9968  0.4938
17774TIP3    H174737   0.563   3.873  13.811 -0.5754 -0.4072 -0.3989
17774TIP3    H274738   0.697   3.803  13.809 -0.2279  0.1293  1.8427
17775TIP3   OH274739   0.769   5.435  14.546  0.1546  0.2861  0.1426
17775TIP3    H174740   0.844   5.494  14.545 -1.3091  2.2412  1.0935
17775TIP3    H274741   0.704   5.477  14.489 -0.1086 -1.5510 -0.9669
17776TIP3   OH274742   2.388   5.271  15.554  0.4397  0.1055 -0.2059
17776TIP3    H174743   2.303   5.314  15.563 -2.1412 -4.2990 -1.7605
17776TIP3    H274744   2.396   5.218  15.634  0.7091 -1.0732 -1.0002
17777TIP3   OH274745   5.625   1.275   6.142  0.3322 -0.1924  0.8630
17777TIP3    H174746   5.711   1.233   6.153  0.9533  0.4538 -1.2130
17777TIP3    H274747   5.565   1.203   6.123  0.6939 -0.5072  0.9010
17778TIP3   OH274748   1.703   2.254   0.286 -0.1353  0.1997 -0.4691
17778TIP3    H174749   1.649   2.259   0.207 -0.2042 -2.4247 -0.6463
17778TIP3    H274750   1.649   2.290   0.355 -1.9477 -1.8645 -0.7547
17779TIP3   OH274751   3.364   3.295  12.461  0.0480 -0.0194 -0.0408
17779TIP3    H174752   3.431   3.230  12.480 -0.0085 -0.6335 -1.8639
17779TIP3    H274753   3.281   3.248  12.467  0.1124 -0.6625 -3.3629
17780TIP3   OH274754   5.317   2.713   3.378  0.2977 -0.5682  0.7087
17780TIP3    H174755   5.279   2.707   3.291  1.0565  0.5766  0.2946
17780TIP3    H274756   5.338   2.622   3.402 -2.4086 -1.1883  0.8384
17781TIP3   OH274757   0.350   1.222  13.925  0.0171  0.2467  0.6811
17781TIP3    H174758   0.428   1.211  13.979  1.8116  0.3294 -1.7561
17781TIP3    H274759   0.339   1.137  13.882  0.1458  0.9022 -0.6946
17782TIP3   OH274760   5.789   1.223  11.173  0.5547 -0.3912  0.1753
17782TIP3    H174761   5.840   1.171  11.111  2.1584  1.6512 -0.2538
17782TIP3    H274762   5.711   1.170  11.190  0.8897 -1.7368 -2.2797
17783TIP3   OH274763   0.830   2.989  11.275 -0.6339 -0.0570  0.1943
17783TIP3    H174764   0.893   3.024  11.339  0.6375 -0.5784 -0.7532
17783TIP3    H274765   0.861   2.900  11.258 -0.9676  0.0833 -1.1514
17784TIP3   OH274766   4.766   2.736   0.373  0.4686  0.0217  0.2160
17784TIP3    H174767   4.740   2.825   0.348  0.1250 -0.0382  0.3611
17784TIP3    H274768   4.758   2.686   0.292 -3.4709 -0.8267  1.0029
17785TIP3   OH274769   2.804   4.741  11.771 -0.1050 -0.4699 -0.0160
17785TIP3    H174770   2.891   4.702  11.756  0.8562  0.8240  2.0197
17785TIP3    H274771   2.765   4.688  11.840 -0.8514 -0.8833 -0.7414
17786TIP3   OH274772   2.399   5.369  11.887  0.1596  0.4079  0.3805
17786TIP3    H174773   2.366   5.287  11.923  0.5773  0.6691  1.3502
17786TIP3    H274774   2.322   5.412  11.851 -0.1929 -0.0253  0.6141
17787TIP3   OH274775   3.193   4.932   2.846  0.1806  0.2762  0.3048
17787TIP3    H174776   3.203   4.986   2.923  3.0516 -0.5444  0.5489
17787TIP3    H274777   3.165   4.847   2.880 -0.9782  0.6066  0.2059
17788TIP3   OH274778   1.074   1.154  11.956  0.0800 -0.1888  0.1157
17788TIP3    H174779   1.031   1.224  12.004  0.4151 -0.3498  0.6538
17788TIP3    H274780   1.090   1.086  12.021  1.4549  0.0076 -0.0135
17789TIP3   OH274781   2.048   3.503   3.612  0.2015 -0.4681  0.0569
17789TIP3    H174782   1.952   3.493   3.613  0.2143 -0.7182 -0.6754
17789TIP3    H274783   2.078   3.431   3.557  0.8909 -1.0084  1.1326
17790TIP3   OH274784   4.151   5.540   4.245 -0.1391 -0.1983  0.1731
17790TIP3    H174785   4.242   5.513   4.238 -0.3001 -0.2711 -1.7739
17790TIP3    H274786   4.105   5.489   4.179 -1.7081 -0.6012  1.5314
17791TIP3   OH274787   3.639   2.456   1.288 -0.4311  0.2093  0.0807
17791TIP3    H174788   3.681   2.519   1.230 -0.4989  1.0103  0.8894
17791TIP3    H274789   3.603   2.509   1.359  0.7003 -0.8642  1.5001
17792TIP3   OH274790   5.739   4.708  16.024 -0.1419 -0.0215 -0.0678
17792TIP3    H174791   5.659   4.760  16.035 -0.5235 -0.9010  1.4491
17792TIP3    H274792   5.735   4.643  16.094  1.9360 -0.0506  0.0393
17793TIP3   OH274793   4.228   2.780  16.097 -0.4609  0.2309  0.1487
17793TIP3    H174794   4.147   2.767  16.048 -0.3172  1.5852 -0.4829
17793TIP3    H274795   4.237   2.702  16.151 -1.2251 -0.7616 -1.1391
17794TIP3   OH274796   2.024   5.974  14.720 -0.3565 -0.0816  0.7953
17794TIP3    H174797   2.044   5.918  14.795  0.5600  0.2612  0.8117
17794TIP3    H274798   1.933   6.001  14.734 -0.7007 -1.3205  0.9377
17795TIP3   OH274799   2.235   4.066   0.139 -0.2006  0.5863 -0.3963
17795TIP3    H174800   2.180   4.007   0.191 -0.6349 -0.6591 -2.2573
17795TIP3    H274801   2.178   4.097   0.069  0.8213  1.0519 -1.0318
17796TIP3   OH274802   6.054   5.091   3.312  0.1939 -0.4092  0.2436
17796TIP3    H174803   6.030   5.095   3.219 -0.0663 -2.0586  0.2249
17796TIP3    H274804   6.065   5.182   3.337 -1.3529  0.1552 -1.0018
17797TIP3   OH274805   1.902   3.278  14.256 -0.3552  0.2337  0.1127
17797TIP3    H174806   1.865   3.359  14.220 -1.5253 -0.2039  0.3057
17797TIP3    H274807   1.956   3.307  14.330 -1.5443  0.7543  0.7819
17798TIP3   OH274808   5.218   3.349  13.095  0.5315  0.3363  0.2466
17798TIP3    H174809   5.179   3.317  13.177  0.2550  0.1837  0.0542
17798TIP3    H274810   5.274   3.422  13.123  2.5548 -1.4031  0.9353
17799TIP3   OH274811   0.105   1.813   6.042 -0.0991  0.1808 -0.0841
17799TIP3    H174812   0.011   1.809   6.027 -0.1895  0.9813  0.2617
17799TIP3    H274813   0.115   1.856   6.127  0.6098  1.5147 -0.8182
17800TIP3   OH274814   3.256   5.708  14.787 -0.6064 -0.0481  0.4473
17800TIP3    H174815   3.218   5.650  14.721 -0.9144  1.2987 -0.5847
17800TIP3    H274816   3.181   5.739  14.838 -0.7450  1.5109 -0.6931
17801TIP3   OH274817   4.634   0.858   6.350 -0.7657 -0.1734 -0.1235
17801TIP3    H174818   4.688   0.908   6.411 -1.1680 -0.9356  0.8742
17801TIP3    H274819   4.571   0.922   6.316 -1.0221  0.0944  0.8304
17802TIP3   OH274820   6.696   3.125  10.521 -0.2483  0.4872  0.0348
17802TIP3    H174821   6.625   3.116  10.585 -0.5616 -1.7245 -0.5685
17802TIP3    H274822   6.775   3.102  10.569 -0.2600  0.5564  0.0854
17803TIP3   OH274823   4.993   5.280   5.985  0.8646 -0.2709  0.2527
17803TIP3    H174824   5.056   5.210   6.002  1.5903  0.1137 -0.7907
17803TIP3    H274825   4.908   5.236   5.987  1.0086 -0.4589  3.5178
17804TIP3   OH274826   1.200   0.326   0.383  0.3950 -0.2229  0.1835
17804TIP3    H174827   1.184   0.417   0.408  0.1040 -0.4416  0.8163
17804TIP3    H274828   1.222   0.282   0.466  1.0361 -0.6207 -0.1961
17805TIP3   OH274829   6.363   3.266   0.630 -0.1558  0.4536  0.1205
17805TIP3    H174830   6.280   3.257   0.582  0.1577  0.2534 -0.3875
17805TIP3    H274831   6.419   3.198   0.593 -0.8420 -1.6187  2.7436
17806TIP3   OH274832   5.187   1.599  16.100  0.0526  0.0192 -0.5315
17806TIP3    H174833   5.149   1.681  16.071  0.6146  0.0452 -1.2128
17806TIP3    H274834   5.198   1.610  16.195  1.6266  1.3591 -0.8472
17807TIP3   OH274835   6.311   1.323  13.048 -0.1164 -0.0854 -0.2206
17807TIP3    H174836   6.286   1.255  12.986  2.8440 -1.9671  0.5197
17807TIP3    H274837   6.369   1.380  12.998  0.9472 -0.6636  0.3342
17808TIP3   OH274838   5.617   3.846  15.198 -0.1053 -0.2366  0.3426
17808TIP3    H174839   5.651   3.907  15.133  0.2143 -1.7778 -0.9850
17808TIP3    H274840   5.530   3.880  15.220  0.6846  1.5397  0.8012
17809TIP3   OH274841   0.594   1.642   3.914  0.1089 -0.1334  0.1794
17809TIP3    H174842   0.620   1.712   3.973  1.1867 -1.5846  1.4823
17809TIP3    H274843   0.645   1.658   3.834 -1.0108  1.5753 -0.2016
17810TIP3   OH274844   1.852   0.699  11.196  0.1016  0.5897  0.2007
17810TIP3    H174845   1.913   0.772  11.185  0.8066  0.2067  1.5157
17810TIP3    H274846   1.785   0.714  11.129 -0.9488  3.6824  1.8080
17811TIP3   OH274847   5.622   0.098  16.381 -0.3435 -0.0895 -0.1319
17811TIP3    H174848   5.650   0.102  16.472 -2.9942 -1.5131  0.8300
17811TIP3    H274849   5.625   0.189  16.351  0.9011  0.3514  1.2489
17812TIP3   OH274850   6.392   3.393   4.922 -0.2217 -0.4277  0.0432
17812TIP3    H174851   6.412   3.485   4.907  0.4334 -0.4765  0.5933
17812TIP3    H274852   6.340   3.367   4.846  0.9919 -0.0399 -0.9303
17813TIP3   OH274853   5.390   2.239  13.171 -0.1189 -0.2677  0.2955
17813TIP3    H174854   5.438   2.164  13.137  0.0503  0.8785 -2.1227
17813TIP3    H274855   5.427   2.255  13.258  0.3461 -2.4974  0.5371
17814TIP3   OH274856   1.889   0.628   1.757  0.1751 -0.2408 -0.4177
17814TIP3    H174857   1.890   0.564   1.828  0.0418  2.1378  1.8133
17814TIP3    H274858   1.973   0.674   1.765 -0.6239  1.2868 -0.5987
17815TIP3   OH274859   0.208   3.955  14.459  1.1795 -0.4093  0.1920
17815TIP3    H174860   0.267   3.958  14.383  0.3788  1.1087 -0.3896
17815TIP3    H274861   0.187   3.862  14.469  0.6472 -0.5454 -1.9648
17816TIP3   OH274862   2.678   6.702  17.112  0.4048 -0.0533 -0.4161
17816TIP3    H174863   2.624   6.690  17.034  2.1223 -0.4810 -1.5845
17816TIP3    H274864   2.734   6.777  17.092  1.7741 -0.9704 -0.1519
17817TIP3   OH274865   1.050   1.449   2.247 -0.2406  0.2202 -0.4185
17817TIP3    H174866   0.969   1.497   2.232 -0.5172 -0.2377 -0.4230
17817TIP3    H274867   1.050   1.381   2.179 -1.1165 -1.3902  1.1286
17818TIP3   OH274868   4.936   4.503   4.781 -0.2105  0.4745  0.3351
17818TIP3    H174869   4.974   4.590   4.792 -0.4972  0.4736  1.4085
17818TIP3    H274870   4.899   4.482   4.867  1.4258 -1.4675  0.6132
17819TIP3   OH274871   5.313   1.200  13.430  0.0353  0.3658  0.1950
17819TIP3    H174872   5.404   1.197  13.401 -0.1629 -0.2328 -0.3865
17819TIP3    H274873   5.318   1.213  13.525  0.7044  1.4665  0.0137
17820TIP3   OH274874   3.485   1.532  16.228  0.4072  0.6917 -0.2316
17820TIP3    H174875   3.523   1.444  16.223  1.5616  1.2429 -1.6377
17820TIP3    H274876   3.551   1.584  16.274 -0.0436  0.9309  0.1379
17821TIP3   OH274877   3.288   1.680   4.319 -0.0215 -0.0147 -0.5822
17821TIP3    H174878   3.211   1.731   4.346  0.8067  1.0688 -0.2511
17821TIP3    H274879   3.341   1.741   4.269  1.7284 -0.1124  1.1263
17822TIP3   OH274880   2.252   0.924   5.382 -0.0646 -0.5475  0.0905
17822TIP3    H174881   2.190   0.888   5.445  0.8988  0.7085  1.7982
17822TIP3    H274882   2.331   0.870   5.392 -0.2985 -1.0754 -0.8689
17823TIP3   OH274883   1.969   3.719  13.304  1.1206 -0.1408  0.5920
17823TIP3    H174884   2.038   3.653  13.307  3.2387  1.9426 -0.7079
17823TIP3    H274885   1.978   3.767  13.386  0.0758 -0.9184  1.1856
17824TIP3   OH274886   1.495   1.708  12.838 -0.1877  0.5074 -0.1841
17824TIP3    H174887   1.527   1.775  12.899  0.3609 -0.0667  0.1686
17824TIP3    H274888   1.402   1.726  12.830  0.1797  2.0785 -1.0619
17825TIP3   OH274889   2.286   5.273   0.869  0.2949  0.4203 -0.8660
17825TIP3    H174890   2.288   5.181   0.843 -0.0555  0.6788 -1.8446
17825TIP3    H274891   2.244   5.274   0.955 -2.3065 -0.0605 -2.0916
17826TIP3   OH274892   5.886   3.410   6.540 -0.7449 -0.3511 -0.2819
17826TIP3    H174893   5.846   3.323   6.540  0.5900 -0.9832 -1.4255
17826TIP3    H274894   5.859   3.449   6.623  1.9822 -3.3882  2.1316
17827TIP3   OH274895   3.681   1.085  11.790 -0.4017 -0.2192  0.0043
17827TIP3    H174896   3.761   1.103  11.839  0.5973 -0.4482 -1.5236
17827TIP3    H274897   3.686   1.140  11.713 -1.8626 -0.0224  0.0251
17828TIP3   OH274898   0.775   3.803   1.448 -0.2052  0.5532  0.2462
17828TIP3    H174899   0.791   3.712   1.473  0.2148  0.5381 -0.0710
17828TIP3    H274900   0.751   3.847   1.530  1.1344  0.4971  0.6809
17829TIP3   OH274901   0.904   1.924  14.865 -0.4675  0.0179  0.3905
17829TIP3    H174902   0.943   1.869  14.933 -1.1502  1.3756  1.9334
17829TIP3    H274903   0.870   1.862  14.800  0.2441 -1.3074  1.2606
17830TIP3   OH274904   6.646   0.635  15.375 -0.2314  0.3238  0.4092
17830TIP3    H174905   6.619   0.586  15.452  1.3481 -0.2385  0.6199
17830TIP3    H274906   6.704   0.576  15.327  1.5303  1.8533  0.5555
17831TIP3   OH274907   0.865   1.017  12.617 -0.0519  0.0192 -0.6080
17831TIP3    H174908   0.816   1.017  12.699  0.2696 -1.6007 -0.3789
17831TIP3    H274909   0.805   1.053  12.552 -0.6621  0.3732  0.1479
17832TIP3   OH274910   2.237   6.457  15.668 -0.3322 -0.1757  0.1794
17832TIP3    H174911   2.297   6.525  15.639  0.5500 -0.8279  0.4643
17832TIP3    H274912   2.198   6.491  15.748 -1.4873  0.8966 -0.8137
17833TIP3   OH274913   4.846   1.689  12.814 -0.5926 -0.4887  0.0347
17833TIP3    H174914   4.841   1.778  12.848  0.5836 -1.0626  1.7581
17833TIP3    H274915   4.886   1.698  12.727 -1.3302  0.7303 -0.1953
17834TIP3   OH274916   1.834   5.962  16.168 -0.4499  0.2728  0.3586
17834TIP3    H174917   1.813   6.052  16.144  0.2999  0.5189  0.5924
17834TIP3    H274918   1.815   5.911  16.090 -1.7157  0.5052  0.5010
17835TIP3   OH274919   4.986   0.228   2.238  0.1504 -0.0905  0.4683
17835TIP3    H174920   4.993   0.170   2.314 -0.0721 -0.7978 -0.0502
17835TIP3    H274921   4.993   0.170   2.162 -0.0090  0.5661 -0.0536
17836TIP3   OH274922   5.908   1.035   2.937 -0.1427 -0.0887  0.0222
17836TIP3    H174923   5.893   1.113   2.883 -1.4380 -0.2941  0.0791
17836TIP3    H274924   5.871   0.963   2.886 -0.7954 -0.3769  0.9051
17837TIP3   OH274925   5.509   6.780   3.982 -0.1758  0.1635  0.4492
17837TIP3    H174926   5.489   6.686   3.983 -1.8214  0.5023  0.3159
17837TIP3    H274927   5.489   6.807   3.892  0.9755  0.5046  0.2910
17838TIP3   OH274928   5.802   4.717  13.625 -0.1077  0.2388  0.2903
17838TIP3    H174929   5.845   4.771  13.559  1.1794 -0.2362  0.7183
17838TIP3    H274930   5.756   4.649  13.576  0.8364 -0.1070 -0.1138
17839TIP3   OH274931   1.753   2.096   5.436  0.4273  0.3019  0.0790
17839TIP3    H174932   1.812   2.169   5.416  0.7095  0.2287  0.6061
17839TIP3    H274933   1.667   2.126   5.410  0.7299  0.3394 -0.8806
17840TIP3   OH274934   0.185   2.476  11.367 -0.0244 -0.7881 -0.3034
17840TIP3    H174935   0.212   2.414  11.300 -0.9403 -2.2426  0.6653
17840TIP3    H274936   0.214   2.437  11.449 -0.0662  0.3688  0.2708
17841TIP3   OH274937   0.643   1.586  14.771 -0.1502  0.0982 -0.7702
17841TIP3    H174938   0.568   1.630  14.812  1.0393 -0.1009  1.7057
17841TIP3    H274939   0.607   1.503  14.739 -1.5318  1.1156 -1.9089
17842TIP3   OH274940   2.671   0.533  12.691 -0.2149  0.5521  0.0782
17842TIP3    H174941   2.626   0.479  12.627  0.0671  0.5712 -0.1391
17842TIP3    H274942   2.607   0.548  12.760 -0.6201  0.7780 -0.3431
17843TIP3   OH274943   5.323   4.459   4.487  0.5313 -0.2854 -0.3245
17843TIP3    H174944   5.380   4.484   4.560  0.0177 -0.8697  0.2858
17843TIP3    H274945   5.367   4.383   4.448 -0.5183 -1.6191  1.0170
17844TIP3   OH274946   6.122   0.812  14.580  0.0224  0.2470  0.1400
17844TIP3    H174947   6.068   0.772  14.648  0.8103  0.2944  0.8064
17844TIP3    H274948   6.142   0.739  14.521  1.4471 -0.3693  1.3441
17845TIP3   OH274949   2.365   1.898   3.593  0.2958 -0.3417 -0.2944
17845TIP3    H174950   2.297   1.833   3.608 -1.0588  1.1575  0.1423
17845TIP3    H274951   2.327   1.960   3.532  1.9582 -0.5045 -1.5433
17846TIP3   OH274952   0.697   4.249   5.997  0.0588  0.3887  0.2362
17846TIP3    H174953   0.650   4.319   5.952  1.6656  1.5568  0.3368
17846TIP3    H274954   0.654   4.242   6.083 -0.0149  1.3437  0.2794
17847TIP3   OH274955   2.171   2.070  14.832 -0.4363 -0.1332  0.1232
17847TIP3    H174956   2.076   2.085  14.836 -0.8147 -2.3461  0.3743
17847TIP3    H274957   2.200   2.075  14.923 -0.4299 -0.0427  0.1152
17848TIP3   OH274958   2.822   2.874  17.127 -0.4072 -0.3562  0.3133
17848TIP3    H174959   2.888   2.818  17.167 -1.5166 -0.7127  1.6689
17848TIP3    H274960   2.770   2.814  17.073  0.6131 -0.0044 -1.0977
17849TIP3   OH274961   0.263   3.314   2.725  0.7930  0.5763  0.4542
17849TIP3    H174962   0.316   3.386   2.759  2.7752 -0.3944 -0.4852
17849TIP3    H274963   0.227   3.271   2.803  1.6455  1.0647  1.1200
17850TIP3   OH274964   6.459   2.112   6.435  0.2975  0.0164 -0.4172
17850TIP3    H174965   6.547   2.079   6.451  0.8188  1.7594  0.4260
17850TIP3    H274966   6.468   2.207   6.440 -2.4206  0.1501  4.0086
17851TIP3   OH274967   3.722   6.152  14.571 -0.8571 -0.0088  0.2519
17851TIP3    H174968   3.790   6.160  14.638  0.0524 -0.1992 -0.6344
17851TIP3    H274969   3.651   6.208  14.602  0.2065  1.1924  0.5705
17852TIP3   OH274970   3.075   0.869  11.706 -0.3858  0.6020  0.1903
17852TIP3    H174971   2.993   0.835  11.741  0.0919 -0.5780  0.2029
17852TIP3    H274972   3.122   0.791  11.675  2.0487  0.9023  2.9243
17853TIP3   OH274973   0.995   3.922  15.677  0.1288  0.1201 -0.1465
17853TIP3    H174974   0.969   3.870  15.753  1.4816  0.6455  0.6935
17853TIP3    H274975   1.090   3.915  15.674  0.2352  1.5806 -0.7140
17854TIP3   OH274976   0.286   5.802   1.589 -0.3373 -0.0446 -0.2037
17854TIP3    H174977   0.372   5.787   1.627  1.1948  0.7833 -3.1978
17854TIP3    H274978   0.231   5.732   1.624  1.1007  0.3371  2.9681
17855TIP3   OH274979   4.195   0.862  15.033 -0.2640 -0.4696 -0.2293
17855TIP3    H174980   4.142   0.942  15.037 -0.2540 -0.3176 -2.3093
17855TIP3    H274981   4.283   0.893  15.010  0.2106 -0.9242  0.9262
17856TIP3   OH274982   6.433   0.316   6.458 -0.9149  0.2756 -0.4145
17856TIP3    H174983   6.358   0.268   6.492  1.0579 -1.2479  1.9261
17856TIP3    H274984   6.406   0.408   6.464 -1.9689 -0.1560  1.9814
17857TIP3   OH274985   2.573   4.874   1.705  0.2205 -0.6118  0.0956
17857TIP3    H174986   2.617   4.955   1.680  1.4982 -1.5956 -0.8934
17857TIP3    H274987   2.614   4.849   1.788 -1.2923  0.5696  1.2437
17858TIP3   OH274988   2.489   0.962  15.571 -0.3636  0.5294 -0.2244
17858TIP3    H174989   2.459   0.920  15.491 -0.2096 -0.9933  0.5022
17858TIP3    H274990   2.568   1.010  15.545 -0.6726  0.5741 -1.1003
17859TIP3   OH274991   6.043   0.934  11.934  0.9060  0.7274 -0.0053
17859TIP3    H174992   6.081   0.992  12.000  2.2091 -0.9198  0.6964
17859TIP3    H274993   6.093   0.953  11.854  0.1472  1.8201 -0.2420
17860TIP3   OH274994   3.709   0.818   2.299 -0.1427  0.1712  0.1020
17860TIP3    H174995   3.641   0.852   2.240 -1.0429  0.1360  1.1045
17860TIP3    H274996   3.714   0.883   2.369  0.9398  0.2225 -0.0217
17861TIP3   OH274997   6.157   2.593   2.045  0.6713  0.3286 -0.1303
17861TIP3    H174998   6.212   2.662   2.010  0.5464  1.5354  1.9327
17861TIP3    H274999   6.218   2.527   2.078  0.8055 -0.1383 -1.3139
17862TIP3   OH275000   0.137   5.173   3.680  0.8303 -0.8558 -0.3921
17862TIP3    H175001   0.068   5.125   3.635 -0.0962  1.0209 -1.0198
17862TIP3    H275002   0.194   5.105   3.716 -0.1857 -2.4022 -1.6479
17863TIP3   OH275003   4.723   4.778   4.613  0.3779 -0.3138  1.1592
17863TIP3    H175004   4.781   4.849   4.583 -0.4253 -0.1456 -0.0487
17863TIP3    H275005   4.672   4.816   4.684 -1.9722  1.2094 -1.2595
17864TIP3   OH275006   5.389   6.526   2.381  0.0876 -0.1447  0.3844
17864TIP3    H175007   5.437   6.607   2.393 -0.6957  0.2940  0.6001
17864TIP3    H275008   5.315   6.533   2.441 -1.2520 -0.0021 -1.2370
17865TIP3   OH275009   5.578   3.091  10.577  0.1583 -0.4476  0.0974
17865TIP3    H175010   5.553   3.083  10.669 -2.2836 -0.7781 -0.5478
17865TIP3    H275011   5.510   3.042  10.530  1.5275 -0.5188 -1.8599
17866TIP3   OH275012   1.759   2.221  17.135  0.0050 -0.1160 -0.0686
17866TIP3    H175013   1.722   2.299  17.176 -3.3006 -2.3966  1.4158
17866TIP3    H275014   1.852   2.242  17.124 -0.2970  3.0147  2.6630
17867TIP3   OH275015   5.246   2.346  17.136  0.4644  0.0789 -0.0424
17867TIP3    H175016   5.165   2.299  17.154 -0.7640  1.4293 -1.8481
17867TIP3    H275017   5.295   2.288  17.079  0.6920 -0.6478  0.8747
17868TIP3   OH275018   1.871   5.579  10.681 -0.7441 -0.1847  0.1060
17868TIP3    H175019   1.777   5.592  10.671 -0.6577 -1.3671 -2.4859
17868TIP3    H275020   1.910   5.661  10.653 -1.0018  0.6828  2.1647
17869TIP3   OH275021   0.217   1.484   2.831  0.0859 -0.1377  0.2501
17869TIP3    H175022   0.276   1.509   2.902  0.9883  0.5860 -0.7511
17869TIP3    H275023   0.256   1.522   2.752 -0.5980 -1.4187 -0.7226
17870TIP3   OH275024   4.895   2.405  13.494  0.1310  0.5528 -0.2919
17870TIP3    H175025   4.888   2.458  13.573 -0.1445  1.7455 -1.0982
17870TIP3    H275026   4.989   2.386  13.485  0.2251  0.8791  0.0182
17871TIP3   OH275027   6.708   5.445  12.474 -0.6657 -0.0280  0.6521
17871TIP3    H175028   6.746   5.394  12.546  0.3387 -0.1765  0.0278
17871TIP3    H275029   6.632   5.394  12.447  1.1299 -1.9611 -0.8976
17872TIP3   OH275030   0.782   3.705   5.021  0.1124 -0.0790  0.0727
17872TIP3    H175031   0.859   3.747   5.059 -0.1391  0.6942 -0.2744
17872TIP3    H275032   0.812   3.672   4.936  0.4732 -1.1567  0.6013
17873TIP3   OH275033   3.747   4.189  13.044  0.0789  0.3703  0.0827
17873TIP3    H175034   3.761   4.145  13.127  0.5905 -0.7367 -0.5823
17873TIP3    H275035   3.653   4.181  13.027  0.2876 -1.1169 -0.3945
17874TIP3   OH275036   1.948   2.242  12.924  0.5064 -0.1304  0.2356
17874TIP3    H175037   1.951   2.329  12.962  1.7261  0.7271 -1.7528
17874TIP3    H275038   1.879   2.246  12.858  0.6656 -0.6210  0.0294
17875TIP3   OH275039   3.366   2.403  16.804  0.1535 -0.0736  0.3287
17875TIP3    H175040   3.410   2.485  16.786 -1.5500  0.8271  0.2197
17875TIP3    H275041   3.366   2.397  16.900  1.9638 -0.8953  0.2993
17876TIP3   OH275042   4.887   4.797  12.619  0.3923  0.2478 -0.1667
17876TIP3    H175043   4.838   4.874  12.590  0.7826 -0.0836 -1.7485
17876TIP3    H275044   4.943   4.774  12.544 -0.2104 -1.9754  0.0227
17877TIP3   OH275045   2.087   3.879  16.169  0.4741  0.2356  0.4916
17877TIP3    H175046   2.118   3.788  16.168  2.1186  0.7752  0.6618
17877TIP3    H275047   2.007   3.877  16.117  0.6424 -1.2568  0.2506
17878TIP3   OH275048   1.493   0.297  12.928  0.2095  0.5230  0.0924
17878TIP3    H175049   1.576   0.299  12.975  0.5765  1.1276 -0.5719
17878TIP3    H275050   1.459   0.386  12.935  0.4629  0.7296 -1.1149
17879TIP3   OH275051   6.490   6.350  14.905 -0.4652  0.2431 -0.1899
17879TIP3    H175052   6.567   6.305  14.939  0.3856  2.1779  0.5677
17879TIP3    H275053   6.418   6.290  14.920  0.5542 -0.6596  1.2225
17880TIP3   OH275054   0.243   5.408   0.561 -0.1227 -0.3262  0.1080
17880TIP3    H175055   0.325   5.364   0.540  1.5587  0.4183  4.5123
17880TIP3    H275056   0.201   5.350   0.625 -1.9457  0.4323 -0.3646
17881TIP3   OH275057   0.059   6.499  15.572  0.1082  0.7335  0.2655
17881TIP3    H175058   0.068   6.585  15.531  2.4507  0.8722  1.0363
17881TIP3    H275059   0.122   6.500  15.644  0.3796 -1.7542  0.0838
17882TIP3   OH275060   5.335   2.642  16.377 -0.2777  0.4034  0.5685
17882TIP3    H175061   5.323   2.547  16.382  2.5615 -0.1092 -1.3447
17882TIP3    H275062   5.412   2.659  16.431 -0.5725  1.6093  0.6261
17883TIP3   OH275063   2.713   3.687  12.921  0.3042 -0.4060 -0.3908
17883TIP3    H175064   2.730   3.675  12.828  1.3049  0.3179 -0.3085
17883TIP3    H275065   2.787   3.645  12.965 -0.6366 -1.5773  0.1127
17884TIP3   OH275066   3.654   3.085  11.863 -0.0517 -0.1226 -0.1419
17884TIP3    H175067   3.627   3.169  11.900 -0.2402 -0.5844  0.7743
17884TIP3    H275068   3.735   3.104  11.816 -0.9750  0.9110 -1.3668
17885TIP3   OH275069   5.921   1.524   0.325  0.3398  0.1639 -0.5627
17885TIP3    H175070   5.918   1.434   0.357  1.2607  0.2592 -0.1992
17885TIP3    H275071   6.001   1.561   0.361 -1.3900  2.0145  1.5537
17886TIP3   OH275072   0.973   3.840   1.801 -0.7322 -0.2127 -0.1557
17886TIP3    H175073   1.030   3.774   1.762 -0.4195 -1.0023  1.5985
17886TIP3    H275074   0.978   3.915   1.742  2.4020 -0.1365  0.1500
17887TIP3   OH275075   0.513   4.037   2.828  0.4406 -0.2315 -0.6820
17887TIP3    H175076   0.533   4.094   2.902 -0.5892 -2.4719  1.4423
17887TIP3    H275077   0.515   4.094   2.751 -0.7101  2.6598  1.3443
17888TIP3   OH275078   0.083   4.462   1.679  0.1181  0.3700  0.2728
17888TIP3    H175079   0.109   4.547   1.645  2.8938 -0.4113  0.3151
17888TIP3    H275080   0.145   4.401   1.639  1.3625 -1.0113  4.1199
17889TIP3   OH275081   0.950   3.345   6.512 -0.3296  0.1389 -0.0739
17889TIP3    H175082   1.035   3.317   6.478  0.0720 -1.4729  2.1473
17889TIP3    H275083   0.949   3.440   6.498  1.3899  0.0395 -1.0618
17890TIP3   OH275084   4.334   0.033  11.286 -0.0629  0.6347 -0.4347
17890TIP3    H175085   4.388  -0.033  11.241  1.0463  1.1327  0.1454
17890TIP3    H275086   4.283  -0.017  11.349  0.9121  0.3222  0.1307
17891TIP3   OH275087   0.454   0.121   1.225  0.1716  0.0931  0.2480
17891TIP3    H175088   0.508   0.050   1.189  0.5081  0.8123 -0.6817
17891TIP3    H275089   0.518   0.186   1.256 -0.1392  0.9605 -0.8767
17892TIP3   OH275090   6.173   3.649  14.082  0.7104  0.4148 -0.5236
17892TIP3    H175091   6.242   3.583  14.088  2.4587  2.3974  3.5375
17892TIP3    H275092   6.092   3.599  14.071  2.0305 -2.3760  1.8263
17893TIP3   OH275093   1.331   5.907   1.976 -0.3160  0.0515 -0.2241
17893TIP3    H175094   1.375   5.947   1.902 -0.0878  0.8101  0.3214
17893TIP3    H275095   1.402   5.882   2.035 -0.6302  1.5492  0.7942
17894TIP3   OH275096   4.273   3.138   6.098 -0.1210 -0.3933  0.1851
17894TIP3    H175097   4.267   3.230   6.073 -2.4278 -0.7051 -0.5276
17894TIP3    H275098   4.339   3.136   6.167 -0.2071  1.8329  0.3583
17895TIP3   OH275099   4.085   1.444   6.570 -0.7793 -0.2071  0.1763
17895TIP3    H175100   4.108   1.451   6.663 -1.1751 -0.5819  0.2989
17895TIP3    H275101   4.152   1.497   6.526 -1.1310  0.7314  0.7457
17896TIP3   OH275102   6.045   5.395  12.299  0.1491 -0.0890  0.1925
17896TIP3    H175103   6.036   5.430  12.388 -0.3192  1.6982 -0.5286
17896TIP3    H275104   6.125   5.437  12.265 -0.3740  0.2211 -0.6672
17897TIP3   OH275105   0.504   2.102   1.335 -0.2529  0.3822 -0.1022
17897TIP3    H175106   0.512   2.018   1.381 -0.5295  0.5641  0.2822
17897TIP3    H275107   0.570   2.098   1.266 -0.4490 -0.2688 -0.2592
17898TIP3   OH275108   0.439   5.649  15.497 -0.7227  0.5207 -0.2104
17898TIP3    H175109   0.463   5.556  15.492 -0.8234  0.4278  0.8748
17898TIP3    H275110   0.350   5.653  15.462 -0.9381  0.1091  0.2749
17899TIP3   OH275111   1.213   2.068  13.187  0.0693  0.4279  0.1574
17899TIP3    H175112   1.266   2.077  13.108  1.0008  0.2232  0.7519
17899TIP3    H275113   1.123   2.079  13.157  0.4327  0.5512 -0.8992
17900TIP3   OH275114   2.959   6.521  11.178  0.2266 -0.2520  0.3394
17900TIP3    H175115   3.031   6.473  11.218  0.1695 -2.1350 -1.7684
17900TIP3    H275116   2.900   6.454  11.143 -0.4648  1.2948 -1.6080
17901TIP3   OH275117   3.933   3.941  11.233  0.1975 -0.1326 -0.0949
17901TIP3    H175118   4.002   4.006  11.219  1.2142 -0.7584  1.7539
17901TIP3    H275119   3.867   3.961  11.167  0.7539  2.4075  0.0585
17902TIP3   OH275120   2.397   4.088  14.660  0.1764 -1.1097  0.0652
17902TIP3    H175121   2.329   4.029  14.626  0.5760 -2.0827  0.9518
17902TIP3    H275122   2.388   4.082  14.755  1.5741 -1.3167  0.1856
17903TIP3   OH275123   0.227   4.603  13.476 -0.2821  0.3260  0.4315
17903TIP3    H175124   0.206   4.527  13.421 -0.5579  1.7856 -1.5257
17903TIP3    H275125   0.256   4.670  13.415  0.7178  1.5652  2.2129
17904TIP3   OH275126   6.693   0.406  14.919  0.1128 -0.1470  0.2944
17904TIP3    H175127   6.646   0.354  14.984  1.4034 -0.0384  1.3294
17904TIP3    H275128   6.626   0.430  14.855 -1.1011 -0.5711  1.3766
17905TIP3   OH275129   6.342   5.770  12.024  0.4943 -0.4399  0.0892
17905TIP3    H175130   6.348   5.792  12.117  0.2016  0.3128 -0.0615
17905TIP3    H275131   6.428   5.734  12.001  0.8055  0.0575  0.4788
17906TIP3   OH275132   0.178   6.636   2.890  0.3937  0.2059 -0.0044
17906TIP3    H175133   0.199   6.701   2.957 -0.0537  0.5439 -0.1906
17906TIP3    H275134   0.086   6.650   2.871 -0.3657 -2.1084  1.7187
17907TIP3   OH275135   5.219   4.239   1.445 -0.0494 -0.0925 -0.1348
17907TIP3    H175136   5.168   4.269   1.370 -1.0006  1.0590  0.9636
17907TIP3    H275137   5.298   4.202   1.406  0.2363  2.0029 -1.6542
17908TIP3   OH275138   4.672   3.809   1.904  0.5154 -0.1612 -0.7682
17908TIP3    H175139   4.704   3.900   1.908  0.1507 -0.0606  0.0128
17908TIP3    H275140   4.579   3.816   1.928  0.4033 -0.7002 -1.0499
17909TIP3   OH275141   5.210   1.473  12.694  0.2813 -0.0078 -0.1367
17909TIP3    H175142   5.257   1.545  12.737 -1.3543  1.0113 -0.0060
17909TIP3    H275143   5.203   1.405  12.762 -0.9015  0.9734  0.7650
17910TIP3   OH275144   6.266   3.744   1.088  1.0150  0.8017  0.1017
17910TIP3    H175145   6.260   3.649   1.094 -3.2349  0.8526 -1.1314
17910TIP3    H275146   6.332   3.760   1.021  0.4665 -1.3820 -1.0085
17911TIP3   OH275147   4.585   4.424   1.248 -0.2338  0.0664 -0.0636
17911TIP3    H175148   4.507   4.428   1.193 -1.1816  2.6979  1.3445
17911TIP3    H275149   4.566   4.355   1.311 -0.5763 -0.6738 -0.9699
17912TIP3   OH275150   5.699   4.569   1.937  0.1513  0.0064  0.0502
17912TIP3    H175151   5.771   4.630   1.955 -0.3465  0.6832 -0.2387
17912TIP3    H275152   5.639   4.580   2.011  0.3821 -0.6341  0.3428
17913TIP3   OH275153   3.466   4.165  14.898 -0.2269  0.2071 -0.4323
17913TIP3    H175154   3.516   4.229  14.847  0.1235  0.2857 -0.0005
17913TIP3    H275155   3.421   4.218  14.965 -1.8806  0.2865 -1.5773
17914TIP3   OH275156   2.283   6.082   6.173 -0.2447  0.0687  0.5301
17914TIP3    H175157   2.255   6.082   6.082 -0.2789  1.5272  0.5356
17914TIP3    H275158   2.207   6.113   6.222 -0.5597 -1.6361  1.1841
17915TIP3   OH275159   2.488   5.218   5.616  0.0228 -0.6480 -0.1445
17915TIP3    H175160   2.405   5.253   5.583 -0.0436 -1.3647 -0.7502
17915TIP3    H275161   2.511   5.149   5.554  0.4343 -1.3119  0.7413
17916TIP3   OH275162   3.916   5.365   2.870 -0.0458 -0.1608 -0.1782
17916TIP3    H175163   3.980   5.396   2.933  1.2109 -1.1983 -0.9006
17916TIP3    H275164   3.870   5.294   2.915 -2.1849  1.9482  1.0896
17917TIP3   OH275165   4.855   6.647  11.798  0.2116  0.2607  0.1018
17917TIP3    H175166   4.764   6.622  11.780  0.1520  1.3285 -1.1134
17917TIP3    H275167   4.907   6.580  11.753  0.0240  0.0600  0.1848
17918TIP3   OH275168   6.155   0.778   3.934  0.5376 -0.8068  0.3445
17918TIP3    H175169   6.247   0.760   3.914  0.9376 -1.8004  2.9200
17918TIP3    H275170   6.108   0.701   3.901  0.3672  0.5038 -2.6049
17919TIP3   OH275171   4.701   6.405  12.939  0.3206 -0.1482  0.6782
17919TIP3    H175172   4.630   6.453  12.896  1.0524  1.2533  1.0279
17919TIP3    H275173   4.660   6.323  12.968 -0.8043  0.0320 -0.3742
17920TIP3   OH275174   3.707   3.237   1.081 -0.0604 -0.4854 -0.3514
17920TIP3    H175175   3.647   3.241   1.155  1.5743  0.9152  0.9556
17920TIP3    H275176   3.709   3.144   1.057 -1.6949 -0.7473  0.4432
17921TIP3   OH275177   3.960   2.479   1.597  0.2107  0.8317  0.2130
17921TIP3    H175178   4.020   2.542   1.634  0.9180  0.3344 -0.0702
17921TIP3    H275179   3.907   2.449   1.671  0.7731  0.7663  0.5955
17922TIP3   OH275180   4.709   6.385  13.271 -0.3325 -0.5626  0.5408
17922TIP3    H175181   4.688   6.466  13.224  0.7205  0.0599  1.1202
17922TIP3    H275182   4.658   6.318  13.227 -0.6279  0.2953 -0.4429
17923TIP3   OH275183   1.914   1.371  16.180  0.5080  0.1049 -0.8232
17923TIP3    H175184   1.829   1.391  16.142 -0.7125 -0.6384  1.3961
17923TIP3    H275185   1.900   1.290  16.230  2.2038  0.6052  0.5431
17924TIP3   OH275186   4.636   2.602  16.426  0.1882  0.2465  0.1044
17924TIP3    H175187   4.594   2.630  16.507 -1.3626  0.1115 -0.6304
17924TIP3    H275188   4.613   2.509  16.417  0.8888  0.0982 -0.1464
17925TIP3   OH275189   2.886   1.437   2.962  0.0003 -0.0256 -0.6100
17925TIP3    H175190   2.808   1.491   2.968 -0.0280 -0.3071  2.0609
17925TIP3    H275191   2.936   1.457   3.042  1.8480 -1.0813 -1.4529
17926TIP3   OH275192   1.015   3.245  12.125 -0.0851 -0.5318 -0.0544
17926TIP3    H175193   0.984   3.186  12.055 -1.4585 -1.5246  1.3580
17926TIP3    H275194   1.100   3.276  12.094 -1.6780  0.9078 -3.2757
17927TIP3   OH275195   1.172   6.090   5.174  0.1647  0.4164  0.1418
17927TIP3    H175196   1.181   6.183   5.195  0.0581  0.5487 -0.4077
17927TIP3    H275197   1.201   6.045   5.254 -0.6465  0.9265  0.7247
17928TIP3   OH275198   4.301   3.081   4.397 -0.3446 -0.5042 -0.0828
17928TIP3    H175199   4.387   3.038   4.403 -0.1401 -0.0805  0.0772
17928TIP3    H275200   4.241   3.021   4.443  0.1921  0.0430  1.3687
17929TIP3   OH275201   4.468   5.174   5.818  0.4053 -0.3322 -0.6345
17929TIP3    H175202   4.402   5.118   5.859 -0.5468  0.6111 -0.8659
17929TIP3    H275203   4.476   5.249   5.877  1.1580 -0.3693 -0.6884
17930TIP3   OH275204   4.292   1.122   4.495  0.0379  0.0259  0.0409
17930TIP3    H175205   4.213   1.096   4.447  1.6239  0.3534 -2.8696
17930TIP3    H275206   4.299   1.216   4.480 -0.2616  0.4056  2.2263
17931TIP3   OH275207   1.644   2.737  14.163  0.2337  0.7114 -0.0375
17931TIP3    H175208   1.715   2.675  14.181 -0.3714  0.0814  0.1620
17931TIP3    H275209   1.677   2.788  14.088  0.2519 -0.6344 -0.9764
17932TIP3   OH275210   2.828   0.885  14.894 -0.2179 -0.1149 -0.0256
17932TIP3    H175211   2.788   0.861  14.978 -0.7823 -0.0992 -0.2905
17932TIP3    H275212   2.912   0.925  14.919 -0.1552 -0.5702  0.5058
17933TIP3   OH275213   3.273   0.702  16.673  0.3026 -0.3492  0.2816
17933TIP3    H175214   3.284   0.628  16.734  1.0079 -0.1205  0.4312
17933TIP3    H275215   3.178   0.710  16.663  0.2211 -1.2881  0.2516
17934TIP3   OH275216   4.466   5.706   3.611  0.3292  0.0604 -0.0106
17934TIP3    H175217   4.442   5.702   3.518 -0.2361 -0.1795  0.1447
17934TIP3    H275218   4.534   5.639   3.621 -0.3455 -0.6428 -0.0371
17935TIP3   OH275219   1.935   3.757  12.559  0.4883  0.6714  0.1990
17935TIP3    H175220   1.854   3.747  12.609 -0.5163  0.0046 -1.5299
17935TIP3    H275221   1.988   3.682  12.586  0.3026  0.7880  0.9039
17936TIP3   OH275222   1.482   6.576  16.318  0.0770 -0.1393 -0.4614
17936TIP3    H175223   1.557   6.615  16.364  0.6276 -1.9590  0.2257
17936TIP3    H275224   1.517   6.496  16.279 -1.4395 -0.8235 -0.4416
17937TIP3   OH275225   3.985   6.497   4.359 -0.3426 -0.2426 -0.1442
17937TIP3    H175226   3.943   6.581   4.338  0.8297  0.2432 -0.6151
17937TIP3    H275227   3.933   6.432   4.312  0.0550  0.4563 -1.5826
17938TIP3   OH275228   2.488   4.029  17.083 -0.0015 -0.2077 -0.4469
17938TIP3    H175229   2.427   3.958  17.105 -0.0070 -0.1739 -0.3532
17938TIP3    H275230   2.498   4.023  16.988  1.1121 -1.2246 -0.2685
17939TIP3   OH275231   6.699   2.550  16.848  0.0680 -0.3975 -0.5753
17939TIP3    H175232   6.665   2.608  16.780 -0.1730 -0.1729 -0.2648
17939TIP3    H275233   6.666   2.464  16.824 -0.1378 -0.2958 -0.6674
17940TIP3   OH275234   4.417   3.446   2.407 -0.2405  0.7882 -0.0111
17940TIP3    H175235   4.430   3.415   2.497  1.7051 -4.5387 -1.9145
17940TIP3    H275236   4.496   3.495   2.387 -1.1544  2.9465  1.4493
17941TIP3   OH275237   4.281   6.545   4.297 -0.3906  0.0367  0.5671
17941TIP3    H175238   4.245   6.482   4.235  0.7453 -1.1720  1.1105
17941TIP3    H275239   4.215   6.554   4.365 -0.5241 -0.6387  0.5262
17942TIP3   OH275240   0.690   6.198   5.779  0.0880 -0.6493  0.2311
17942TIP3    H175241   0.614   6.223   5.833 -0.1815 -0.5950 -0.1710
17942TIP3    H275242   0.660   6.122   5.730  0.8832 -1.7381  1.3932
17943TIP3   OH275243   1.535   3.572   1.848  0.1265 -0.0712  0.4854
17943TIP3    H175244   1.551   3.648   1.792  0.2378 -0.6171 -0.2149
17943TIP3    H275245   1.440   3.569   1.858 -0.0165 -1.0528 -1.1552
17944TIP3   OH275246   2.797   4.690   0.930 -0.4573 -0.1903  0.7154
17944TIP3    H175247   2.869   4.702   0.991  0.2738 -2.1460  0.2755
17944TIP3    H275248   2.784   4.596   0.926 -0.9707 -0.0654 -1.5820
17945TIP3   OH275249   6.763   6.300  12.574 -0.0355  0.3101 -0.4107
17945TIP3    H175250   6.852   6.268  12.560 -0.1589  0.2870 -1.1888
17945TIP3    H275251   6.708   6.225  12.552 -0.1906 -0.3156  2.0176
17946TIP3   OH275252   0.006   2.697  13.487 -0.0299 -0.2345  0.1281
17946TIP3    H175253  -0.028   2.766  13.544 -1.5392  0.0560 -1.1109
17946TIP3    H275254   0.062   2.645  13.545 -0.0970  1.1139  1.4423
17947TIP3   OH275255   0.808   0.668  11.283 -0.7002  0.4476  0.2787
17947TIP3    H175256   0.787   0.709  11.366 -1.0598 -0.7771  0.8079
17947TIP3    H275257   0.725   0.631  11.253 -0.3915  0.1376 -0.2000
17948TIP3   OH275258   2.247   2.184   5.037  0.2636  0.3486 -0.6994
17948TIP3    H175259   2.318   2.231   5.082  2.6193 -2.6247 -1.1551
17948TIP3    H275260   2.233   2.233   4.956  0.9255  1.6854 -0.0204
17949TIP3   OH275261   2.719   1.525   4.938  0.1128  0.0764 -0.0118
17949TIP3    H175262   2.741   1.442   4.895 -0.6850  0.4736 -1.2146
17949TIP3    H275263   2.754   1.516   5.027  1.4342 -0.9234 -0.6172
17950TIP3   OH275264   2.855   6.549   0.718  0.6711  0.1290 -0.2350
17950TIP3    H175265   2.776   6.562   0.667  0.2754  2.1969  0.8588
17950TIP3    H275266   2.898   6.634   0.719  2.0843 -0.5711  0.5251
17951TIP3   OH275267   1.912   1.937  12.593 -0.2546 -0.7821  0.1968
17951TIP3    H175268   1.973   1.935  12.520 -1.7608  0.5338 -1.1540
17951TIP3    H275269   1.947   1.874  12.656  1.7785 -0.9673 -1.0763
17952TIP3   OH275270   0.125   4.073  17.210  0.4466  0.6075 -0.2606
17952TIP3    H175271   0.177   4.058  17.131  0.0399  1.0954 -0.6182
17952TIP3    H275272   0.107   4.167  17.210 -0.8491  0.3672 -0.3853
17953TIP3   OH275273   0.122   6.652   0.604 -0.2243  0.4171 -0.5039
17953TIP3    H175274   0.131   6.702   0.523 -1.9652 -1.1118 -1.6816
17953TIP3    H275275   0.046   6.691   0.648 -0.1323  0.3413 -0.2753
17954TIP3   OH275276   5.662   5.164   1.265 -0.3541  0.0856  0.1214
17954TIP3    H175277   5.708   5.081   1.262  1.2071  0.9582 -3.8456
17954TIP3    H275278   5.572   5.144   1.238 -1.1150 -0.8669  3.1754
17955TIP3   OH275279   4.689   0.544  10.620 -0.2024 -0.1166 -0.0302
17955TIP3    H175280   4.776   0.546  10.580  0.5721  0.2298  1.6218
17955TIP3    H275281   4.684   0.458  10.663  0.4364  0.9327  2.2200
17956TIP3   OH275282   6.234   5.491   1.688 -0.2804  0.4364 -0.7761
17956TIP3    H175283   6.284   5.551   1.633  0.7117  1.6787  1.4328
17956TIP3    H275284   6.157   5.541   1.715 -0.8446 -0.2262 -1.1281
17957TIP3   OH275285   3.565   6.137   5.008  0.3248  0.1698 -0.3902
17957TIP3    H175286   3.487   6.168   4.961 -0.4135 -1.6623 -0.4099
17957TIP3    H275287   3.639   6.169   4.955 -0.4206  1.2813 -0.7770
17958TIP3   OH275288   5.235   0.825  12.247  0.4770  0.1958  0.0549
17958TIP3    H175289   5.161   0.774  12.216 -0.5995  2.0750 -0.5561
17958TIP3    H275290   5.284   0.765  12.303 -0.5264 -1.5965 -0.9608
17959TIP3   OH275291   6.236   2.865  16.667  0.1814  0.6342 -0.5622
17959TIP3    H175292   6.247   2.949  16.621 -0.3683  0.4055 -1.1188
17959TIP3    H275293   6.290   2.874  16.746 -0.1454  1.6541 -0.4377
17960TIP3   OH275294   0.554   6.040   0.134 -0.1284 -0.1939  0.0993
17960TIP3    H175295   0.495   6.096   0.084 -1.7041  1.2209  3.3457
17960TIP3    H275296   0.634   6.092   0.143 -0.0565 -0.2106 -0.4387
17961TIP3   OH275297   1.060   0.680   3.860 -0.3072 -0.0314  0.2770
17961TIP3    H175298   1.134   0.622   3.840 -1.3667 -2.0467  2.0076
17961TIP3    H275299   1.053   0.677   3.955 -1.0627  2.1351  0.3121
17962TIP3   OH275300   2.233   2.942   0.875 -0.6665  0.9031  0.2064
17962TIP3    H175301   2.308   2.883   0.877 -0.8464  0.4927 -2.6930
17962TIP3    H275302   2.244   2.992   0.794 -3.1013  1.3495  0.1179
17963TIP3   OH275303   5.500   2.443  14.994 -0.0591  0.4648 -0.1765
17963TIP3    H175304   5.561   2.376  14.964 -0.4206 -0.3257  0.8492
17963TIP3    H275305   5.533   2.469  15.080 -1.3024 -0.1578  0.5040
17964TIP3   OH275306   5.409   4.629  12.974 -0.1623  0.2277  0.2208
17964TIP3    H175307   5.365   4.714  12.969  0.4123  0.5270  0.1387
17964TIP3    H275308   5.479   4.642  13.039  0.7381  0.1990 -0.7293
17965TIP3   OH275309   1.829   0.019   3.797 -0.0965  0.3837 -0.1469
17965TIP3    H175310   1.838  -0.025   3.713 -1.5593  0.4106 -0.3431
17965TIP3    H275311   1.892   0.091   3.794  1.7560 -1.2267 -0.1216
17966TIP3   OH275312   0.165   5.719  14.177 -0.4039  0.6190  0.2312
17966TIP3    H175313   0.139   5.811  14.178 -0.1675  0.6813  0.8696
17966TIP3    H275314   0.260   5.720  14.180 -0.4380  0.3420  1.8718
17967TIP3   OH275315   4.883   2.985  16.144  0.4539  0.1723  1.2295
17967TIP3    H175316   4.904   3.075  16.117  0.3406 -0.1491  0.0301
17967TIP3    H275317   4.853   2.993  16.234 -0.0434  1.4073  0.9559
17968TIP3   OH275318   3.025   0.464   3.981  0.4002 -0.0109 -0.1948
17968TIP3    H175319   3.005   0.457   3.887  0.0387  0.6395 -0.1696
17968TIP3    H275320   3.113   0.501   3.983  0.2914  0.2524 -0.2756
17969TIP3   OH275321   5.122   2.375   3.377 -0.2256  0.0281 -0.6247
17969TIP3    H175322   5.214   2.356   3.395 -0.4468  0.9578  1.6145
17969TIP3    H275323   5.092   2.299   3.327  1.2614 -1.2176  0.3030
17970TIP3   OH275324   0.231   1.607  13.318 -0.5558  0.5817 -0.4603
17970TIP3    H175325   0.138   1.621  13.334 -0.8557 -0.5949 -1.1156
17970TIP3    H275326   0.249   1.520  13.354  0.4263  1.0431  0.1848
17971TIP3   OH275327   4.182   1.153   3.080  0.3568 -0.9724  0.0003
17971TIP3    H175328   4.116   1.201   3.130  0.1071 -0.3553 -0.9093
17971TIP3    H275329   4.264   1.201   3.098  0.2153 -0.5734 -0.4240
17972TIP3   OH275330   1.816   3.846  13.646  0.8394  0.3538 -0.3146
17972TIP3    H175331   1.813   3.941  13.646  2.2665  0.4192 -0.3494
17972TIP3    H275332   1.863   3.824  13.727  0.9790 -0.2909 -0.5649
17973TIP3   OH275333   4.222   3.203   3.983 -0.2390 -0.3094  0.3406
17973TIP3    H175334   4.311   3.232   4.005 -0.3212  0.5132 -0.3602
17973TIP3    H275335   4.186   3.275   3.932 -0.8117 -1.2398 -0.5899
17974TIP3   OH275336   4.458   0.553  16.340  0.6565  0.2729  0.4180
17974TIP3    H175337   4.494   0.471  16.304 -1.2430 -1.5757  2.5610
17974TIP3    H275338   4.518   0.578  16.409 -0.5835 -1.2717  2.1038
17975TIP3   OH275339   0.609   0.366   3.113  0.4725 -0.2653 -0.3140
17975TIP3    H175340   0.689   0.317   3.092 -0.0787 -0.2224 -2.5743
17975TIP3    H275341   0.538   0.308   3.086 -0.2370  0.6756 -0.4535
17976TIP3   OH275342   2.304   4.905   1.732  0.1615 -0.7645 -0.7088
17976TIP3    H175343   2.396   4.880   1.747 -0.0875 -1.8853 -0.9536
17976TIP3    H275344   2.276   4.944   1.815  0.7934 -0.6313 -0.5547
17977TIP3   OH275345   1.519   5.565  13.817 -0.5230 -0.5707  0.0319
17977TIP3    H175346   1.523   5.657  13.789  0.3413 -0.4247  0.6198
17977TIP3    H275347   1.537   5.515  13.738  0.5785 -0.1914  0.0370
17978TIP3   OH275348   4.264   1.630   1.851 -0.5182  0.4443  0.2929
17978TIP3    H175349   4.302   1.545   1.830 -0.2031  1.0320 -1.5719
17978TIP3    H275350   4.219   1.656   1.772 -1.2086  1.7092  1.0932
17979TIP3   OH275351   1.148   6.369  12.623 -0.3178  0.2054  0.1836
17979TIP3    H175352   1.150   6.313  12.701  3.8591 -0.4994 -0.2977
17979TIP3    H275353   1.156   6.307  12.550  2.1344  1.2377 -0.4576
17980TIP3   OH275354   2.272   0.831  15.300  0.1916 -0.5155  0.2792
17980TIP3    H175355   2.301   0.759  15.243 -0.6924 -0.5057 -0.1920
17980TIP3    H275356   2.280   0.909  15.246 -1.1414 -0.5698 -0.0231
17981TIP3   OH275357   0.928   6.479  12.802  0.0490  0.4557  0.2080
17981TIP3    H175358   0.898   6.388  12.799 -3.1573  1.4255  1.0840
17981TIP3    H275359   0.954   6.499  12.712  1.8357 -1.6415  0.2345
17982TIP3   OH275360   3.011   0.789   2.397  0.2175 -0.6059 -0.3000
17982TIP3    H175361   3.008   0.700   2.362 -2.0078 -0.9087  0.5535
17982TIP3    H275362   2.948   0.838   2.344  0.7809  0.2432 -0.1910
17983TIP3   OH275363   6.152   4.331  12.413  0.0276 -0.1966  0.8271
17983TIP3    H175364   6.097   4.380  12.352 -1.2562 -0.8165  1.4647
17983TIP3    H275365   6.238   4.328  12.372 -0.2646  1.3019  0.0859
17984TIP3   OH275366   3.095   1.985   6.299 -0.1693 -0.2237 -0.7022
17984TIP3    H175367   3.017   2.003   6.351  1.0867  1.2907  0.7038
17984TIP3    H275368   3.091   2.047   6.227  0.5813  1.0069  0.3001
17985TIP3   OH275369   5.578   5.580  15.818  0.0635  0.5650 -0.1535
17985TIP3    H175370   5.526   5.655  15.847 -1.4590 -0.6374  0.2343
17985TIP3    H275371   5.545   5.561  15.730 -1.4319 -1.3539  0.8138
17986TIP3   OH275372   3.441   1.773  15.029 -0.2106 -0.7442  0.6441
17986TIP3    H175373   3.473   1.791  15.118 -1.8400  0.0547  1.0903
17986TIP3    H275374   3.373   1.707  15.042 -0.8214 -0.2306  0.0517
17987TIP3   OH275375   1.230   5.261  16.687 -0.9353 -0.3840  0.4204
17987TIP3    H175376   1.219   5.167  16.673  1.8811 -0.9651  1.6469
17987TIP3    H275377   1.265   5.268  16.776  1.1284  1.6136 -0.4765
17988TIP3   OH275378   2.830   1.758  13.493  0.1151 -0.6035  0.0323
17988TIP3    H175379   2.909   1.777  13.545 -0.0618  0.2762 -0.0082
17988TIP3    H275380   2.818   1.836  13.439  0.5088 -1.6502 -1.6143
17989TIP3   OH275381   2.317   0.188  11.892 -0.5536  0.0649 -0.5792
17989TIP3    H175382   2.404   0.227  11.885 -0.7200 -0.1094 -4.7035
17989TIP3    H275383   2.326   0.101  11.854 -2.9322  0.7713 -2.8933
17990TIP3   OH275384   6.480   6.073  15.596 -0.0385  0.3778 -0.1743
17990TIP3    H175385   6.506   6.003  15.537  0.4912 -0.4498  1.0134
17990TIP3    H275386   6.408   6.117  15.551  0.3879 -0.2091 -1.4402
17991TIP3   OH275387   3.655   1.335   0.794 -0.2501  0.1016 -0.4347
17991TIP3    H175388   3.643   1.404   0.859 -0.6540  0.7664 -1.2009
17991TIP3    H275389   3.631   1.255   0.840  1.1253  0.3539  0.7386
17992TIP3   OH275390   4.772   5.063   2.355 -0.5109 -0.3212  0.4428
17992TIP3    H175391   4.842   5.070   2.290 -1.3929 -3.4547 -0.9603
17992TIP3    H275392   4.795   4.985   2.405 -2.6528 -1.0468  0.3490
17993TIP3   OH275393   6.603   1.788   1.897  0.6874 -0.2335 -0.5441
17993TIP3    H175394   6.696   1.809   1.887  0.6350  0.4770  0.4104
17993TIP3    H275395   6.601   1.715   1.959  0.5268  0.6791  0.5309
17994TIP3   OH275396   4.533   5.963  16.531  1.5283 -0.8016 -0.1406
17994TIP3    H175397   4.498   5.879  16.503  1.6486 -0.2069 -2.2112
17994TIP3    H275398   4.620   5.943  16.567  1.0807 -1.6828  0.4508
17995TIP3   OH275399   0.165   6.106   5.850 -0.7171 -0.2211 -0.1048
17995TIP3    H175400   0.149   6.143   5.763 -2.0876 -1.3205 -0.3226
17995TIP3    H275401   0.195   6.017   5.833  0.6476  0.0976  0.5067
17996TIP3   OH275402   0.160   4.163  13.238  0.3538 -0.0222  0.3669
17996TIP3    H175403   0.104   4.086  13.237 -0.4551  0.5674 -1.7692
17996TIP3    H275404   0.247   4.130  13.261 -0.1617 -1.4495  0.2679
17997TIP3   OH275405   6.721   5.443   3.125 -0.6144  0.5926 -0.3047
17997TIP3    H175406   6.814   5.441   3.148 -0.8387  0.3007  0.6181
17997TIP3    H275407   6.698   5.352   3.108 -1.2877  0.3156  1.8702
17998TIP3   OH275408   5.488   4.472  16.648 -0.1224 -0.8676 -0.3348
17998TIP3    H175409   5.490   4.415  16.725  0.8497 -0.1667  0.1722
17998TIP3    H275410   5.395   4.486  16.631 -0.3508 -1.4366  0.4048
17999TIP3   OH275411   6.496   4.631  14.985  0.4110 -0.3904  0.2907
17999TIP3    H175412   6.554   4.691  14.938  0.8449 -1.2346 -0.2817
17999TIP3    H275413   6.555   4.566  15.023 -0.0545 -0.4870  0.8586
18000TIP3   OH275414   3.545   5.906   2.250  0.1792 -0.3332  0.2010
18000TIP3    H175415   3.579   5.896   2.162 -0.6181  1.1844 -0.2963
18000TIP3    H275416   3.559   5.998   2.271 -1.0186 -0.3296  1.0645
18001TIP3   OH275417   2.262   1.175  16.240  0.1774 -0.1126  0.2757
18001TIP3    H175418   2.179   1.141  16.206 -0.0702  1.8208 -1.1021
18001TIP3    H275419   2.325   1.157  16.170  0.7969 -0.9623  1.0393
18002TIP3   OH275420   5.314   0.941  16.861  0.9407 -0.1308  0.0490
18002TIP3    H175421   5.402   0.912  16.885  1.2706 -2.1807 -3.3132
18002TIP3    H275422   5.327   1.000  16.787 -0.4135  0.8716  0.5877
18003TIP3   OH275423   3.994   3.363   0.634  0.4110  0.2735 -0.3429
18003TIP3    H175424   3.991   3.272   0.662 -1.5083 -0.1789 -1.9587
18003TIP3    H275425   3.906   3.396   0.649  1.0806  1.8792  0.1972
18004TIP3   OH275426   4.172   4.346  16.472 -0.2765 -0.1637 -0.5750
18004TIP3    H175427   4.213   4.430  16.455 -0.5602  0.2251  0.5709
18004TIP3    H275428   4.214   4.285  16.412  1.9774  0.2156  0.5869
18005TIP3   OH275429   0.664   2.454   3.553 -0.0667 -0.1951  0.3735
18005TIP3    H175430   0.734   2.510   3.521  0.5413 -0.3639  1.3795
18005TIP3    H275431   0.682   2.368   3.515  1.2044 -0.6315  1.9160
18006TIP3   OH275432   0.949   4.665   2.309 -0.6505 -0.2937 -0.0106
18006TIP3    H175433   0.990   4.579   2.312  1.8999  0.7992 -2.2811
18006TIP3    H275434   0.891   4.661   2.233 -1.5624 -0.4302  0.6834
18007TIP3   OH275435   5.002   1.631   4.386  0.2129  0.1597  0.2867
18007TIP3    H175436   5.084   1.622   4.436  0.1797  0.2661  0.3598
18007TIP3    H275437   4.937   1.586   4.440  0.4125 -0.7735 -0.2373
18008TIP3   OH275438   2.281   0.304  16.174  0.8402  0.1573  0.6246
18008TIP3    H175439   2.288   0.274  16.083  1.2918 -0.8614  0.9851
18008TIP3    H275440   2.343   0.249  16.222  0.5868  0.6727  1.5565
18009TIP3   OH275441   5.921   1.863  10.650  0.6221 -0.0499  0.1833
18009TIP3    H175442   5.834   1.834  10.622 -0.4615  0.3285  2.9908
18009TIP3    H275443   5.935   1.820  10.734  1.1255  3.4918  2.0336
18010TIP3   OH275444   3.799   3.344  13.628  0.0765 -0.4881  0.0018
18010TIP3    H175445   3.805   3.375  13.719  2.1696 -0.5271 -0.0909
18010TIP3    H275446   3.752   3.414  13.582 -1.0122 -0.4778  1.1189
18011TIP3   OH275447   6.345   4.656   2.974 -0.3828 -0.1437  0.1448
18011TIP3    H175448   6.343   4.719   2.902 -1.1317  0.0757  0.3491
18011TIP3    H275449   6.320   4.708   3.051  0.2884 -0.4037  0.5460
18012TIP3   OH275450   0.853   3.339  17.039  0.0399  0.1613  0.3828
18012TIP3    H175451   0.888   3.424  17.010  1.0185  0.2810  1.8757
18012TIP3    H275452   0.759   3.347  17.025  0.2790  0.9310 -0.9203
18013TIP3   OH275453   6.623   3.411  17.004  0.3238 -0.0759 -0.4034
18013TIP3    H175454   6.596   3.424  16.913  1.8854  0.1405 -0.8583
18013TIP3    H275455   6.542   3.413  17.054 -0.3599  2.0428 -1.5394
18014TIP3   OH275456   4.174   0.702  16.595 -0.0221  0.0558  0.3076
18014TIP3    H175457   4.105   0.685  16.659 -0.7779 -0.6996 -0.6860
18014TIP3    H275458   4.141   0.664  16.514  0.8518  1.1621 -0.5730
18015TIP3   OH275459   6.583   3.864   5.404 -0.5404  0.2789  0.1174
18015TIP3    H175460   6.659   3.873   5.461 -0.0006 -2.7514 -0.0668
18015TIP3    H275461   6.517   3.820   5.458 -1.4610  1.0595 -0.3527
18016TIP3   OH275462   6.010   2.909  13.761 -0.3986  0.2337 -0.0103
18016TIP3    H175463   6.048   2.942  13.680 -0.2008  0.5691  0.2203
18016TIP3    H275464   6.072   2.842  13.791 -0.9834 -0.6246 -0.6712
18017TIP3   OH275465   6.684   4.962  11.522  0.3510  0.3700 -0.3545
18017TIP3    H175466   6.656   4.955  11.613  1.1361 -1.0950 -0.2149
18017TIP3    H275467   6.738   5.041  11.520  0.7331  0.1381  0.5588
18018TIP3   OH275468   5.977   3.219   2.565  0.1589  0.1807 -0.2019
18018TIP3    H175469   5.962   3.197   2.657 -1.3771  1.3003 -0.1582
18018TIP3    H275470   5.910   3.285   2.545 -0.2109 -0.8143 -2.4078
18019TIP3   OH275471   5.977   3.729   5.033 -0.0556  0.3371  0.1381
18019TIP3    H175472   5.911   3.688   5.087  0.1200 -0.6103 -0.3591
18019TIP3    H275473   6.060   3.705   5.073  0.0459  0.2414 -0.1254
18020TIP3   OH275474   1.557   0.843   0.445 -0.3544  0.5680 -0.5011
18020TIP3    H175475   1.492   0.793   0.494  1.1714 -0.6533  0.3035
18020TIP3    H275476   1.559   0.928   0.489  0.8113 -0.4219  1.4494
18021TIP3   OH275477   2.813   3.148   1.583 -0.0807  0.5193  0.4624
18021TIP3    H175478   2.840   3.069   1.536  1.1474  1.0620  0.2242
18021TIP3    H275479   2.890   3.172   1.635 -0.9456  0.7380  1.6548
18022TIP3   OH275480   4.661   3.513  11.174 -0.3534 -0.1125  0.0531
18022TIP3    H175481   4.648   3.427  11.134 -3.3308  0.1287  0.3640
18022TIP3    H275482   4.633   3.575  11.107  1.9417  0.6601 -0.2305
18023TIP3   OH275483   6.451   1.706   3.963  0.0761 -0.5061 -0.7994
18023TIP3    H175484   6.439   1.682   4.055 -1.1863 -0.4532 -0.9292
18023TIP3    H275485   6.397   1.784   3.951  2.2293  0.9753 -0.9874
18024TIP3   OH275486   0.452   1.217   0.237  0.4302  0.1946  0.7110
18024TIP3    H175487   0.369   1.234   0.283  0.2616  0.8997  0.1573
18024TIP3    H275488   0.493   1.147   0.287 -1.4791 -1.6611 -0.2433
18025TIP3   OH275489   6.363   5.181   1.040 -0.4198  0.0439 -0.1316
18025TIP3    H175490   6.429   5.132   1.088 -0.8627  1.1219  1.6195
18025TIP3    H275491   6.321   5.116   0.984  0.3548 -1.1637  0.6645
18026TIP3   OH275492   5.924   5.294  11.094 -0.0184  0.1647  0.7728
18026TIP3    H175493   5.911   5.199  11.089 -0.3067  0.3200 -1.7418
18026TIP3    H275494   6.018   5.306  11.081  0.1283  0.2069  1.7823
18027TIP3   OH275495   0.619   3.211   2.726  0.0690  0.4408  0.4018
18027TIP3    H175496   0.638   3.119   2.748 -1.0642  0.3649  1.1068
18027TIP3    H275497   0.530   3.209   2.690  0.8597  0.9634 -1.6214
18028TIP3   OH275498   1.175   4.720   2.501 -0.5275  0.4853  0.4386
18028TIP3    H175499   1.107   4.668   2.543 -0.3824 -1.2475 -1.4221
18028TIP3    H275500   1.132   4.804   2.481 -2.0565 -0.5042 -0.5056
18029TIP3   OH275501   4.573   4.214   2.605 -0.4741  0.1055 -0.0221
18029TIP3    H175502   4.522   4.187   2.528  0.6966 -0.5192 -0.5934
18029TIP3    H275503   4.508   4.245   2.667 -1.7644 -2.5681  0.0498
18030TIP3   OH275504   0.015   1.999   4.759  0.5197  0.0193 -0.7089
18030TIP3    H175505   0.064   2.059   4.704  0.9918 -0.3734 -0.7162
18030TIP3    H275506  -0.030   1.941   4.698  0.9240 -0.3208 -0.6836
18031TIP3   OH275507   1.108   1.648   0.821  0.4438  0.3702  0.0635
18031TIP3    H175508   1.059   1.723   0.788 -0.3471 -0.4168 -0.5544
18031TIP3    H275509   1.078   1.574   0.769  0.0115 -0.6847  1.7746
18032TIP3   OH275510   0.390   0.369   1.523 -0.0538  0.2904  0.0296
18032TIP3    H175511   0.424   0.447   1.567  2.0059 -0.4572 -0.1485
18032TIP3    H275512   0.321   0.336   1.581  3.6003 -1.5426  3.6181
18033TIP3   OH275513   4.857   0.154  14.206  0.1408 -0.5006  0.2312
18033TIP3    H175514   4.885   0.113  14.288 -0.7410 -0.5818  0.4921
18033TIP3    H275515   4.866   0.085  14.141  0.9440 -0.4075  0.2339
18034TIP3   OH275516   2.692   0.716   4.279 -0.8101  0.2513 -0.4987
18034TIP3    H175517   2.650   0.674   4.204  0.5583 -1.2862 -0.4318
18034TIP3    H275518   2.727   0.798   4.244 -1.2448  0.1167 -1.2586
18035TIP3   OH275519   6.785   1.020   0.920 -0.0806 -0.2752  0.3856
18035TIP3    H175520   6.826   1.064   0.846  0.8281  1.3342  1.7943
18035TIP3    H275521   6.794   0.927   0.902  1.4823  0.0943 -0.7957
18036TIP3   OH275522   6.094   6.197   3.346 -0.3155  0.1844  0.1195
18036TIP3    H175523   6.121   6.117   3.300  0.2653  1.5138 -1.9127
18036TIP3    H275524   6.005   6.213   3.317 -0.2991  0.4769  0.2295
18037TIP3   OH275525   3.084   0.050  17.126 -0.5560 -0.1437 -0.0668
18037TIP3    H175526   3.079  -0.029  17.180 -0.4559 -0.9725 -1.2523
18037TIP3    H275527   3.100   0.120  17.189 -0.3982 -1.0904  0.9829
18038TIP3   OH275528   2.539   5.616   4.563 -0.5977  0.3697  0.0793
18038TIP3    H175529   2.510   5.629   4.653 -0.1233 -1.2881  0.5000
18038TIP3    H275530   2.591   5.693   4.542  1.6929 -0.5042  2.2308
18039TIP3   OH275531   2.137   4.094  11.820  0.4049 -0.4623  0.4725
18039TIP3    H175532   2.208   4.043  11.859  1.8465  1.2009  0.0911
18039TIP3    H275533   2.082   4.029  11.777  0.4752 -2.0175  2.6003
18040TIP3   OH275534   3.890   3.551   0.110  0.1204 -0.1740 -0.6198
18040TIP3    H175535   3.794   3.548   0.109  0.1051 -1.4634  1.2195
18040TIP3    H275536   3.917   3.493   0.038 -0.4891 -0.9128 -0.2591
18041TIP3   OH275537   3.887   5.055   0.334  0.2555  0.0250 -0.5779
18041TIP3    H175538   3.850   4.972   0.302  0.0274  0.3681 -1.2255
18041TIP3    H275539   3.876   5.051   0.429  3.2508 -2.1251 -0.2549
18042TIP3   OH275540   2.645   0.490  13.309  0.7350  0.5840 -0.7519
18042TIP3    H175541   2.612   0.578  13.290  0.4088  1.0455  1.7801
18042TIP3    H275542   2.721   0.505  13.365  0.1873 -0.7699  0.3695
18043TIP3   OH275543   5.406   6.496  11.871 -0.2243 -0.4735 -0.5925
18043TIP3    H175544   5.423   6.586  11.844 -0.9043  0.1351  0.9439
18043TIP3    H275545   5.469   6.444  11.822  1.2862  1.0087 -0.2508
18044TIP3   OH275546   2.100   0.923  13.038 -0.4308  0.0534 -0.4077
18044TIP3    H175547   2.169   0.984  13.065 -0.1167  0.1059 -1.3164
18044TIP3    H275548   2.053   0.902  13.119  2.7421 -2.6408  0.8347
18045TIP3   OH275549   4.275   6.728  16.084 -0.2259  0.0627  0.1734
18045TIP3    H175550   4.191   6.768  16.109 -0.5660  0.5728 -1.7149
18045TIP3    H275551   4.298   6.673  16.158 -2.2824 -0.1432  0.6818
18046TIP3   OH275552   5.131   3.479   5.386  0.4678  0.3531  0.3697
18046TIP3    H175553   5.143   3.453   5.477  2.6513 -0.7959 -0.2011
18046TIP3    H275554   5.183   3.559   5.377  0.9087  0.0241 -0.0515
18047TIP3   OH275555   3.220   1.544  15.113 -0.4052 -0.0630  0.3217
18047TIP3    H175556   3.246   1.588  15.194  0.3584  0.9843 -0.4808
18047TIP3    H275557   3.291   1.481  15.097 -0.0435  0.4453 -0.0766
18048TIP3   OH275558   5.868   6.447   1.162  0.4068  0.1466 -0.2477
18048TIP3    H175559   5.908   6.527   1.128 -0.9526  0.1173 -2.0255
18048TIP3    H275560   5.796   6.477   1.217  2.7104  0.1972  2.8307
18049TIP3   OH275561   1.312   6.372   4.921  0.7470  0.6608 -0.3086
18049TIP3    H175562   1.384   6.434   4.929 -0.3117  1.9077 -0.2764
18049TIP3    H275563   1.346   6.302   4.865  2.2135  0.8586  0.3244
18050TIP3   OH275564   3.653   0.440   0.114  0.0406 -0.2178  0.0140
18050TIP3    H175565   3.631   0.354   0.078 -1.3430 -0.1699  0.6985
18050TIP3    H275566   3.678   0.422   0.205  2.0501 -0.1629 -0.5139
18051TIP3   OH275567   1.158   0.285   3.267 -0.0077  0.3513 -0.6449
18051TIP3    H175568   1.192   0.269   3.179 -0.0110  0.7587 -0.7213
18051TIP3    H275569   1.183   0.207   3.317  0.6041  0.4343 -0.8236
18052TIP3   OH275570   0.570   5.082   3.492 -0.0645  0.2639 -1.1902
18052TIP3    H175571   0.484   5.123   3.478 -1.0169 -0.4800  1.9938
18052TIP3    H275572   0.612   5.139   3.557 -0.0104 -1.8162  0.6604
18053TIP3   OH275573   1.268   1.789   5.540 -0.0951  0.1231 -0.0462
18053TIP3    H175574   1.264   1.882   5.562  1.5183  0.2031 -0.0685
18053TIP3    H275575   1.338   1.754   5.595  1.3657 -0.4510 -2.1987
18054TIP3   OH275576   2.327   0.125  14.465  0.1631  0.1385 -0.3640
18054TIP3    H175577   2.310   0.049  14.520 -1.1482  0.5563 -0.1956
18054TIP3    H275578   2.423   0.129  14.460  0.2515 -1.4828 -0.3353
18055TIP3   OH275579   5.351   6.768  13.401  0.0433  0.6780  0.0075
18055TIP3    H175580   5.274   6.714  13.418  0.2566  0.5586  0.6050
18055TIP3    H275581   5.344   6.791  13.309  1.0979 -2.1678 -0.8239
18056TIP3   OH275582   6.766   1.961   5.025 -0.0560  0.1854  0.5017
18056TIP3    H175583   6.756   1.975   4.931 -1.8562 -1.1516  0.4681
18056TIP3    H275584   6.822   2.033   5.054 -0.4853  1.3078 -1.3760
18057TIP3   OH275585   1.306   6.467  13.961  0.2679  0.4277  0.3062
18057TIP3    H175586   1.345   6.520  13.891  0.2545 -1.2731 -1.0218
18057TIP3    H275587   1.213   6.488  13.958  0.5145  1.6528  0.9698
18058TIP3   OH275588   3.906   4.803   4.857 -0.4012 -0.3336  0.1435
18058TIP3    H175589   3.937   4.733   4.799  1.5592  1.8685 -1.5490
18058TIP3    H275590   3.938   4.778   4.943  2.7481 -0.1634 -0.9162
18059TIP3   OH275591   5.390   3.087  14.030  0.3721  0.1611 -0.8998
18059TIP3    H175592   5.462   3.034  14.065 -0.5500 -0.5410 -0.0272
18059TIP3    H275593   5.366   3.144  14.103 -0.3590 -0.0412 -0.9837
18060TIP3   OH275594   3.318   2.833   6.553  0.4464  0.1356 -0.0327
18060TIP3    H175595   3.363   2.902   6.602 -0.4255 -0.2251  1.3068
18060TIP3    H275596   3.237   2.875   6.522  0.7089  0.1896 -0.6448
18061TIP3   OH275597   4.147   0.219   4.178  0.6806  0.2483 -0.4065
18061TIP3    H175598   4.242   0.228   4.187  0.7140  0.3838 -0.9195
18061TIP3    H275599   4.121   0.169   4.256  1.2005  0.0126 -0.3789
18062TIP3   OH275600   2.732   1.500   3.402 -0.4933 -0.5966  0.5302
18062TIP3    H175601   2.682   1.454   3.335  0.1046 -0.9035  0.2964
18062TIP3    H275602   2.683   1.581   3.417 -1.4839 -1.2525  0.8637
18063TIP3   OH275603   1.240   0.783   2.520  0.0392  0.0115 -0.1030
18063TIP3    H175604   1.266   0.804   2.610  0.8408  0.9383 -0.5500
18063TIP3    H275605   1.149   0.756   2.528  0.3322 -0.6707  1.0997
18064TIP3   OH275606   4.342   1.562   0.052 -0.0461  0.0549 -0.1031
18064TIP3    H175607   4.261   1.519   0.082  0.5389 -0.5041  0.7179
18064TIP3    H275608   4.336   1.651   0.088  0.9597 -0.8066  2.3468
18065TIP3   OH275609   0.355   6.427   0.028 -0.3264 -0.2345 -0.6497
18065TIP3    H175610   0.375   6.456  -0.061 -1.6431  1.6001 -0.3864
18065TIP3    H275611   0.265   6.457   0.043 -0.0347 -0.3173  1.3780
18066TIP3   OH275612   1.436   3.703  14.877 -0.2774 -0.3795 -0.2617
18066TIP3    H175613   1.480   3.653  14.946 -0.1296 -1.0635 -0.8573
18066TIP3    H275614   1.482   3.787  14.876  1.4583 -1.3142 -1.3182
18067TIP3   OH275615   5.951   6.127   4.119 -0.1500 -0.3429  0.3848
18067TIP3    H175616   6.008   6.180   4.064 -1.0597  0.2781  0.0239
18067TIP3    H275617   5.943   6.177   4.201  1.0910 -1.1989  1.0536
18068TIP3   OH275618   4.812   2.815  16.410  0.2125  0.3877 -0.2241
18068TIP3    H175619   4.757   2.737  16.423 -0.3092  0.7553 -0.2400
18068TIP3    H275620   4.755   2.889  16.430  1.4918  0.6808  2.5739
18069TIP3   OH275621   6.008   3.361   2.865  0.1720  0.1429 -0.0430
18069TIP3    H175622   6.021   3.312   2.947  0.4149  1.6874  0.8718
18069TIP3    H275623   6.097   3.370   2.829 -0.0373 -1.3450 -0.9826
18070TIP3   OH275624   4.468   2.382   2.656 -0.1852 -0.7158  0.4271
18070TIP3    H175625   4.401   2.449   2.640 -0.2876 -0.6614  1.0700
18070TIP3    H275626   4.419   2.302   2.671 -0.0636 -0.9230 -0.2781
18071TIP3   OH275627   6.698   5.440  15.915  0.2156  0.1008  0.3616
18071TIP3    H175628   6.726   5.394  15.835 -0.3050 -1.4214  1.0330
18071TIP3    H275629   6.772   5.430  15.975 -1.3286 -3.2053  1.8408
18072TIP3   OH275630   1.249   0.221   2.394  0.3413  0.2170 -0.0520
18072TIP3    H175631   1.240   0.172   2.313 -0.7829  0.1763  0.0909
18072TIP3    H275632   1.340   0.249   2.395  0.5228 -0.3184 -1.0183
18073TIP3   OH275633   5.201   1.556   5.451  0.1552  0.3303  0.2813
18073TIP3    H175634   5.208   1.516   5.537 -0.7155 -0.7822 -0.1551
18073TIP3    H275635   5.110   1.587   5.447  0.0339 -0.1116 -0.4407
18074TIP3   OH275636   0.088   3.864  12.788 -0.4516  0.4702 -0.2063
18074TIP3    H175637   0.112   3.843  12.879 -1.0584 -1.2334 -0.4205
18074TIP3    H275638   0.172   3.880  12.745 -0.0582 -0.1222  0.3192
18075TIP3   OH275639   3.795   5.839  10.888 -0.6672  0.1060 -0.7205
18075TIP3    H175640   3.830   5.896  10.820  0.5633  0.5095  0.2306
18075TIP3    H275641   3.852   5.855  10.964 -0.1944 -2.5403 -0.4998
18076TIP3   OH275642   5.216   4.274   1.919 -0.2629 -0.3047 -0.7950
18076TIP3    H175643   5.176   4.302   1.836 -0.1969 -0.9074 -1.0365
18076TIP3    H275644   5.276   4.345   1.942 -1.1970  0.4373 -0.6192
18077TIP3   OH275645   3.972   0.884   2.684  0.3758 -0.2840  0.1675
18077TIP3    H175646   3.951   0.808   2.739  1.8332 -0.3474  0.6640
18077TIP3    H275647   4.061   0.907   2.709  0.5685  0.5219 -1.2276
18078TIP3   OH275648   1.885   2.406  14.885  0.5028  0.1003  0.8264
18078TIP3    H175649   1.823   2.347  14.927 -0.0205  0.5622  0.7177
18078TIP3    H275650   1.958   2.412  14.946  1.0358 -1.4837  0.3552
18079TIP3   OH275651   1.118   5.140  11.655 -0.2188 -0.0542  0.5159
18079TIP3    H175652   1.122   5.194  11.577 -0.4870 -1.7477 -0.7009
18079TIP3    H275653   1.127   5.201  11.728  2.3189  1.3304 -0.8792
18080TIP3   OH275654   1.517   6.619  14.248 -0.5783  0.1210 -1.1391
18080TIP3    H175655   1.553   6.649  14.165  1.2354  0.4121 -0.2758
18080TIP3    H275656   1.528   6.693  14.308  2.8281 -1.6991  0.6732
18081TIP3   OH275657   3.408   0.078   5.489  0.2532  0.1463 -0.3284
18081TIP3    H175658   3.370   0.030   5.563  1.7472  1.6490  1.4789
18081TIP3    H275659   3.493   0.035   5.475  1.3262  1.7815  0.8996
18082TIP3   OH275660   5.425   0.297   1.920 -0.3823 -1.5495  0.3547
18082TIP3    H175661   5.378   0.374   1.954 -0.9004 -1.7924  0.1997
18082TIP3    H275662   5.355   0.236   1.894  0.0098 -2.8609  2.2510
18083TIP3   OH275663   1.160   0.124   3.679  0.0827  0.1445  0.4656
18083TIP3    H175664   1.210   0.191   3.632 -1.5162 -0.6598 -2.5624
18083TIP3    H275665   1.140   0.164   3.764  2.3836  2.0024  0.1708
18084TIP3   OH275666   1.274   1.982  14.281 -0.0853 -0.4972  0.7104
18084TIP3    H175667   1.268   1.897  14.326  1.5309 -1.1234 -0.2120
18084TIP3    H275668   1.208   1.977  14.212 -0.9440 -0.4524  1.5152
18085TIP3   OH275669   2.464   5.254   1.973  0.7051  0.5190 -0.2518
18085TIP3    H175670   2.431   5.291   2.054 -1.0825  0.1513 -0.7907
18085TIP3    H275671   2.536   5.312   1.948 -0.2440  1.9915  0.3766
18086TIP3   OH275672   2.521   4.405   4.988 -0.3006  0.2394  0.8645
18086TIP3    H175673   2.515   4.338   4.920 -0.0483  1.0678  0.0009
18086TIP3    H275674   2.602   4.384   5.035  0.6546  0.8760 -0.4508
18087TIP3   OH275675   0.285   0.590   3.747  0.1292 -0.1961 -0.0298
18087TIP3    H175676   0.258   0.506   3.785  2.0829 -0.9239 -0.2211
18087TIP3    H275677   0.380   0.591   3.755  0.1475  1.9463 -0.1853
18088TIP3   OH275678   5.726   3.529   3.175  0.0505 -0.0031  0.3074
18088TIP3    H175679   5.789   3.458   3.181  0.2539  0.1991  0.5506
18088TIP3    H275680   5.674   3.522   3.255  0.4206  0.4562  0.5873
18089TIP3   OH275681   1.444   2.306  11.739 -0.2892 -0.1813 -0.0510
18089TIP3    H175682   1.356   2.318  11.775 -0.1778 -2.1982  0.9495
18089TIP3    H275683   1.434   2.236  11.675  0.7305 -0.8798  0.5620
18090TIP3   OH275684   2.753   3.447  13.508  0.1204 -0.5536  0.5158
18090TIP3    H175685   2.728   3.468  13.418  0.5593 -0.1552  0.4812
18090TIP3    H275686   2.820   3.379  13.499  0.3997 -0.2810  0.5256
18091TIP3   OH275687   1.903   1.335   5.295 -0.3620 -0.4864  0.3068
18091TIP3    H175688   1.900   1.430   5.305 -0.0960 -0.5944  1.3613
18091TIP3    H275689   1.813   1.312   5.271 -0.8160 -0.1554  1.6659
18092TIP3   OH275690   3.476   1.636   1.272 -0.0654 -0.2284 -0.4649
18092TIP3    H175691   3.461   1.606   1.362  1.4339 -0.0547 -0.1586
18092TIP3    H275692   3.410   1.705   1.259  0.7790  0.8968  1.0637
18093TIP3   OH275693   0.021   1.484  15.699 -0.4151 -0.1559 -0.3137
18093TIP3    H175694   0.086   1.553  15.687 -0.6945 -0.0199 -1.0892
18093TIP3    H275695  -0.057   1.530  15.732  0.5549 -0.6163  2.7657
18094TIP3   OH275696   5.635   5.738   1.076 -0.4444 -0.1586  0.0563
18094TIP3    H175697   5.689   5.792   1.134  1.7421  0.0257 -2.0401
18094TIP3    H275698   5.628   5.654   1.121  1.4003 -0.0866  0.5335
18095TIP3   OH275699   4.585   5.191  14.851 -0.8480 -0.8378  0.1824
18095TIP3    H175700   4.503   5.170  14.894 -0.6713 -1.9922 -0.0321
18095TIP3    H275701   4.564   5.192  14.757 -1.4652  2.6887  0.2911
18096TIP3   OH275702   1.466   1.638   2.940  0.1244  0.1275  0.3464
18096TIP3    H175703   1.401   1.635   3.010 -0.6593  1.3492 -0.3093
18096TIP3    H275704   1.438   1.570   2.879  1.9569 -2.3419  2.1603
18097TIP3   OH275705   2.662   3.164   6.026 -0.2137  0.4775  0.7027
18097TIP3    H175706   2.588   3.154   5.967 -0.4096 -0.7836  1.1653
18097TIP3    H275707   2.719   3.089   6.007  2.3791  2.9172 -1.6820
18098TIP3   OH275708   2.330   2.345   0.008  0.0857 -0.1510 -0.6386
18098TIP3    H175709   2.381   2.344   0.090 -0.2326  1.1528 -0.4115
18098TIP3    H275710   2.245   2.309   0.032  0.0488  0.0740 -0.4209
18099TIP3   OH275711   5.406   2.650   0.404  0.8001 -0.2908 -0.4581
18099TIP3    H175712   5.340   2.690   0.461  0.3269  0.9806 -1.8667
18099TIP3    H275713   5.357   2.587   0.352  0.9163 -0.2177 -0.6560
18100TIP3   OH275714   5.022   6.782  14.373 -0.3573 -0.4052 -0.2921
18100TIP3    H175715   5.100   6.789  14.427 -0.1944 -1.6269 -0.3639
18100TIP3    H275716   4.953   6.753  14.433 -0.8335  0.9300 -0.1713
18101TIP3   OH275717   1.599   1.467   5.464  0.4739 -0.7307  0.3232
18101TIP3    H175718   1.626   1.489   5.375 -0.3713 -3.0901 -0.5393
18101TIP3    H275719   1.508   1.496   5.470  1.0296  0.9618  1.0038
18102TIP3   OH275720   3.252   0.321   2.999 -0.0161  0.0944 -0.2761
18102TIP3    H175721   3.192   0.301   3.071  1.2973 -0.3814  0.7076
18102TIP3    H275722   3.285   0.409   3.018  1.0461 -0.4003  0.2236
18103TIP3   OH275723   1.188   4.409   0.155 -0.3381 -0.1487 -0.2882
18103TIP3    H175724   1.203   4.350   0.229  0.3101 -2.3667 -2.1256
18103TIP3    H275725   1.164   4.352   0.082 -1.4788  2.0200 -1.6959
18104TIP3   OH275726   6.534   3.510  13.376 -0.4899 -0.2461 -0.4097
18104TIP3    H175727   6.582   3.429  13.395 -0.1142 -0.4488 -2.1519
18104TIP3    H275728   6.501   3.539  13.461  2.1207 -0.4904  0.7256
18105TIP3   OH275729   0.007   6.652  13.243  0.5778  0.1438 -0.3951
18105TIP3    H175730   0.004   6.656  13.147  0.6267  2.3597 -0.3286
18105TIP3    H275731   0.068   6.722  13.267  0.0374  0.0424  1.2820
18106TIP3   OH275732   6.335   1.123   4.004  0.4714 -0.3696  0.1696
18106TIP3    H175733   6.418   1.153   4.041  0.1882 -1.9932  2.2155
18106TIP3    H275734   6.269   1.182   4.040  0.6506  0.5359 -0.9649
18107TIP3   OH275735   3.555   0.326  13.831 -0.0130 -0.1075 -0.3351
18107TIP3    H175736   3.480   0.330  13.889 -0.4951  0.8082 -1.0149
18107TIP3    H275737   3.519   0.332  13.743  0.9596  2.3243 -0.6254
18108TIP3   OH275738   1.645   4.078  17.085  0.2281 -0.4895  0.0796
18108TIP3    H175739   1.594   4.140  17.137  0.6841 -0.3182  0.3169
18108TIP3    H275740   1.735   4.109  17.091  0.3910 -0.9047 -0.1888
18109TIP3   OH275741   3.673   0.650  16.845 -0.0161 -0.1560 -0.1789
18109TIP3    H175742   3.648   0.725  16.899 -0.0162 -0.0446 -0.3311
18109TIP3    H275743   3.707   0.586  16.907 -0.2168 -0.1113 -0.0227
18110TIP3   OH275744   4.643   4.004  14.994  0.2154 -0.2070 -0.1219
18110TIP3    H175745   4.735   3.979  14.982  0.4943  0.9136 -0.3372
18110TIP3    H275746   4.641   4.098  14.975 -0.9766 -0.2297 -0.1164
18111TIP3   OH275747   1.067   2.986  15.691 -0.4399  0.0785  0.0419
18111TIP3    H175748   1.103   3.047  15.755 -0.0436 -0.6722  0.5432
18111TIP3    H275749   1.039   3.041  15.618  1.2632  0.7249 -0.1416
18112TIP3   OH275750   1.951   1.188   3.738  0.1076 -0.1953 -0.3272
18112TIP3    H175751   1.952   1.258   3.672  2.8311  0.4290  0.2993
18112TIP3    H275752   1.984   1.230   3.817  1.3685 -2.0841  0.1771
18113TIP3   OH275753   5.152   4.963   4.134 -0.1744 -0.0046  0.2428
18113TIP3    H175754   5.073   4.919   4.165 -0.1598 -0.3138 -0.1547
18113TIP3    H275755   5.162   5.038   4.192  0.3941 -1.1292  1.6330
18114TIP3   OH275756   0.143   2.495  13.612  0.1422 -0.0317  0.5616
18114TIP3    H175757   0.231   2.506  13.648  0.7967 -1.1710 -0.6605
18114TIP3    H275758   0.102   2.429  13.668  0.7501 -0.9326 -0.0407
18115TIP3   OH275759   1.373   5.518  10.776 -0.4485  0.3110  0.8883
18115TIP3    H175760   1.375   5.451  10.844 -1.9755 -1.1260 -0.4442
18115TIP3    H275761   1.306   5.488  10.714 -0.1868  2.3699 -0.4473
18116TIP3   OH275762   1.578   0.480  14.637  0.5118 -0.6443 -0.1302
18116TIP3    H175763   1.625   0.557  14.606 -1.6842  0.2105 -1.4271
18116TIP3    H275764   1.626   0.452  14.715  1.9658  1.3910 -0.2683
18117TIP3   OH275765   6.233   1.141  12.050 -0.0415 -0.5269 -0.0626
18117TIP3    H175766   6.319   1.130  12.008 -0.7754 -2.4683 -1.1065
18117TIP3    H275767   6.252   1.136  12.144  1.2273  0.8926 -0.2243
18118TIP3   OH275768   0.604   1.044   6.703 -0.1853 -0.7448  0.0001
18118TIP3    H175769   0.610   1.139   6.692  1.2354 -1.0652 -2.3496
18118TIP3    H275770   0.517   1.029   6.740  0.4121  1.6115  2.5472
18119TIP3   OH275771   3.280   5.065   5.737  0.5419  0.0440  0.2361
18119TIP3    H175772   3.326   5.062   5.821 -0.8389  2.4646  1.1352
18119TIP3    H275773   3.233   4.981   5.733  1.1897 -0.3917  1.5612
18120TIP3   OH275774   0.150   3.087   2.869  0.5875 -0.1630  0.0114
18120TIP3    H175775   0.063   3.083   2.828  0.9369  0.8958 -0.8427
18120TIP3    H275776   0.211   3.069   2.797  1.1301  0.0755  0.4115
18121TIP3   OH275777   5.190   1.514  17.087  0.3293 -0.1996  0.2147
18121TIP3    H175778   5.115   1.570  17.108  0.2202 -0.3741  0.3002
18121TIP3    H275779   5.178   1.492  16.995  0.9187  0.7352 -0.0797
18122TIP3   OH275780   1.939   1.510   1.290 -0.1615  0.4432 -0.3172
18122TIP3    H175781   1.912   1.421   1.313 -0.6483  1.0809  1.7496
18122TIP3    H275782   1.918   1.518   1.197 -1.3714 -1.1490 -0.2183
18123TIP3   OH275783   2.625   5.258   2.677  0.1003  0.3770  0.0959
18123TIP3    H175784   2.708   5.259   2.630  0.3324  1.1149  0.5168
18123TIP3    H275785   2.586   5.173   2.655  1.2852 -0.2730  0.4563
18124TIP3   OH275786   4.069   4.945   2.121 -0.3844  0.0072  0.1296
18124TIP3    H175787   3.997   4.951   2.058 -1.0178  0.0476  0.8433
18124TIP3    H275788   4.145   4.920   2.069 -0.7381  0.7764 -0.7619
18125TIP3   OH275789   6.477   1.619  12.245 -0.4957 -0.5207  0.5644
18125TIP3    H175790   6.431   1.690  12.289 -0.1098 -0.2361  0.5130
18125TIP3    H275791   6.570   1.640  12.256 -0.3865 -0.7345  0.0902
18126TIP3   OH275792   3.862   0.212  16.730 -0.0582 -0.1198  0.1064
18126TIP3    H175793   3.830   0.204  16.820  1.2014 -0.6948  0.5122
18126TIP3    H275794   3.811   0.148  16.681 -0.4388 -0.1129  0.4825
18127TIP3   OH275795   3.325   3.985  10.904 -0.4767 -0.0422  0.1809
18127TIP3    H175796   3.302   3.897  10.931  0.0268 -0.9166 -2.1493
18127TIP3    H275797   3.411   4.001  10.943 -0.6077 -0.5255  0.6735
18128TIP3   OH275798   5.845   4.281   2.121  0.1599  0.1995 -0.4742
18128TIP3    H175799   5.894   4.198   2.129  0.3319  0.2751 -0.7110
18128TIP3    H275800   5.880   4.336   2.191  0.8832  0.4820 -1.0440
18129TIP3   OH275801   6.181   5.818   0.839 -0.0367  0.6702  0.4486
18129TIP3    H175802   6.209   5.910   0.832  0.0916  0.5644 -0.5839
18129TIP3    H275803   6.096   5.822   0.884  0.6599  1.1642  1.7380
18130TIP3   OH275804   5.519   6.334   5.095 -0.3159  0.4117  0.1977
18130TIP3    H175805   5.502   6.240   5.101 -1.1244  0.5992  1.0156
18130TIP3    H275806   5.433   6.372   5.081  0.0958  0.9833 -0.8097
18131TIP3   OH275807   6.028   2.045  11.998 -0.6145  0.1017 -0.6203
18131TIP3    H175808   6.115   2.066  11.966  0.3372 -0.1813  1.6893
18131TIP3    H275809   6.028   1.950  12.009 -0.1613  0.4011  2.2548
18132TIP3   OH275810   4.554   0.083   5.360  0.0930 -0.6056  1.0481
18132TIP3    H175811   4.626   0.100   5.421 -0.2626  0.0367  1.3059
18132TIP3    H275812   4.571   0.141   5.286  0.0596 -0.7444  0.9320
18133TIP3   OH275813   2.348   0.879  13.232  0.2047 -0.0253  0.7167
18133TIP3    H175814   2.309   0.809  13.285 -0.9461 -0.9113 -1.2111
18133TIP3    H275815   2.294   0.955  13.249 -0.0076 -0.2351  0.9955
18134TIP3   OH275816   6.661   0.852   1.801  0.5403 -0.3382  0.9137
18134TIP3    H175817   6.602   0.924   1.823  1.3706  0.1736  1.4990
18134TIP3    H275818   6.748   0.884   1.825  1.1439 -0.8164 -0.5776
18135TIP3   OH275819   4.205   4.563   2.106 -0.1413  0.2682 -0.1334
18135TIP3    H175820   4.217   4.468   2.108  2.8020  0.5925  0.2050
18135TIP3    H275821   4.207   4.585   2.013 -0.4330  0.0342 -0.1949
18136TIP3   OH275822   3.008   6.474   2.895  0.2921 -0.9397  0.2798
18136TIP3    H175823   2.966   6.425   2.966 -0.1673 -2.3836 -0.9604
18136TIP3    H275824   2.965   6.441   2.815  0.4504  1.0120 -0.6280
18137TIP3   OH275825   6.413   3.935  11.764  0.1511 -0.2777 -0.5855
18137TIP3    H175826   6.420   3.895  11.677 -1.4475 -1.2366 -0.3024
18137TIP3    H275827   6.319   3.931  11.784  0.6650 -1.1972  1.7073
18138TIP3   OH275828   1.500   2.634  15.629  0.0588 -0.0255  0.4919
18138TIP3    H175829   1.468   2.620  15.540  1.1363 -1.9480  0.3963
18138TIP3    H275830   1.515   2.728  15.634 -1.7871  0.3684 -0.7395
18139TIP3   OH275831   6.382   6.286   2.753  0.1961 -0.1263 -0.2750
18139TIP3    H175832   6.333   6.221   2.702 -1.2798 -0.7616  1.9045
18139TIP3    H275833   6.406   6.240   2.833  3.0922  0.6605 -0.6514
18140TIP3   OH275834   1.514   6.765   4.227  0.4552  0.1738  0.1330
18140TIP3    H175835   1.478   6.690   4.274  0.6472  0.3596  0.5809
18140TIP3    H275836   1.606   6.742   4.211 -0.1654 -0.8339 -2.1119
18141TIP3   OH275837   1.237   2.291   3.622  0.2158  0.3773  0.0190
18141TIP3    H175838   1.329   2.296   3.647  0.3701 -4.3696  0.7443
18141TIP3    H275839   1.238   2.304   3.527  1.3130  2.8299  0.3293
18142TIP3   OH275840   1.741   5.907  12.557 -0.3235  0.2045  0.3159
18142TIP3    H175841   1.739   5.850  12.634 -0.5221  0.2111  0.3169
18142TIP3    H275842   1.668   5.877  12.503  1.2128 -1.3160 -0.9762
18143TIP3   OH275843   3.294   2.930   2.141 -0.6049 -0.0137 -0.5240
18143TIP3    H175844   3.263   2.872   2.210 -1.5257 -0.2483 -1.1185
18143TIP3    H275845   3.268   2.886   2.060  0.6910  0.1278 -1.0265
18144TIP3   OH275846   1.171   0.579  12.600  0.2012 -0.1736  0.1093
18144TIP3    H175847   1.110   0.590  12.527  1.2387  1.6794 -0.5165
18144TIP3    H275848   1.258   0.584  12.560  0.7743 -0.1651  1.3265
18145TIP3   OH275849   2.721   6.754  10.570 -0.5547  0.1933 -0.5725
18145TIP3    H175850   2.722   6.766  10.475  1.6280  2.1337 -0.3642
18145TIP3    H275851   2.678   6.832  10.604 -0.5520 -0.0829  0.0723
18146TIP3   OH275852   1.364   1.413  15.400 -0.5361  0.0992 -0.2567
18146TIP3    H175853   1.294   1.367  15.447 -0.5357 -0.4092 -0.7570
18146TIP3    H275854   1.346   1.398  15.308 -1.8472  3.0441 -0.5211
18147TIP3   OH275855   1.955   0.523   2.631  0.8179  0.2543 -0.0882
18147TIP3    H175856   1.939   0.617   2.636 -0.7683  0.0058 -0.3729
18147TIP3    H275857   1.947   0.502   2.538 -1.7263 -0.6495  0.3129
18148TIP3   OH275858   1.210   0.501   1.564  0.1939 -0.3382  0.0440
18148TIP3    H175859   1.176   0.549   1.640 -0.2684 -1.7906  0.7613
18148TIP3    H275860   1.277   0.559   1.528 -2.1918  2.0560 -0.7042
18149TIP3   OH275861   5.385   4.503   1.880  0.5051 -0.0515  1.2319
18149TIP3    H175862   5.375   4.481   1.787 -0.1234 -1.6405  1.6628
18149TIP3    H275863   5.459   4.564   1.882  1.9394 -1.7035 -0.0913
18150TIP3   OH275864   0.713   5.622   3.727 -0.0432 -0.4654 -0.0151
18150TIP3    H175865   0.706   5.663   3.641  1.1749  0.9099  0.5153
18150TIP3    H275866   0.652   5.670   3.782 -0.1542 -0.7469  0.1109
18151TIP3   OH275867   2.404   0.139   0.918  0.2126  0.2532 -0.6652
18151TIP3    H175868   2.452   0.066   0.959 -0.9713 -0.2021 -0.0594
18151TIP3    H275869   2.355   0.178   0.989  0.2938  1.2147 -1.1357
18152TIP3   OH275870   2.044   4.381  16.210 -0.0331 -0.2301 -0.4933
18152TIP3    H175871   1.982   4.320  16.251 -1.9937  2.5838  0.8978
18152TIP3    H275872   2.130   4.352  16.241 -0.9400 -2.1680  0.2812
18153TIP3   OH275873   4.906   5.505  16.936  0.4522  0.3487 -0.0814
18153TIP3    H175874   4.957   5.577  16.972  0.8438 -0.4977  1.0847
18153TIP3    H275875   4.903   5.440  17.006 -0.4832 -0.4796 -0.8691
18154TIP3   OH275876   6.246   6.135  13.712 -0.2931 -0.0198 -0.4597
18154TIP3    H175877   6.325   6.138  13.659  1.1238  1.2463  1.6645
18154TIP3    H275878   6.227   6.042  13.721  2.1013 -0.4333  0.6455
18155TIP3   OH275879   5.129   0.596   3.746 -0.1163  0.3383  0.5353
18155TIP3    H175880   5.049   0.635   3.779 -0.6517  1.1589 -1.6218
18155TIP3    H275881   5.189   0.669   3.734  0.1989  0.0112  0.0863
18156TIP3   OH275882   0.074   1.932   3.154 -0.7488  0.1765 -0.2467
18156TIP3    H175883   0.100   2.007   3.101  0.6694  1.0171  1.5744
18156TIP3    H275884   0.146   1.920   3.216 -2.4271 -0.6316  1.6222
18157TIP3   OH275885   2.695   4.639   4.883  0.0572  0.3562  0.1535
18157TIP3    H175886   2.692   4.543   4.891 -1.4890  0.4755  1.3165
18157TIP3    H275887   2.770   4.665   4.937 -1.0121 -0.0430  1.8868
18158TIP3   OH275888   3.915   3.654   4.323 -0.0602  0.4897  0.2072
18158TIP3    H175889   3.838   3.709   4.328  0.0401  0.5863  0.7121
18158TIP3    H275890   3.914   3.619   4.234 -0.3836  0.9233  0.0406
18159TIP3   OH275891   5.939   3.338   3.410 -0.1916 -0.1989 -0.4726
18159TIP3    H175892   5.901   3.402   3.470  1.4349  0.4828 -0.1228
18159TIP3    H275893   6.026   3.319   3.447 -0.0403 -1.4334 -1.4156
18160TIP3   OH275894   6.242   6.217  16.570 -1.2382 -0.4699  0.0180
18160TIP3    H175895   6.221   6.310  16.562 -2.2709 -0.5857  1.2601
18160TIP3    H275896   6.180   6.173  16.511 -1.5292 -0.4687  0.3267
18161TIP3   OH275897   6.739   4.015  16.323 -0.3325  0.2339 -0.6205
18161TIP3    H175898   6.831   4.008  16.295  0.1483  1.0484  0.7102
18161TIP3    H275899   6.711   4.100  16.291 -0.7581 -0.1742 -1.3572
18162TIP3   OH275900   5.340   6.294  16.266 -0.2987  0.2045 -0.2466
18162TIP3    H175901   5.423   6.310  16.221  0.3029 -1.4787  0.2530
18162TIP3    H275902   5.276   6.284  16.195  0.0470  0.7684 -0.6461
18163TIP3   OH275903   6.272   3.818   2.746 -0.0499 -0.2566  0.1555
18163TIP3    H175904   6.208   3.874   2.703  0.2611  0.8061  1.0588
18163TIP3    H275905   6.341   3.878   2.774  0.8897 -1.2612  0.0271
18164TIP3   OH275906   3.908   5.201   1.099 -0.7787  0.0735 -0.0110
18164TIP3    H175907   3.940   5.188   1.010 -0.0314 -0.1277  0.2772
18164TIP3    H275908   3.830   5.255   1.089 -1.1574 -0.6235 -0.8458
18165TIP3   OH275909   3.513   2.086  16.651 -0.2328  0.2312 -0.1333
18165TIP3    H175910   3.596   2.061  16.610 -0.1821 -1.0067  0.6984
18165TIP3    H275911   3.538   2.142  16.725 -0.1542  0.0580 -0.0284
18166TIP3   OH275912   3.240   3.148  16.321  0.6688  0.2155 -0.6664
18166TIP3    H175913   3.279   3.227  16.283  0.4456  1.2537  1.2232
18166TIP3    H275914   3.247   3.160  16.416 -2.3851 -0.5070 -0.2903
18167TIP3   OH275915   0.273   2.969  10.893  0.0234  0.1598 -0.0244
18167TIP3    H175916   0.327   3.029  10.946  1.0271 -0.5525 -0.2185
18167TIP3    H275917   0.278   2.885  10.940  0.2754 -0.2761 -0.8213
18168TIP3   OH275918   4.441   0.623  10.532 -0.4104  0.7525  0.3582
18168TIP3    H175919   4.390   0.546  10.510 -0.0903  0.6601 -0.0707
18168TIP3    H275920   4.529   0.590  10.550  0.1691  1.1847 -1.5164
18169TIP3   OH275921   1.023   1.779   5.349  0.4296 -0.1131  0.1588
18169TIP3    H175922   1.053   1.870   5.352 -0.0819  0.0684 -0.1095
18169TIP3    H275923   0.931   1.785   5.321  0.3209 -0.6948  0.3818
18170TIP3   OH275924   2.209   2.495  16.692  0.0525 -0.6630 -0.7226
18170TIP3    H175925   2.179   2.477  16.781  0.9008 -0.1262 -0.3166
18170TIP3    H275926   2.138   2.464  16.635  0.2712 -2.6465  0.0515
18171TIP3   OH275927   1.955   5.664  15.310 -0.4506  0.3234  0.0508
18171TIP3    H175928   1.990   5.613  15.237 -0.0830 -0.0634  0.4980
18171TIP3    H275929   1.996   5.750  15.300 -0.9732  0.4984 -0.6289
18172TIP3   OH275930   0.291   1.711   5.019 -0.1813 -0.6179 -0.3336
18172TIP3    H175931   0.301   1.779   5.085 -1.2443 -1.4780  0.7436
18172TIP3    H275932   0.278   1.758   4.937 -0.5587  0.4657  0.3446
18173TIP3   OH275933   4.498   4.573  15.337 -0.0771 -0.1523  0.1413
18173TIP3    H175934   4.410   4.603  15.357 -0.6394 -0.3549 -1.9408
18173TIP3    H275935   4.500   4.482  15.365 -0.0687  0.2675  1.5102
18174TIP3   OH275936   5.460   6.570  11.088 -0.6935  0.3965  0.8904
18174TIP3    H175937   5.493   6.499  11.032 -1.3616 -1.2479  2.5391
18174TIP3    H275938   5.526   6.580  11.156 -0.7421  1.1800  0.8337
18175TIP3   OH275939   0.465   6.465   1.339  0.1069 -0.2396  0.3291
18175TIP3    H175940   0.382   6.507   1.360  0.2659 -0.4339  1.4053
18175TIP3    H275941   0.443   6.373   1.328 -0.1707  0.0469 -1.5884
18176TIP3   OH275942   3.609   3.043   3.768  0.5670  0.0137 -0.6406
18176TIP3    H175943   3.589   3.073   3.679 -0.7206  1.0035 -0.0424
18176TIP3    H275944   3.606   2.947   3.762  1.1039  0.0603 -1.7959
18177TIP3   OH275945   1.249   5.018   0.881  0.3108  0.3265  1.0453
18177TIP3    H175946   1.263   5.039   0.789 -1.0132  2.3217  1.2812
18177TIP3    H275947   1.338   5.008   0.917  0.8283 -0.8616 -0.5086
18178TIP3   OH275948   2.372   0.242  13.449  0.3671 -0.0018 -0.5873
18178TIP3    H175949   2.288   0.249  13.404  0.3249 -0.3657 -0.5610
18178TIP3    H275950   2.388   0.330  13.482 -1.3481 -0.5642  1.8786
18179TIP3   OH275951   1.970   3.018  15.125  0.0194 -0.6825  0.6615
18179TIP3    H175952   1.980   2.955  15.054  0.5121  0.1285  0.0127
18179TIP3    H275953   2.002   3.101  15.089  0.2328 -0.2596  1.8072
18180TIP3   OH275954   2.576   2.301  16.820  0.3695 -0.8963 -0.3645
18180TIP3    H175955   2.502   2.349  16.857  0.2211  0.7311 -2.7012
18180TIP3    H275956   2.652   2.356  16.836  0.4934 -0.7745 -1.3357
18181TIP3   OH275957   4.186   3.130  12.675  0.1885  0.1666  0.4658
18181TIP3    H175958   4.127   3.204  12.665  0.7179  0.7155  1.3930
18181TIP3    H275959   4.257   3.147  12.613 -0.7052 -0.5988 -0.8023
18182TIP3   OH275960   6.754   5.282  11.248 -0.1812 -0.2242  0.4345
18182TIP3    H175961   6.753   5.262  11.342  5.2075 -1.2626  0.4144
18182TIP3    H275962   6.729   5.374  11.244 -1.2211 -0.3471  2.7932
18183TIP3   OH275963   4.062   6.112  16.177 -0.1867  0.0298  0.4866
18183TIP3    H175964   4.059   6.193  16.228  3.1383  0.0632  0.6999
18183TIP3    H275965   4.109   6.135  16.097  0.9031 -1.6965  0.6095
18184TIP3   OH275966   1.590   1.567   0.329  0.1893 -0.1664 -0.7067
18184TIP3    H175967   1.524   1.509   0.367  0.7587  0.6171  1.5339
18184TIP3    H275968   1.551   1.655   0.334  1.4518  0.3353  0.8489
18185TIP3   OH275969   1.773   5.138   1.954  0.2054  0.4570  0.1256
18185TIP3    H175970   1.738   5.090   2.029  2.5832 -1.0797  0.3037
18185TIP3    H275971   1.744   5.088   1.878 -0.9831  1.2017  0.0812
18186TIP3   OH275972   5.651   3.484  14.386 -0.5814  0.1964 -0.1591
18186TIP3    H175973   5.558   3.462  14.384 -0.2636 -1.2999  0.4475
18186TIP3    H275974   5.665   3.536  14.308 -1.9436  0.4668 -0.2379
18187TIP3   OH275975   3.557   2.379  11.167  0.2445  0.7390  0.2470
18187TIP3    H175976   3.644   2.400  11.133  0.9561  0.2910  1.7505
18187TIP3    H275977   3.526   2.307  11.113  1.1492  0.3600  0.2336
18188TIP3   OH275978   3.839   3.004   1.737 -0.1687 -0.1613  0.4149
18188TIP3    H175979   3.823   3.005   1.643  0.9140 -2.2940  0.1708
18188TIP3    H275980   3.819   2.914   1.764 -0.3173  0.3828  2.1929
18189TIP3   OH275981   0.291   5.973  14.114 -0.0275  0.2949  0.5376
18189TIP3    H175982   0.361   5.943  14.056  0.2623 -2.4238  2.1948
18189TIP3    H275983   0.328   6.049  14.160  0.7051  0.7645 -0.7978
18190TIP3   OH275984   3.892   1.116   4.754 -0.3049  0.4482  0.1095
18190TIP3    H175985   3.963   1.181   4.758 -0.6904  0.7673  2.4833
18190TIP3    H275986   3.937   1.032   4.748  0.2775  0.6832  1.1044
18191TIP3   OH275987   4.635   2.961   5.570  0.2247  0.5558 -0.5952
18191TIP3    H175988   4.667   3.029   5.628 -1.2513  0.9505 -0.2027
18191TIP3    H275989   4.696   2.960   5.497  0.8857  1.5356 -0.0631
18192TIP3   OH275990   3.303   5.801  13.365 -0.6496 -0.6082 -0.3049
18192TIP3    H175991   3.243   5.759  13.426  0.4375  0.5513  1.6415
18192TIP3    H275992   3.283   5.895  13.373  0.8964 -0.2730 -0.1816
18193TIP3   OH275993   6.672   5.719   4.692  0.0969 -0.3129  0.0953
18193TIP3    H175994   6.622   5.649   4.651 -0.0618 -0.0023 -0.2464
18193TIP3    H275995   6.718   5.762   4.620  0.2630 -0.1206  0.3121
18194TIP3   OH275996   5.942   3.361  12.326  0.0733 -0.0153 -0.2393
18194TIP3    H175997   6.038   3.362  12.326  0.1411 -2.4015  0.1331
18194TIP3    H275998   5.920   3.268  12.335 -2.2786  0.4022 -1.4076
18195TIP3   OH275999   3.840   2.641   0.253  0.0403 -0.0960  0.3606
18195TIP3    H176000   3.930   2.620   0.280 -0.7267 -1.1517  2.2056
18195TIP3    H276001   3.823   2.726   0.293 -0.0999 -0.3428  0.8361
18196TIP3   OH276002   1.485   3.195  11.724  0.1949 -0.5990 -0.2772
18196TIP3    H176003   1.560   3.193  11.783  0.3123 -1.4006 -0.4557
18196TIP3    H276004   1.471   3.288  11.707  2.6774 -0.5203 -2.1792
18197TIP3   OH276005   6.022   3.221   5.778  0.2544  0.0088  0.2564
18197TIP3    H176006   6.115   3.231   5.760  0.9108 -2.1853  2.2181
18197TIP3    H276007   5.995   3.306   5.814  1.3985  0.7758 -0.6941
18198TIP3   OH276008   0.315   0.426   0.388 -0.4328 -0.0564  0.2016
18198TIP3    H176009   0.273   0.393   0.309 -2.5550  1.0433  0.8341
18198TIP3    H276010   0.407   0.437   0.363 -0.6485 -1.7182 -1.4565
18199TIP3   OH276011   0.266   5.757  17.070 -0.3944 -0.3371 -0.3824
18199TIP3    H176012   0.302   5.745  16.982 -0.9314 -0.8926 -0.5333
18199TIP3    H276013   0.333   5.806  17.118  0.0899 -0.4251 -0.9712
18200TIP3   OH276014   2.901   3.137   4.616 -0.3586 -0.1957 -0.2110
18200TIP3    H176015   2.902   3.154   4.522 -0.0082 -1.4339 -0.4393
18200TIP3    H276016   2.991   3.154   4.645 -0.3953 -0.0983 -0.1530
18201TIP3   OH276017   4.332   1.057  16.093 -0.0201 -0.7572 -0.2660
18201TIP3    H176018   4.424   1.083  16.087  0.2241 -1.5166  0.1262
18201TIP3    H276019   4.334   0.962  16.086 -0.7890 -0.7675 -0.3575
18202TIP3   OH276020   6.352   2.061   0.931  0.4358  0.6497  0.6576
18202TIP3    H176021   6.306   2.042   1.012  0.9328  0.9005  1.0026
18202TIP3    H276022   6.370   1.975   0.892 -0.4560  0.5529  0.4359
18203TIP3   OH276023   3.492   5.604  14.642  0.0003  0.1726  0.1912
18203TIP3    H176024   3.408   5.569  14.611  0.2975  0.0144 -0.4517
18203TIP3    H276025   3.474   5.696  14.661 -0.8761 -0.3840  2.2101
18204TIP3   OH276026   6.403   3.104  12.693  0.2426  0.0353 -1.1655
18204TIP3    H176027   6.389   3.081  12.600 -1.8201 -2.5888 -0.2938
18204TIP3    H276028   6.314   3.114  12.728  0.9862  0.1845  0.7176
18205TIP3   OH276029   4.303   2.490  12.879 -0.3070 -0.6564 -0.6033
18205TIP3    H176030   4.362   2.528  12.944 -0.9419 -2.2817  0.9833
18205TIP3    H276031   4.359   2.437  12.823 -0.2039 -2.0883  0.8197
18206TIP3   OH276032   1.521   2.943   1.996  0.1191  0.1826  0.1380
18206TIP3    H176033   1.508   2.991   2.077  0.7561 -0.3738  0.5829
18206TIP3    H276034   1.616   2.940   1.985  0.0296  0.3962 -0.7141
18207TIP3   OH276035   4.617   1.952  15.940  0.0236  0.1313 -0.1131
18207TIP3    H176036   4.612   1.876  15.998  1.9268 -0.8212 -1.1376
18207TIP3    H276037   4.529   1.988  15.940 -0.8004 -1.8225  0.7398
18208TIP3   OH276038   0.733   3.660  10.569 -0.3196  0.1986  0.3743
18208TIP3    H176039   0.692   3.587  10.615 -1.1929  1.8220  2.2600
18208TIP3    H276040   0.737   3.632  10.478  0.2183 -2.5599  1.1975
18209TIP3   OH276041   6.080   2.762   2.812  0.4510 -0.3600  0.1146
18209TIP3    H176042   6.056   2.714   2.733  0.6351  2.0580 -1.4747
18209TIP3    H276043   6.080   2.696   2.882 -3.8447 -1.7735 -1.0757
18210TIP3   OH276044   0.669   1.792  11.183 -0.4333 -0.1375  0.1622
18210TIP3    H176045   0.634   1.843  11.110 -0.1317 -0.1148  0.0336
18210TIP3    H276046   0.759   1.824  11.193 -1.0634  1.2216  1.7495
18211TIP3   OH276047   5.680   1.598   1.231 -0.1780 -0.0179  0.3158
18211TIP3    H176048   5.585   1.601   1.240 -0.1539  0.4580  0.4322
18211TIP3    H276049   5.712   1.665   1.292  0.0703  2.2301 -2.1820
18212TIP3   OH276050   3.749   4.516   2.052  0.0109 -0.2874  0.1574
18212TIP3    H176051   3.812   4.451   2.019 -1.6142 -1.4336 -0.7784
18212TIP3    H276052   3.701   4.470   2.121 -0.9391  0.0051 -0.2938
18213TIP3   OH276053   4.500   0.500  11.330  0.0140 -0.0798 -0.4253
18213TIP3    H176054   4.592   0.521  11.345 -0.6032  1.0896  1.9080
18213TIP3    H276055   4.471   0.460  11.412 -1.9191  0.8900 -0.6160
18214TIP3   OH276056   4.070   0.957  16.672 -0.3343  0.1978  0.4375
18214TIP3    H176057   4.115   0.895  16.614 -0.5649 -0.5187  1.0288
18214TIP3    H276058   3.988   0.913  16.694  0.5984 -0.3906  2.8930
18215TIP3   OH276059   5.794   3.066   3.340 -0.2764 -0.5701  0.4041
18215TIP3    H176060   5.725   3.102   3.284  1.9240 -0.5209 -2.3999
18215TIP3    H276061   5.840   3.142   3.374 -0.2705 -0.6218  0.5119
18216TIP3   OH276062   2.009   0.554   4.151 -0.3301 -0.2578 -1.1790
18216TIP3    H176063   1.962   0.502   4.217 -0.5292 -0.2850 -1.3404
18216TIP3    H276064   1.941   0.584   4.091 -0.6668  2.8325  0.6467
18217TIP3   OH276065   3.336   5.536   1.593 -0.1264  0.1563  0.0309
18217TIP3    H176066   3.383   5.511   1.672 -0.8131  0.4123  0.5287
18217TIP3    H276067   3.259   5.583   1.625  0.4294  1.6759 -0.8517
18218TIP3   OH276068   3.598   4.289   3.238 -0.1942 -0.0862 -0.5936
18218TIP3    H176069   3.652   4.339   3.177 -0.1865  0.1244 -0.4120
18218TIP3    H276070   3.540   4.354   3.278 -0.6989 -0.3358 -0.9101
18219TIP3   OH276071   1.732   2.318   4.228  0.0975 -0.1465  0.1456
18219TIP3    H176072   1.747   2.407   4.259 -1.6727  0.5838 -1.0256
18219TIP3    H276073   1.809   2.269   4.257  1.7198  2.0562 -0.3439
18220TIP3   OH276074   3.083   3.063  16.917 -0.1882  0.5031 -0.8181
18220TIP3    H176075   3.143   2.990  16.930  0.3407  0.9513 -0.6902
18220TIP3    H276076   3.047   3.049  16.829  1.1661  0.9699 -1.4696
18221TIP3   OH276077   4.207   0.732  11.498 -0.1279 -0.2235 -0.0568
18221TIP3    H176078   4.209   0.765  11.408 -0.7330  0.9999  0.3648
18221TIP3    H276079   4.298   0.711  11.518  0.1243  0.2524 -0.6811
18222TIP3   OH276080   4.572   0.868   0.642  0.4456 -0.2536 -0.0235
18222TIP3    H176081   4.551   0.959   0.662  0.3293 -0.1476 -0.6414
18222TIP3    H276082   4.501   0.838   0.586  0.8082 -0.5427 -0.3279
18223TIP3   OH276083   6.220   4.114  11.576 -0.0291 -0.2827 -0.2957
18223TIP3    H176084   6.207   4.062  11.497  0.2004  0.3279 -0.7413
18223TIP3    H276085   6.132   4.146  11.598 -0.1923 -0.9764  0.0619
18224TIP3   OH276086   0.653   4.523  16.400  0.1759 -0.4195 -0.1942
18224TIP3    H176087   0.741   4.486  16.392  0.8575  1.1983 -0.3329
18224TIP3    H276088   0.630   4.551  16.312 -0.5992 -1.0799 -0.2157
18225TIP3   OH276089   5.894   0.072  14.846  0.7914  0.5505  0.4746
18225TIP3    H176090   5.801   0.082  14.869  0.0647  0.3268 -2.2400
18225TIP3    H276091   5.930   0.161  14.854  0.5398  0.5185  2.2189
18226TIP3   OH276092   5.538   3.723   5.395 -0.3808  0.3735  0.4530
18226TIP3    H176093   5.571   3.717   5.305  1.0566 -0.5466  1.0238
18226TIP3    H276094   5.532   3.817   5.412  0.6943  0.5554 -0.1228
18227TIP3   OH276095   1.012   0.328   4.129  0.2571 -0.1324 -0.4379
18227TIP3    H176096   1.032   0.335   4.036  1.7916  0.5602 -0.0623
18227TIP3    H276097   1.055   0.248   4.158 -0.8004 -0.7255 -0.4483
18228TIP3   OH276098   6.033   1.307  16.534  0.1791 -0.1107  0.3242
18228TIP3    H176099   6.107   1.350  16.490 -2.0397  2.3277 -1.2291
18228TIP3    H276100   6.041   1.334  16.626  1.2313  0.1239  0.1742
18229TIP3   OH276101   0.277   6.356   3.480 -0.6007  0.2445  0.4041
18229TIP3    H176102   0.344   6.373   3.546 -0.4825 -0.5340  0.4949
18229TIP3    H276103   0.301   6.271   3.443  0.6234  1.7038 -2.2760
18230TIP3   OH276104   5.693   5.476  12.787 -0.8540  0.0234 -0.0790
18230TIP3    H176105   5.632   5.479  12.861  0.6602  2.7960  1.1368
18230TIP3    H276106   5.744   5.396  12.800 -1.2486 -0.0043  1.3399
18231TIP3   OH276107   0.221   0.676  16.943  0.5765  0.1117  0.0947
18231TIP3    H176108   0.206   0.652  17.035 -2.1569 -0.1136 -0.3695
18231TIP3    H276109   0.260   0.763  16.947  2.4521 -0.7821  1.5316
18232TIP3   OH276110   1.616   0.218   6.170  0.5175 -0.2563 -0.2420
18232TIP3    H176111   1.577   0.258   6.248  1.3793 -0.4043  0.2817
18232TIP3    H276112   1.705   0.195   6.198 -0.0788 -2.8998 -0.3940
18233TIP3   OH276113   3.835   4.234  13.888 -0.6802 -0.1197 -0.6577
18233TIP3    H176114   3.801   4.316  13.851  1.6964 -0.1820 -3.1451
18233TIP3    H276115   3.844   4.176  13.812 -1.0798 -2.2648  0.8977
18234TIP3   OH276116   4.317   0.995  13.221 -0.8149 -0.3204 -0.0262
18234TIP3    H176117   4.304   1.059  13.151  0.6191  0.8509  0.7465
18234TIP3    H276118   4.331   1.047  13.299  1.3053 -1.5371  0.4554
18235TIP3   OH276119   2.208   4.612  15.962  0.0039 -0.5084 -0.0683
18235TIP3    H176120   2.200   4.517  15.948  1.2668 -0.5029 -0.9097
18235TIP3    H276121   2.297   4.623  15.996  0.9574  0.6648 -2.8132
18236TIP3   OH276122   4.007   0.574  11.239  0.0607  0.0819  0.2271
18236TIP3    H176123   4.002   0.482  11.212 -0.6417 -0.0243  0.7118
18236TIP3    H276124   4.100   0.587  11.260  0.3792 -0.1820 -0.9928
18237TIP3   OH276125   0.311   0.614   0.772 -0.2615  0.0782  0.3753
18237TIP3    H176126   0.285   0.544   0.712  0.0217  2.4087 -2.5712
18237TIP3    H276127   0.406   0.618   0.764  0.0270 -0.9874  2.6807
18238TIP3   OH276128   4.871   1.534   0.421  0.4087 -0.4975  0.1414
18238TIP3    H176129   4.853   1.482   0.342  3.1774 -1.6406  0.2009
18238TIP3    H276130   4.808   1.606   0.417 -1.2578 -2.0003 -1.7220
18239TIP3   OH276131   6.329   6.566   4.919  0.0753  0.4902  0.0581
18239TIP3    H176132   6.243   6.532   4.894 -1.2416  2.5595  1.6587
18239TIP3    H276133   6.323   6.581   5.013  1.8501  1.6556  0.0114
18240TIP3   OH276134   6.050   3.909  13.865 -0.0422  0.1390 -0.6281
18240TIP3    H176135   5.961   3.942  13.855 -1.0988 -2.1678  0.8582
18240TIP3    H276136   6.051   3.826  13.816  0.7832 -0.6697  0.7014
18241TIP3   OH276137   4.024   1.462   5.913  0.6269 -0.2405  0.1899
18241TIP3    H176138   3.976   1.390   5.953 -0.3815 -0.0349 -0.6261
18241TIP3    H276139   4.030   1.438   5.821  2.4843 -0.4726  0.3580
18242TIP3   OH276140   4.515   6.406   2.189  0.3925 -0.3451  0.4534
18242TIP3    H176141   4.549   6.401   2.100  2.2599 -1.3392  1.1983
18242TIP3    H276142   4.473   6.321   2.204  0.5271 -0.3726  0.6879
18243TIP3   OH276143   2.611   3.118   5.352  0.3123  0.6908  0.4678
18243TIP3    H176144   2.593   3.080   5.438  0.5623 -1.0000 -0.2120
18243TIP3    H276145   2.650   3.203   5.372  1.9758 -0.3863  2.0639
18244TIP3   OH276146   0.011   1.335   1.858 -0.1834 -0.0039 -0.5875
18244TIP3    H176147  -0.059   1.270   1.863 -0.5107  0.3536 -0.4541
18244TIP3    H276148  -0.030   1.411   1.816  0.6073 -0.4248 -2.1263
18245TIP3   OH276149   5.451   1.832   5.481 -0.2450  0.0221  0.1667
18245TIP3    H176150   5.466   1.851   5.574  0.3624  0.3697  0.0023
18245TIP3    H276151   5.443   1.737   5.477  1.3305 -0.1359  0.3708
18246TIP3   OH276152   3.395   5.923   5.112 -0.7230  0.2456 -0.5967
18246TIP3    H176153   3.299   5.925   5.107 -0.7294 -1.2410 -1.3546
18246TIP3    H276154   3.422   5.893   5.025  0.3350 -1.2595  0.2353
18247TIP3   OH276155   4.553   4.589  16.482 -0.5858  0.2517  0.3185
18247TIP3    H176156   4.602   4.508  16.471 -1.4543 -0.3452  0.8032
18247TIP3    H276157   4.613   4.648  16.528  0.3805  0.2157 -0.8844
18248TIP3   OH276158   5.301   3.374  11.017  0.1473  0.0412 -0.1475
18248TIP3    H176159   5.312   3.419  10.932  0.4303 -0.7941 -0.5554
18248TIP3    H276160   5.270   3.287  10.994 -0.9785  0.2123  0.6832
18249TIP3   OH276161   4.403   5.370   4.521  0.1025 -0.3505 -0.5727
18249TIP3    H176162   4.385   5.379   4.614  0.6020 -0.7862 -0.4321
18249TIP3    H276163   4.386   5.457   4.485  1.9375  0.3906  0.2742
18250TIP3   OH276164   4.881   3.343   4.817 -0.9733 -0.4568 -0.1272
18250TIP3    H176165   4.846   3.336   4.728  0.2161  1.1926 -0.7541
18250TIP3    H276166   4.908   3.435   4.825  1.9683 -1.3240  0.7578
18251TIP3   OH276167   4.352   5.122   3.873 -0.3912 -0.3250  0.4241
18251TIP3    H176168   4.343   5.026   3.874 -0.2869 -0.3821 -1.5026
18251TIP3    H276169   4.264   5.155   3.888 -0.2092 -0.6849  2.4925
18252TIP3   OH276170   3.289   4.218  15.728 -0.1088 -0.0904  0.5737
18252TIP3    H176171   3.202   4.186  15.752 -0.1952 -0.5710 -0.3461
18252TIP3    H276172   3.328   4.246  15.811 -1.1442  0.1520  0.9908
18253TIP3   OH276173   4.596   5.967  15.542  0.0983 -0.2826 -0.0450
18253TIP3    H176174   4.529   5.899  15.551 -0.2901 -0.0534 -1.1215
18253TIP3    H276175   4.546   6.048  15.529  0.5457  0.2932  1.6748
18254TIP3   OH276176   1.466   1.193  16.033  0.2331 -0.1518 -0.0790
18254TIP3    H176177   1.381   1.151  16.049  0.1398  0.6817  1.6362
18254TIP3    H276178   1.452   1.285  16.056  0.8831  0.5447 -2.2976
18255TIP3   OH276179   3.397   1.101  13.801 -0.2598 -0.3169  0.2102
18255TIP3    H176180   3.360   1.019  13.832  1.3410 -0.4318  1.9310
18255TIP3    H276181   3.453   1.130  13.872 -2.8453  3.6574  0.7741
18256TIP3   OH276182   5.520   1.266  11.008  0.3431 -0.0260  0.1377
18256TIP3    H176183   5.564   1.337  11.054  0.4535 -0.8276  1.3086
18256TIP3    H276184   5.429   1.296  10.999 -0.1229 -0.6237  2.5655
18257TIP3   OH276185   2.556   4.762  14.316  0.5296  0.2745  0.0138
18257TIP3    H176186   2.641   4.770  14.274  0.8082 -0.6512  0.3995
18257TIP3    H276187   2.557   4.829  14.384  0.0161  1.8930 -1.5132
18258TIP3   OH276188   2.894   3.438   3.578  0.1629  0.0546  0.0145
18258TIP3    H176189   2.804   3.437   3.546 -0.0547  0.1740  0.6198
18258TIP3    H276190   2.886   3.447   3.673  0.8235  0.5886  0.0245
18259TIP3   OH276191   5.686   5.744   0.611 -0.2953 -0.4304 -0.9949
18259TIP3    H176192   5.718   5.669   0.663  0.2609  0.2822 -0.3003
18259TIP3    H276193   5.619   5.706   0.554  1.3643 -1.8361 -2.0703
18260TIP3   OH276194   4.507   4.385  16.998  0.3662 -0.6141  0.4491
18260TIP3    H176195   4.548   4.311  16.954  0.3480 -0.8724  0.8685
18260TIP3    H276196   4.570   4.413  17.064  0.7116  0.2502 -0.2395
18261TIP3   OH276197   2.612   3.666   3.459  0.6396 -0.3253 -0.4503
18261TIP3    H176198   2.701   3.676   3.425 -0.1460  1.0283 -2.1713
18261TIP3    H276199   2.583   3.756   3.476 -0.5399 -0.7369 -0.2733
18262TIP3   OH276200   2.626   3.336   3.569  0.4262  0.2420  0.1016
18262TIP3    H176201   2.594   3.405   3.626  0.1747  0.0927  0.1390
18262TIP3    H276202   2.582   3.256   3.598  1.0015 -0.0088  0.3096
18263TIP3   OH276203   2.836   0.138   5.827  0.0443 -0.0777  0.1440
18263TIP3    H176204   2.772   0.167   5.891  0.4595 -1.3757  1.1597
18263TIP3    H276205   2.785   0.086   5.764 -0.1954  0.3932 -0.0547
18264TIP3   OH276206   6.058   6.202   1.243  0.3878  0.2518 -0.0360
18264TIP3    H176207   6.008   6.266   1.192 -0.6773  0.6488  1.4608
18264TIP3    H276208   6.061   6.124   1.188  0.0637  0.9763 -1.0877
18265TIP3   OH276209   5.577   5.953  15.214  0.2106  0.3250  0.0178
18265TIP3    H176210   5.591   5.905  15.132 -0.4908 -0.4822  0.3644
18265TIP3    H276211   5.656   5.937  15.266  0.3828  0.3246 -0.2452
18266TIP3   OH276212   0.613   4.027   0.488 -0.5766  0.2983 -0.2303
18266TIP3    H176213   0.601   3.935   0.512 -1.7140  0.7242  0.9507
18266TIP3    H276214   0.695   4.029   0.440  0.1028 -1.1426  0.8230
18267TIP3   OH276215   0.429   4.662   0.466  0.2085  0.4720  0.5111
18267TIP3    H176216   0.519   4.678   0.440 -0.1388  0.3732 -0.8192
18267TIP3    H276217   0.429   4.573   0.503  0.6126  0.3849  0.2985
18268TIP3   OH276218   2.485   0.020   6.066  0.1841  0.1592 -0.5238
18268TIP3    H176219   2.546   0.091   6.046 -0.4008 -0.0713 -3.4128
18268TIP3    H276220   2.412   0.062   6.112  0.6290  1.1545 -0.7298
18269TIP3   OH276221   3.097   3.137  14.998  0.0367 -0.0314  0.7609
18269TIP3    H176222   3.073   3.229  15.008 -2.0626 -0.7058  2.3018
18269TIP3    H276223   3.184   3.130  15.037  0.5585  1.4366 -0.0972
18270TIP3   OH276224   0.858   4.023  15.239  0.3614 -1.0213 -0.3389
18270TIP3    H176225   0.859   4.110  15.199  0.2405 -1.4681 -1.3301
18270TIP3    H276226   0.872   3.963  15.166  0.2874 -1.8451  0.3171
18271TIP3   OH276227   0.565   2.247  14.758  0.1059 -0.3568  0.3128
18271TIP3    H176228   0.640   2.232  14.815  0.7901 -0.1250 -0.5170
18271TIP3    H276229   0.569   2.340  14.738  0.3257 -0.5844 -0.7334
18272TIP3   OH276230   4.930   4.194   3.018 -0.5305  0.4100 -0.4345
18272TIP3    H176231   4.846   4.239   3.032 -1.0033 -0.5545 -0.0992
18272TIP3    H276232   4.911   4.103   3.039  0.4186  0.0557 -1.1053
18273TIP3   OH276233   0.321   1.862  15.938  0.0718  0.2752  0.1907
18273TIP3    H176234   0.232   1.897  15.947 -1.5524 -3.5126 -0.3008
18273TIP3    H276235   0.342   1.874  15.845 -0.1422  0.6547  0.1890
18274TIP3   OH276236   0.996   1.584   5.653 -0.5412 -0.4136  0.1823
18274TIP3    H176237   0.903   1.600   5.669 -0.1772 -0.0051  1.9483
18274TIP3    H276238   1.021   1.519   5.719  0.5394 -0.1631  0.0300
18275TIP3   OH276239   3.060   1.314   1.616 -0.7371  0.2719  0.2562
18275TIP3    H176240   3.048   1.231   1.570  1.1740 -0.1794  0.5332
18275TIP3    H276241   3.101   1.372   1.552 -3.5839  1.5817 -0.4707
18276TIP3   OH276242   5.603   6.775   4.667 -0.8461  0.4860  0.3454
18276TIP3    H176243   5.648   6.843   4.617 -0.4089  0.5069  0.7686
18276TIP3    H276244   5.510   6.799   4.663 -0.7352  0.8761  0.1416
18277TIP3   OH276245   4.302   6.467  16.207 -0.0225  0.5848 -0.0820
18277TIP3    H176246   4.294   6.379  16.243  0.2828 -0.2955 -2.0551
18277TIP3    H276247   4.394   6.489  16.217  0.0624  0.3399 -0.3194
18278TIP3   OH276248   1.553   5.808  13.676  0.1716  1.0832 -0.1256
18278TIP3    H176249   1.643   5.788  13.650 -0.5932  0.3368 -2.2814
18278TIP3    H276250   1.518   5.859  13.604 -1.4014  0.6170  0.2959
18279TIP3   OH276251   0.691   3.689   2.475 -0.1638  0.0553  0.5167
18279TIP3    H176252   0.603   3.665   2.446  0.4676 -1.6889 -0.0153
18279TIP3    H276253   0.685   3.782   2.497 -1.4254  0.6784 -2.2878
18280TIP3   OH276254   0.824   1.916  11.425 -0.0121  0.8974 -0.1542
18280TIP3    H176255   0.856   1.962  11.502 -0.2754  0.7149  0.0669
18280TIP3    H276256   0.755   1.859  11.458  0.7144 -0.0996 -0.3202
18281TIP3   OH276257   1.329   6.221  11.391  0.0820  0.2755 -0.7431
18281TIP3    H176258   1.379   6.145  11.361 -0.1242 -0.2041  0.1060
18281TIP3    H276259   1.354   6.231  11.483 -1.9769 -0.4703 -0.0646
18282TIP3   OH276260   4.213   3.583  13.147  0.0423 -0.1144 -0.0476
18282TIP3    H176261   4.142   3.520  13.138  1.7115 -1.8646 -1.1699
18282TIP3    H276262   4.200   3.644  13.074 -1.5892  0.9111  1.0605
18283TIP3   OH276263   5.937   3.370   3.145  0.2887 -0.8404 -0.1160
18283TIP3    H176264   6.011   3.314   3.121 -0.7898 -2.6423  0.6857
18283TIP3    H276265   5.910   3.338   3.231 -0.1420  1.1484  0.5205
18284TIP3   OH276266   4.934   2.072   0.952 -0.1822  0.9195  0.1104
18284TIP3    H176267   4.867   2.136   0.926 -0.2765  0.2484 -1.2893
18284TIP3    H276268   4.991   2.064   0.877 -0.0747 -0.5370  0.3297
18285TIP3   OH276269   4.209   2.820  13.797 -0.0291  0.5064  0.4990
18285TIP3    H176270   4.264   2.893  13.768  1.9231 -1.7334 -1.5827
18285TIP3    H276271   4.173   2.783  13.716 -0.3582 -1.3324  1.4589
18286TIP3   OH276272   3.456   6.264   1.116 -0.7374  0.5350  0.8996
18286TIP3    H176273   3.406   6.288   1.037  1.5851 -1.2210 -1.1627
18286TIP3    H276274   3.389   6.243   1.180 -2.7162 -1.4983 -1.7156
18287TIP3   OH276275   1.309   1.453   2.295  0.3836 -0.0413 -0.3726
18287TIP3    H176276   1.215   1.457   2.281  0.0043  1.0198  2.0895
18287TIP3    H276277   1.329   1.360   2.305 -0.2469 -0.3308 -1.7910
18288TIP3   OH276278   4.618   0.652  14.472 -0.0046  0.1137 -0.2367
18288TIP3    H176279   4.709   0.669  14.495 -0.0492 -0.9036  0.7613
18288TIP3    H276280   4.576   0.738  14.471  0.8853  0.5531 -0.3915
18289TIP3   OH276281   2.349   0.932   1.887  0.3387  0.3174  0.3728
18289TIP3    H176282   2.281   0.996   1.906 -0.2349 -0.8899  2.5923
18289TIP3    H276283   2.423   0.958   1.943 -0.4724 -1.8263  2.5565
18290TIP3   OH276284   0.518   2.677  16.499 -0.9780  0.4187  0.0958
18290TIP3    H176285   0.531   2.618  16.573  0.3999 -1.1276 -1.3498
18290TIP3    H276286   0.536   2.623  16.422 -1.7687  2.1734 -1.3497
18291TIP3   OH276287   2.240   1.350  14.493  0.2064  0.2665 -0.2421
18291TIP3    H176288   2.309   1.358  14.427 -0.8787 -0.2010 -1.4588
18291TIP3    H276289   2.248   1.260  14.525 -1.0488 -0.4243 -1.7860
18292TIP3   OH276290   1.365   4.336  15.217 -0.0547 -0.4021  0.0131
18292TIP3    H176291   1.348   4.424  15.182 -0.2852 -0.7320 -0.7176
18292TIP3    H276292   1.411   4.291  15.146  0.8890 -0.5832  0.7284
18293TIP3   OH276293   4.550   5.201  11.215 -0.3861  0.0477  0.2591
18293TIP3    H176294   4.534   5.122  11.266 -1.4120  1.4339  2.1572
18293TIP3    H276295   4.481   5.200  11.148 -1.3387  0.0922  1.2235
18294TIP3   OH276296   0.470   4.794   4.101  0.0238 -0.2648  0.5807
18294TIP3    H176297   0.430   4.708   4.118 -0.1882 -0.3652 -0.4323
18294TIP3    H276298   0.550   4.775   4.053 -0.6530  0.1652 -0.7567
18295TIP3   OH276299   3.039   4.143  15.824  0.2644 -0.1661 -0.4932
18295TIP3    H176300   3.006   4.069  15.874 -1.5163  0.0389 -1.3126
18295TIP3    H276301   3.004   4.220  15.869  1.4092  0.1662 -0.1373
18296TIP3   OH276302   5.602   3.851   3.628 -0.3445  0.1138 -0.3882
18296TIP3    H176303   5.528   3.835   3.687 -0.6516 -0.9270 -1.0250
18296TIP3    H276304   5.673   3.878   3.685 -0.8781 -0.0606  0.3719
18297TIP3   OH276305   5.335   5.940   2.705  0.4190 -0.1792 -0.1608
18297TIP3    H176306   5.360   5.957   2.796  0.4050  0.6288 -0.3065
18297TIP3    H276307   5.383   5.860   2.682 -0.6614 -1.1920  0.9981
18298TIP3   OH276308   4.658   0.620   2.737 -0.4870 -0.0512 -0.2227
18298TIP3    H176309   4.620   0.694   2.784 -2.1368  0.6290 -2.5296
18298TIP3    H276310   4.745   0.610   2.774 -0.1110  3.2671 -0.0993
18299TIP3   OH276311   1.303   0.993   3.547  0.6289 -0.6964  0.0222
18299TIP3    H176312   1.291   1.047   3.468  2.0840  0.8617  0.8618
18299TIP3    H276313   1.213   0.973   3.575 -0.0114  2.7736  0.6911
18300TIP3   OH276314   0.908   3.878   1.234 -0.2847  0.1966 -0.3400
18300TIP3    H176315   0.946   3.791   1.220 -1.1264 -0.3965  0.8949
18300TIP3    H276316   0.860   3.870   1.317  0.2753  2.0632  0.2009
18301TIP3   OH276317   2.277   0.279   1.418 -0.2537  0.1683  0.1602
18301TIP3    H176318   2.270   0.184   1.430  0.3415  0.0034 -0.7795
18301TIP3    H276319   2.186   0.308   1.407 -0.4966 -0.1875  1.1472
18302TIP3   OH276320   5.909   4.123  15.098  0.1583  0.6645 -0.2502
18302TIP3    H176321   5.833   4.066  15.083 -0.9029  2.5836 -2.5099
18302TIP3    H276322   5.975   4.092  15.036  0.4457  0.4082  0.1784
18303TIP3   OH276323   3.211   1.472   1.438  0.5845 -0.3502 -0.5641
18303TIP3    H176324   3.247   1.477   1.349  2.9922 -0.3679  0.3790
18303TIP3    H276325   3.145   1.541   1.441  0.0050 -0.7882 -2.5696
18304TIP3   OH276326   2.544   5.583  16.865  0.2233 -0.3879  0.0034
18304TIP3    H176327   2.517   5.499  16.830  0.5292 -0.6599  0.4142
18304TIP3    H276328   2.614   5.612  16.806  2.1478 -1.7860  1.5207
18305TIP3   OH276329   1.510   0.749   1.887  0.1800  0.3814 -0.6968
18305TIP3    H176330   1.543   0.784   1.804  3.4486  0.5448  0.5964
18305TIP3    H276331   1.450   0.679   1.861 -0.0304  1.4307 -3.2017
18306TIP3   OH276332   1.366   3.877   2.787  0.3991  0.0213  0.3163
18306TIP3    H176333   1.388   3.826   2.865 -0.1513 -0.8996 -0.1080
18306TIP3    H276334   1.309   3.818   2.736  1.0721  0.4582 -0.9601
18307TIP3   OH276335   2.009   1.710  12.055  0.1045 -0.2507 -0.4212
18307TIP3    H176336   1.982   1.652  11.984  0.2408 -0.5858 -0.2014
18307TIP3    H276337   1.978   1.666  12.135 -0.8341  0.5589 -0.3252
18308TIP3   OH276338   5.348   6.246  12.788  0.1110  0.3000 -0.0588
18308TIP3    H176339   5.427   6.297  12.804 -0.8436  2.1117 -0.9882
18308TIP3    H276340   5.288   6.270  12.859  0.0666 -0.3984  0.1460
18309TIP3   OH276341   1.941   3.399   5.492  0.0470 -0.0952  0.2522
18309TIP3    H176342   1.921   3.443   5.409  0.1680 -0.4292  0.0422
18309TIP3    H276343   2.036   3.386   5.490  0.2634  1.2462  1.1241
18310TIP3   OH276344   1.212   4.133  11.149  0.4840  0.0112  0.2864
18310TIP3    H176345   1.126   4.091  11.158  0.9958 -1.1878 -0.4098
18310TIP3    H276346   1.268   4.066  11.112  2.3761 -0.0370  3.1112
18311TIP3   OH276347   1.850   1.326  13.677  0.0933  0.2695 -0.1219
18311TIP3    H176348   1.894   1.397  13.631  2.6243 -0.5199  0.9407
18311TIP3    H276349   1.807   1.368  13.751  1.3717  0.7637  0.3620
18312TIP3   OH276350   2.358   4.103   2.961 -0.2250  0.2139  0.2049
18312TIP3    H176351   2.325   4.016   2.982 -0.9595  0.7850  1.4695
18312TIP3    H276352   2.423   4.122   3.029  0.4933  0.3414 -0.5079
18313TIP3   OH276353   5.197   0.040  16.118 -0.3851 -0.0898  0.3039
18313TIP3    H176354   5.284   0.046  16.158  0.3286 -0.0183 -1.2203
18313TIP3    H276355   5.138   0.023  16.192  0.9925 -0.7451  1.2854
18314TIP3   OH276356   0.926   0.055   0.122  0.3428  0.0000  0.0947
18314TIP3    H176357   0.841   0.070   0.081  0.3504 -0.2926 -0.0290
18314TIP3    H276358   0.932  -0.040   0.129  0.6664  0.0213  0.0872
18315TIP3   OH276359   2.350   1.858  14.848 -0.1604  0.1583  0.3934
18315TIP3    H176360   2.304   1.829  14.927 -1.2307  0.6118 -0.0509
18315TIP3    H276361   2.315   1.946  14.832  1.2951  0.7414  0.3676
18316TIP3   OH276362   4.735   6.045   4.853 -0.1875  0.0684  0.2567
18316TIP3    H176363   4.685   6.102   4.794  0.0073 -1.0494 -0.9888
18316TIP3    H276364   4.826   6.065   4.835 -0.1479  0.8198  1.2660
18317TIP3   OH276365   2.254   1.609  10.691 -0.5958 -0.3533  0.0228
18317TIP3    H176366   2.223   1.570  10.610  2.8054  0.0148 -1.5775
18317TIP3    H276367   2.292   1.537  10.740 -0.7524 -0.2432  0.3040
18318TIP3   OH276368   2.415   4.115  14.929  0.2782  0.0210  0.4537
18318TIP3    H176369   2.392   4.208  14.929 -0.9086 -0.2628  0.1106
18318TIP3    H276370   2.495   4.110  14.982  0.1620  1.1817  0.7574
18319TIP3   OH276371   0.308   0.975   3.967 -0.1198  0.3104 -0.6987
18319TIP3    H176372   0.323   1.038   4.038 -2.0625  0.2423 -0.2155
18319TIP3    H276373   0.346   0.894   4.000  0.7902  0.7743 -0.5804
18320TIP3   OH276374   3.151   3.127   4.844  0.0168  0.6034  0.0848
18320TIP3    H176375   3.078   3.174   4.884  0.2615  0.4569  0.7144
18320TIP3    H276376   3.228   3.180   4.863  0.3707 -0.3251  1.2896
18321TIP3   OH276377   6.037   1.522   5.600 -0.4263  0.1402 -0.2525
18321TIP3    H176378   6.049   1.584   5.672  1.1441 -0.5948  0.1351
18321TIP3    H276379   5.982   1.569   5.537  0.0220  1.6142  0.4221
18322TIP3   OH276380   2.673   0.710   3.082 -0.2878  0.0102  0.7445
18322TIP3    H176381   2.589   0.683   3.046  0.6124  1.3214 -2.6054
18322TIP3    H276382   2.718   0.628   3.103 -0.8843 -0.8485 -1.2014
18323TIP3   OH276383   4.843   4.142  15.508 -0.2080  0.1657 -0.0137
18323TIP3    H176384   4.914   4.121  15.446  0.0128 -1.4794  0.7844
18323TIP3    H276385   4.887   4.188  15.579 -0.2248  0.7391 -0.3725
18324TIP3   OH276386   5.816   5.135  11.671  0.1695 -0.0677  0.6675
18324TIP3    H176387   5.835   5.219  11.630 -0.0990 -0.7819 -0.9873
18324TIP3    H276388   5.721   5.128  11.670  0.1984 -0.5024  0.5337
18325TIP3   OH276389   5.771   1.270   0.121 -0.1264 -0.7005 -0.6763
18325TIP3    H176390   5.775   1.357   0.081  1.6180 -0.7977 -0.7501
18325TIP3    H276391   5.712   1.220   0.066 -1.0632  0.4196 -0.6904
18326TIP3   OH276392   3.571   5.013  11.190 -0.3199  0.1717  0.6913
18326TIP3    H176393   3.571   5.052  11.278 -0.0664  0.6421  0.4850
18326TIP3    H276394   3.511   5.068  11.140 -1.3361 -0.7626  0.8529
18327TIP3   OH276395   3.371   3.378  14.188  0.0340 -0.2060 -0.7581
18327TIP3    H176396   3.296   3.414  14.141 -0.6878 -0.4846  0.1587
18327TIP3    H276397   3.332   3.319  14.253  0.9755  0.6727  0.6238
18328TIP3   OH276398   5.559   0.914  13.377 -0.1468  0.0609 -0.3066
18328TIP3    H176399   5.572   0.841  13.438 -0.1739 -1.0046 -1.5472
18328TIP3    H276400   5.464   0.922  13.370 -0.1929  2.2282  2.1585
18329TIP3   OH276401   0.917   6.519  14.729 -0.3476  0.0831  0.2701
18329TIP3    H176402   0.996   6.573  14.732 -2.0100  2.5955 -0.1716
18329TIP3    H276403   0.909   6.483  14.817 -0.4906  2.4443  1.2417
18330TIP3   OH276404   4.183   5.880   3.197  0.8174  0.5346 -0.3695
18330TIP3    H176405   4.109   5.939   3.182  0.0119 -0.3665 -0.0152
18330TIP3    H276406   4.260   5.935   3.187  0.0805  1.6151 -0.1726
18331TIP3   OH276407   5.830   4.894  12.853  0.7875 -0.6098 -0.2598
18331TIP3    H176408   5.852   4.943  12.932  0.0190 -1.7772  0.6915
18331TIP3    H276409   5.905   4.905  12.795  1.4896 -0.0287  0.7703
18332TIP3   OH276410   1.806   6.669  11.936 -0.5601  0.0518 -0.4691
18332TIP3    H176411   1.868   6.733  11.901 -2.5183  2.3532  0.1471
18332TIP3    H276412   1.822   6.590  11.884  2.3813  0.7925 -0.7760
18333TIP3   OH276413   5.338   2.836   1.684 -0.8638  0.1559 -0.0716
18333TIP3    H176414   5.418   2.791   1.711 -0.6646  0.8509  0.5217
18333TIP3    H276415   5.365   2.891   1.611 -1.1775 -0.9316 -1.0131
18334TIP3   OH276416   0.008   1.112  13.861  0.0058 -0.9367  0.0329
18334TIP3    H176417   0.036   1.021  13.852 -0.2625 -0.9544 -0.6928
18334TIP3    H276418   0.069   1.151  13.924 -0.9040 -2.0504  1.6373
18335TIP3   OH276419   1.609   2.778  16.116 -0.1703 -0.4137  0.1720
18335TIP3    H176420   1.567   2.785  16.031  2.2369  3.0637 -0.8280
18335TIP3    H276421   1.685   2.720  16.101  0.5097  0.5573 -0.1813
18336TIP3   OH276422   3.955   5.964   3.837 -0.2922 -0.2331  0.5382
18336TIP3    H176423   3.933   6.024   3.766  0.6412  0.8042  1.1214
18336TIP3    H276424   3.872   5.921   3.859 -0.7617  0.1105 -0.5513
18337TIP3   OH276425   6.559   4.749   2.565  0.1528  0.3034  0.1638
18337TIP3    H176426   6.594   4.663   2.541  0.5891  0.4911  0.1156
18337TIP3    H276427   6.624   4.786   2.624  0.9160  1.3864 -1.3083
18338TIP3   OH276428   6.362   4.567  12.072  0.0756  0.1851  0.5291
18338TIP3    H176429   6.298   4.615  12.124 -1.0522 -1.3137  0.5634
18338TIP3    H276430   6.312   4.537  11.996  0.1959 -2.7271  1.5379
18339TIP3   OH276431   4.129   4.633  16.028  0.2695  0.4771 -0.0981
18339TIP3    H176432   4.082   4.715  16.040  1.5947  1.2676 -0.1598
18339TIP3    H276433   4.136   4.622  15.933  0.1103  0.3073 -0.0903
18340TIP3   OH276434   4.194   0.448  16.309  0.8158 -0.1125  0.1164
18340TIP3    H176435   4.279   0.487  16.329  0.6378 -0.6440  1.9956
18340TIP3    H276436   4.198   0.360  16.346 -0.8125  0.1259  0.9127
18341TIP3   OH276437   2.691   1.772   5.332  0.5399  0.0924  0.1921
18341TIP3    H176438   2.607   1.812   5.308  1.3352  1.2707 -0.6964
18341TIP3    H276439   2.696   1.693   5.278 -0.7849 -0.9581  1.5486
18342TIP3   OH276440   4.043   3.025   6.011  0.7861  0.1992  0.1276
18342TIP3    H176441   4.127   3.071   6.021 -0.0917  1.9743 -0.4833
18342TIP3    H276442   4.067   2.939   5.977  2.3388  0.8386 -0.4396
18343TIP3   OH276443   4.880   1.584   4.811  0.3253  0.1623 -0.2829
18343TIP3    H176444   4.943   1.654   4.830 -1.1345  1.1472  1.1549
18343TIP3    H276445   4.883   1.528   4.889 -2.0399  1.3776  0.7228
18344TIP3   OH276446   2.873   1.236  14.946  0.3940 -0.0980  0.1988
18344TIP3    H176447   2.790   1.241  14.899  0.6425  1.3000 -0.0991
18344TIP3    H276448   2.939   1.223  14.878  0.4602 -0.8603  0.4047
18345TIP3   OH276449   0.609   1.874  16.517 -0.1199  0.1227 -0.1141
18345TIP3    H176450   0.666   1.884  16.593 -1.0636  1.1389  0.4809
18345TIP3    H276451   0.548   1.948  16.522 -1.3408 -0.7910 -0.8595
18346TIP3   OH276452   5.040   5.895   4.846  0.0832 -0.1746  0.1729
18346TIP3    H176453   5.050   5.983   4.810  0.8820 -0.6487 -0.7862
18346TIP3    H276454   5.002   5.908   4.933  0.1754  1.1149  0.0185
18347TIP3   OH276455   0.658   4.798  15.556  0.2846 -0.4518 -0.1526
18347TIP3    H176456   0.753   4.807  15.544  0.0004  0.0438 -2.3333
18347TIP3    H276457   0.647   4.711  15.595  1.6526 -0.3965  0.3964
18348TIP3   OH276458   3.102   0.254   0.686  0.1914 -0.1920 -0.0039
18348TIP3    H176459   3.059   0.339   0.672 -0.5432 -0.5369  0.1457
18348TIP3    H276460   3.135   0.229   0.600 -0.1320 -0.0412 -0.1735
18349TIP3   OH276461   6.176   4.583  12.955  0.2837 -0.3397 -0.6664
18349TIP3    H176462   6.172   4.644  13.029  2.8060 -0.7919 -0.1225
18349TIP3    H276463   6.123   4.625  12.887 -0.5770  0.9562  0.7754
18350TIP3   OH276464   2.389   0.179   5.788 -0.5002 -0.5330  0.1383
18350TIP3    H176465   2.337   0.207   5.713 -1.4150  0.7235  1.2196
18350TIP3    H276466   2.470   0.229   5.780 -1.0450  0.4247  0.5897
18351TIP3   OH276467   1.481   0.712   0.953 -0.2934 -0.1758 -0.1937
18351TIP3    H176468   1.557   0.733   1.008  1.2967  1.2788 -2.8365
18351TIP3    H276469   1.439   0.797   0.939 -1.2222 -0.6789 -0.4302
18352TIP3   OH276470   0.008   4.391   4.714  0.3431  0.0449 -0.0760
18352TIP3    H176471  -0.027   4.460   4.658 -0.2548 -0.3323 -0.1730
18352TIP3    H276472   0.080   4.433   4.762 -0.6750  1.0152  0.6217
18353TIP3   OH276473   0.058   1.406   2.542 -0.3287 -0.2425  0.3433
18353TIP3    H176474   0.150   1.429   2.530 -0.2131 -0.9124 -0.0625
18353TIP3    H276475   0.050   1.387   2.635 -0.4546  1.5619  0.7132
18354TIP3   OH276476   0.324   0.550   2.859 -0.0703 -0.0479  0.4572
18354TIP3    H176477   0.371   0.562   2.941 -1.1727  2.8345  0.7364
18354TIP3    H276478   0.232   0.563   2.882 -0.6940 -2.2731 -0.6817
18355TIP3   OH276479   6.059   5.006  15.332 -0.4002 -0.0694  0.7224
18355TIP3    H176480   6.012   5.089  15.345 -0.7777 -0.1323 -0.2429
18355TIP3    H276481   6.077   5.003  15.238  0.1116 -0.8117  0.8440
18356TIP3   OH276482   4.669   6.622   1.141 -0.1088  0.0557 -0.5358
18356TIP3    H176483   4.749   6.599   1.188 -1.0392  1.1557  1.6460
18356TIP3    H276484   4.663   6.717   1.150 -2.0514 -0.1060 -0.0678
18357TIP3   OH276485   5.532   2.980  15.071 -0.1279 -0.3688 -0.4030
18357TIP3    H176486   5.497   2.900  15.110  0.1281 -1.5966 -2.6314
18357TIP3    H276487   5.560   3.033  15.146  0.9558 -2.9364  1.0599
18358TIP3   OH276488   0.425   6.635   5.430 -0.1876 -0.1272  0.4094
18358TIP3    H176489   0.502   6.681   5.464 -0.4855 -0.6005  1.7477
18358TIP3    H276490   0.353   6.661   5.488 -0.9472 -0.0572 -0.5483
18359TIP3   OH276491   6.286   3.129   0.047 -0.2080 -0.4863 -0.0102
18359TIP3    H176492   6.211   3.162  -0.003 -0.3589  1.2278  1.3061
18359TIP3    H276493   6.261   3.140   0.138  1.8221  0.5661  0.4590
18360TIP3   OH276494   6.696   5.580  15.571  0.0430 -0.2329 -0.1019
18360TIP3    H176495   6.695   5.615  15.660  0.2254 -1.4929  0.4026
18360TIP3    H276496   6.738   5.495  15.579  2.1245  0.5975 -1.7732
18361TIP3   OH276497   6.173   6.194   2.254  0.1741 -0.2794  0.2319
18361TIP3    H176498   6.236   6.265   2.263 -0.6478  0.4600  0.2644
18361TIP3    H276499   6.126   6.214   2.173  0.6448 -1.3603 -0.3120
18362TIP3   OH276500   2.037   5.755  11.286 -0.1220  0.6012  0.7337
18362TIP3    H176501   2.082   5.726  11.364  0.8205 -0.3394 -0.1494
18362TIP3    H276502   2.105   5.793  11.231 -0.4183 -0.6032 -0.5033
18363TIP3   OH276503   2.803   3.407   6.878 -0.1316  0.2433  0.5817
18363TIP3    H176504   2.785   3.480   6.819 -0.6984 -0.2842  0.1028
18363TIP3    H276505   2.894   3.420   6.905 -0.4435  1.5286  1.0628
18364TIP3   OH276506   4.619   5.524   5.631  0.1555  0.1819 -0.3148
18364TIP3    H176507   4.684   5.497   5.696 -0.2142  0.3660  0.1337
18364TIP3    H276508   4.646   5.612   5.606 -1.4480  1.3209  1.8584
18365TIP3   OH276509   2.005   3.806  13.868  0.1445  0.8745  0.0101
18365TIP3    H176510   2.071   3.789  13.936  0.6112  0.2747 -0.5774
18365TIP3    H276511   2.052   3.856  13.802  0.0760  0.2446 -0.5220
18366TIP3   OH276512   0.825   1.978   5.206  0.1007 -0.2518  0.0012
18366TIP3    H176513   0.879   2.027   5.269  0.1834  1.4205 -1.3242
18366TIP3    H276514   0.777   2.046   5.159 -0.4952 -1.5322 -1.2438
18367TIP3   OH276515   5.732   0.019  11.986 -0.0143  0.2659  0.5695
18367TIP3    H176516   5.723   0.075  11.909 -2.4331  1.9454  2.0187
18367TIP3    H276517   5.816   0.044  12.024 -0.9907  2.8631  1.1150
18368TIP3   OH276518   2.651   3.592  11.870  0.5280 -0.2516 -0.8732
18368TIP3    H176519   2.702   3.671  11.854 -1.3396  0.8540 -1.5428
18368TIP3    H276520   2.570   3.605  11.821 -0.1262 -2.2574 -0.3913
18369TIP3   OH276521   6.782   0.105  11.458 -0.1511 -0.4592  0.2693
18369TIP3    H176522   6.817   0.017  11.445  0.0982 -0.0168 -2.2136
18369TIP3    H276523   6.776   0.142  11.370 -1.2067  1.6474  1.1955
18370TIP3   OH276524   6.564   6.078  13.967  0.7122  0.4602  0.0143
18370TIP3    H176525   6.471   6.092  13.982  0.8433 -0.7311  2.2068
18370TIP3    H276526   6.607   6.152  14.009  0.7915  0.4530 -0.0548
18371TIP3   OH276527   0.392   5.203   4.333  0.4099 -0.6565 -0.1301
18371TIP3    H176528   0.383   5.112   4.305 -0.7781 -0.9213  1.0531
18371TIP3    H276529   0.305   5.241   4.321  0.4728 -0.1451  0.9378
18372TIP3   OH276530   2.268   3.244  11.957 -0.0239  0.5154  0.1961
18372TIP3    H176531   2.324   3.309  12.000  0.3441 -0.5733  1.3993
18372TIP3    H276532   2.283   3.163  12.006 -0.8246 -0.3748 -0.9904
18373TIP3   OH276533   3.881   2.729   5.348  0.5143 -0.3710 -0.1576
18373TIP3    H176534   3.831   2.776   5.414  0.8163  0.4718 -0.5211
18373TIP3    H276535   3.960   2.700   5.394  0.0262 -1.0919  0.2337
18374TIP3   OH276536   5.010   5.522  13.436  0.1336 -0.7807 -0.3472
18374TIP3    H176537   5.015   5.434  13.473 -0.6231  0.1425  1.9825
18374TIP3    H276538   4.917   5.535  13.417  0.1380 -0.2099  0.0082
18375TIP3   OH276539   0.616   0.598   4.194 -0.6421  0.1221  0.4426
18375TIP3    H176540   0.655   0.631   4.113  1.2209 -0.6914  1.0010
18375TIP3    H276541   0.639   0.506   4.197 -1.6152 -0.1036  1.3755
18376TIP3   OH276542   6.684   3.964  11.841 -0.1607  0.2403 -0.6869
18376TIP3    H176543   6.709   4.023  11.770 -0.2181 -1.3781 -2.0933
18376TIP3    H276544   6.589   3.960  11.836 -0.3008  1.5816  0.7004
18377TIP3   OH276545   5.381   2.255   2.345  0.2429  0.4094 -0.1056
18377TIP3    H176546   5.379   2.200   2.266 -1.9142  0.4638 -0.1124
18377TIP3    H276547   5.300   2.305   2.341  1.2654  2.1622  0.9396
18378TIP3   OH276548   4.243   6.006  10.581  1.3057  0.2422  0.0409
18378TIP3    H176549   4.183   6.080  10.589  0.6023 -0.4247  1.0794
18378TIP3    H276550   4.327   6.045  10.560  0.9148  1.3293  0.4553
18379TIP3   OH276551   5.374   1.649  13.304 -0.5778 -0.0290 -0.2842
18379TIP3    H176552   5.394   1.701  13.226 -1.7067  1.1154  0.1627
18379TIP3    H276553   5.404   1.561  13.283  0.4258  0.5890 -1.4581
18380TIP3   OH276554   6.473   4.384  14.709  0.1732  0.2940 -0.1767
18380TIP3    H176555   6.389   4.368  14.666  0.0402  0.0559  0.1670
18380TIP3    H276556   6.487   4.478  14.701 -1.1027  0.6408  1.5419
18381TIP3   OH276557   6.302   3.272   5.699 -0.1776  0.2985  0.6473
18381TIP3    H176558   6.361   3.335   5.658 -1.3507  1.1867  0.3219
18381TIP3    H276559   6.355   3.231   5.768  1.0882  0.4580 -0.2202
18382TIP3   OH276560   1.115   3.588   3.704  0.0043 -0.2321  0.0206
18382TIP3    H176561   1.079   3.503   3.677  0.5766 -0.4651 -0.0170
18382TIP3    H276562   1.038   3.640   3.729 -0.1221 -1.8418  3.1521
18383TIP3   OH276563   2.438   2.523  16.024  0.2167  0.3737  0.2666
18383TIP3    H176564   2.425   2.429  16.034  1.0255  0.3763  1.2777
18383TIP3    H276565   2.434   2.558  16.113  1.2579  1.1290  0.0255
18384TIP3   OH276566   2.115   5.750   1.814  0.0521  0.1532 -0.4715
18384TIP3    H176567   2.118   5.729   1.720  0.4473 -0.3827 -0.3462
18384TIP3    H276568   2.134   5.843   1.818 -0.0676  0.2017 -0.9362
18385TIP3   OH276569   6.344   2.931   6.179 -0.2789 -0.1961  0.4897
18385TIP3    H176570   6.291   2.960   6.253 -0.0241  0.5206  0.4040
18385TIP3    H276571   6.431   2.916   6.216 -0.6830 -1.9348  0.7386
18386TIP3   OH276572   2.682   4.903   3.292  0.1401 -0.4348  0.1994
18386TIP3    H176573   2.662   4.817   3.330  1.0269 -0.5809  0.3627
18386TIP3    H276574   2.662   4.893   3.199 -0.6261 -0.5366  0.3745
18387TIP3   OH276575   4.717   3.788   2.336  0.1680 -0.1874 -0.5425
18387TIP3    H176576   4.725   3.693   2.344  2.2320 -0.0297 -0.5216
18387TIP3    H276577   4.781   3.812   2.269 -0.0137  1.2454 -0.2190
18388TIP3   OH276578   3.076   0.888   5.987 -0.0475  0.3689 -0.3124
18388TIP3    H176579   3.012   0.876   6.057  1.0920  0.3882  0.7457
18388TIP3    H276580   3.086   0.983   5.980 -0.4543  0.3804 -0.7820
18389TIP3   OH276581   1.612   5.434   1.520  0.1110 -0.4876  0.3372
18389TIP3    H176582   1.643   5.520   1.492  1.5768 -0.7626  1.0617
18389TIP3    H276583   1.686   5.395   1.566 -0.2117 -2.4885 -0.7321
18390TIP3   OH276584   3.380   5.796  15.022 -0.0327 -0.3243  0.5803
18390TIP3    H176585   3.362   5.762  14.935 -1.5445  0.9192  0.4043
18390TIP3    H276586   3.459   5.849  15.011  1.6115 -2.6786  0.6143
18391TIP3   OH276587   2.590   4.279   3.401  0.4181 -1.1537 -0.1539
18391TIP3    H176588   2.653   4.340   3.362  0.2307 -1.9103 -1.6421
18391TIP3    H276589   2.561   4.224   3.329 -1.0658 -1.5941  0.7574
18392TIP3   OH276590   0.812   2.099   5.634 -0.1102  0.4639  0.2532
18392TIP3    H176591   0.837   2.148   5.712 -0.5947  0.7682  0.2189
18392TIP3    H276592   0.718   2.113   5.626 -0.5683 -1.8623  1.2225
18393TIP3   OH276593   2.130   1.871  11.686  0.2607  0.0240  0.0643
18393TIP3    H176594   2.182   1.950  11.676 -0.6560  0.5119 -0.9421
18393TIP3    H276595   2.175   1.805  11.633 -0.7348  0.7331 -1.6676
18394TIP3   OH276596   1.064   2.390  12.965  0.2749  0.3021  0.4545
18394TIP3    H176597   1.077   2.483  12.951  2.2534  0.0280  0.3445
18394TIP3    H276598   1.064   2.380  13.061 -1.5574  0.6000  0.5138
18395TIP3   OH276599   1.431   6.747   2.285  0.3360 -0.4075  0.1051
18395TIP3    H176600   1.449   6.760   2.191 -0.2498  1.4188  0.2259
18395TIP3    H276601   1.373   6.671   2.288 -1.7549  1.0797 -1.2493
18396TIP3   OH276602   0.203   0.210  11.953 -0.3183  0.2557  0.3896
18396TIP3    H176603   0.162   0.132  11.916  1.3178  0.0346 -1.0438
18396TIP3    H276604   0.235   0.259  11.877  1.7155  0.5998  1.4168
18397TIP3   OH276605   5.275   3.890  11.474 -0.3024 -0.6553 -0.4810
18397TIP3    H176606   5.199   3.927  11.428 -0.4741 -0.1535  0.1946
18397TIP3    H276607   5.244   3.805  11.506 -0.7384 -0.2327  0.2209
18398TIP3   OH276608   0.761   5.146  16.966  0.3314  0.4785  0.0359
18398TIP3    H176609   0.790   5.171  16.878 -1.4077  1.0839 -0.3896
18398TIP3    H276610   0.666   5.131  16.956  0.4626 -1.3932  1.3780
18399TIP3   OH276611   2.917   4.443  14.679 -0.1093 -0.5001 -0.6103
18399TIP3    H176612   2.887   4.498  14.751  0.1044 -0.2774 -0.6953
18399TIP3    H276613   2.962   4.370  14.721  1.9447  0.7611 -0.6043
18400TIP3   OH276614   4.835   5.258  14.991  0.1072 -0.2196 -0.2226
18400TIP3    H176615   4.774   5.255  14.917 -0.2406  0.0252  0.0542
18400TIP3    H276616   4.781   5.284  15.065  0.1323 -2.0343  0.4558
18401TIP3   OH276617   1.390   0.677   1.472  0.1342 -0.0632  0.0999
18401TIP3    H176618   1.456   0.708   1.410  0.4969  0.4510  0.7483
18401TIP3    H276619   1.373   0.752   1.528  0.1994 -0.6992  0.9708
18402TIP3   OH276620   0.444   5.508   3.924 -0.6462  0.4842 -0.7793
18402TIP3    H176621   0.505   5.468   3.862 -0.2181  0.8368 -0.5914
18402TIP3    H276622   0.446   5.450   4.000  1.5121  1.9248  0.2950
18403TIP3   OH276623   1.183   4.000   3.532  0.4896 -0.4501  0.0673
18403TIP3    H176624   1.260   4.057   3.537  1.1387 -1.1718 -1.4339
18403TIP3    H276625   1.203   3.937   3.462 -2.2954  0.5952 -1.7652
18404TIP3   OH276626   0.604   2.988  15.534 -0.2157  0.7722 -0.3299
18404TIP3    H176627   0.578   2.917  15.593 -0.0125 -0.5174 -1.7482
18404TIP3    H276628   0.664   3.041  15.585 -1.0038  0.3839  1.0264
18405TIP3   OH276629   1.355   1.070  14.465  0.1620  0.2699 -0.0537
18405TIP3    H176630   1.385   0.979  14.473  2.3508  1.0340  0.6106
18405TIP3    H276631   1.290   1.079  14.535 -0.1041 -0.7888 -0.1470
18406TIP3   OH276632   2.371   3.708   0.165  0.4853  0.0673  0.1452
18406TIP3    H176633   2.307   3.680   0.230  0.0750  0.2907 -0.1612
18406TIP3    H276634   2.393   3.798   0.189 -0.1583  0.3731 -0.4126
18407TIP3   OH276635   2.763   2.039  11.033  0.5565 -0.6244  0.0612
18407TIP3    H176636   2.754   1.979  10.959 -1.1746 -0.9536  0.5190
18407TIP3    H276637   2.855   2.064  11.032  0.2959  0.4750 -3.0860
18408TIP3   OH276638   3.803   1.103   3.891 -0.4693 -0.5835 -0.2228
18408TIP3    H176639   3.886   1.149   3.906 -0.7459  0.0835 -0.7042
18408TIP3    H276640   3.809   1.070   3.802 -0.8342 -0.2872 -0.3595
18409TIP3   OH276641   1.655   2.045   2.026  0.7946 -0.2648  0.1381
18409TIP3    H176642   1.564   2.073   2.037  1.2053  0.8771  0.7361
18409TIP3    H276643   1.651   1.971   1.966 -0.6328 -0.8385  0.9140
18410TIP3   OH276644   1.781   3.618  15.973 -0.6332  0.1530  0.1100
18410TIP3    H176645   1.764   3.544  16.031  1.6745 -1.0245 -0.6521
18410TIP3    H276646   1.739   3.593  15.890  0.4054 -0.4345 -0.2381
18411TIP3   OH276647   4.631   6.513  11.733  0.3951 -0.3002  0.2795
18411TIP3    H176648   4.553   6.553  11.770  0.2868 -0.0789 -0.1749
18411TIP3    H276649   4.619   6.419  11.747 -0.2195 -0.3138 -0.2718
18412TIP3   OH276650   1.082   6.036  14.836 -0.4061 -0.3119  0.0211
18412TIP3    H176651   1.124   6.120  14.819  1.2586 -1.2770 -0.8110
18412TIP3    H276652   1.009   6.056  14.894 -0.7005  1.8518 -1.0519
18413TIP3   OH276653   1.078   4.610  13.228 -0.0175  0.1276 -0.2976
18413TIP3    H176654   1.070   4.613  13.323 -0.3880 -0.0044 -0.3243
18413TIP3    H276655   0.993   4.578  13.197  1.0797 -2.7217 -0.5188
18414TIP3   OH276656   0.310   1.582   0.465  0.0714  0.5698 -0.1409
18414TIP3    H176657   0.373   1.547   0.401  1.2750  2.4706 -0.0290
18414TIP3    H276658   0.331   1.534   0.546 -0.5578 -0.8683 -0.8065
18415TIP3   OH276659   5.037   6.569   0.226  0.3036 -0.3135 -0.5695
18415TIP3    H176660   5.132   6.573   0.240 -0.0251 -1.7110  2.2835
18415TIP3    H276661   5.028   6.528   0.140  2.2893  0.0513 -0.9851
18416TIP3   OH276662   1.633   5.000   2.166 -0.1843 -0.4000 -0.1359
18416TIP3    H176663   1.561   4.938   2.153  0.1057 -0.9794  0.9932
18416TIP3    H276664   1.601   5.060   2.234  0.1370 -0.2441 -0.1219
18417TIP3   OH276665   5.169   5.544  10.884 -0.2421  0.4729  0.1801
18417TIP3    H176666   5.188   5.605  10.955 -0.9852 -0.1831  0.9570
18417TIP3    H276667   5.149   5.600  10.808 -1.1045  1.1915  0.9284
18418TIP3   OH276668   0.710   3.213  15.150 -0.2851 -0.0980  0.1929
18418TIP3    H176669   0.799   3.190  15.122 -0.2498 -1.4811  1.3318
18418TIP3    H276670   0.665   3.128  15.156 -0.3043  0.0745  4.0871
18419TIP3   OH276671   0.204   6.153   2.857  0.4190 -0.0192 -0.7926
18419TIP3    H176672   0.151   6.088   2.904  1.5912  1.1245  2.2872
18419TIP3    H276673   0.144   6.225   2.839  0.2168  0.0320  0.0582
18420TIP3   OH276674   4.689   2.286   3.021  0.4704 -0.0179 -0.1572
18420TIP3    H176675   4.670   2.317   3.110  0.6489 -0.7325  0.1320
18420TIP3    H276676   4.671   2.362   2.965  0.6260  0.5195  0.5144
18421TIP3   OH276677   0.714   6.336   6.310 -0.3173  0.2572 -0.7296
18421TIP3    H176678   0.794   6.287   6.327 -1.6325 -1.4758  0.6721
18421TIP3    H276679   0.688   6.371   6.395 -1.9730 -0.6823 -0.8230
18422TIP3   OH276680   5.134   6.185  16.024  0.3374 -0.2724  0.0385
18422TIP3    H176681   5.076   6.115  15.993  0.1374 -0.2584  0.3680
18422TIP3    H276682   5.222   6.149  16.016  0.2329 -0.5861  0.2521
18423TIP3   OH276683   3.135   1.167   5.955  0.3892  0.2403  0.0322
18423TIP3    H176684   3.120   1.260   5.975 -0.8394  0.3088 -1.1371
18423TIP3    H276685   3.227   1.153   5.975  0.6672  1.8045 -0.1037
18424TIP3   OH276686   1.050   1.906  12.525  0.0904 -0.5065  0.3158
18424TIP3    H176687   1.035   1.868  12.611  0.0139 -0.9228  0.1180
18424TIP3    H276688   1.057   2.000  12.542  1.4790 -0.7049  0.9747
18425TIP3   OH276689   4.523   3.578   2.050  0.0067 -0.1915 -0.4112
18425TIP3    H176690   4.491   3.528   1.975  1.4310 -0.5531 -0.7833
18425TIP3    H276691   4.618   3.575   2.042  0.1326  1.5142  0.2652
18426TIP3   OH276692   2.236   5.727  13.406 -0.1019  0.2047 -0.4213
18426TIP3    H176693   2.292   5.650  13.416 -3.4576 -2.1161  1.3509
18426TIP3    H276694   2.214   5.728  13.313  2.8963  1.2469 -1.1856
18427TIP3   OH276695   1.822   2.697  16.689  0.6818 -0.5604 -0.5018
18427TIP3    H176696   1.734   2.727  16.667  0.1415  0.8237  3.2304
18427TIP3    H276697   1.813   2.602  16.698 -0.3117 -0.4870 -0.6365
18428TIP3   OH276698   1.749   1.272   0.858 -0.3520  0.2209 -0.3866
18428TIP3    H176699   1.677   1.213   0.837  0.1594 -1.2030  1.6410
18428TIP3    H276700   1.802   1.274   0.778 -0.4083 -2.0704 -0.5341
18429TIP3   OH276701   4.387   2.465   1.679  0.4820  0.4590 -0.2272
18429TIP3    H176702   4.366   2.556   1.658 -1.9339  0.3061  1.4007
18429TIP3    H276703   4.375   2.459   1.774 -0.6415 -1.8791 -0.4899
18430TIP3   OH276704   2.259   5.852   0.788 -0.2099  0.0470  0.2635
18430TIP3    H176705   2.324   5.790   0.755  0.1812  1.2264 -1.2830
18430TIP3    H276706   2.248   5.915   0.716 -1.4549  1.0951  1.3429
18431TIP3   OH276707   5.622   5.942  16.834  0.4529  0.0210 -0.2198
18431TIP3    H176708   5.647   5.949  16.741  0.7361 -1.2579 -0.2502
18431TIP3    H276709   5.628   6.032  16.867  0.4409  0.4775 -1.4186
18432TIP3   OH276710   0.825   2.813  13.982  0.1051  0.1504  0.5454
18432TIP3    H176711   0.860   2.882  13.925  1.3892 -0.8072  0.1402
18432TIP3    H276712   0.889   2.807  14.053 -0.0248 -0.6014  0.5993
18433TIP3   OH276713   6.122   3.046   4.363 -0.2941 -0.3907  0.5159
18433TIP3    H176714   6.105   3.061   4.457  0.0375 -2.9197  1.0139
18433TIP3    H276715   6.060   3.104   4.319 -1.6387 -0.3847  2.3089
18434TIP3   OH276716   6.508   3.218   5.084 -0.2208  0.6212  0.5437
18434TIP3    H176717   6.465   3.285   5.032 -0.3931 -0.6597 -0.9992
18434TIP3    H276718   6.436   3.166   5.121 -0.0434 -0.4728 -0.6347
18435TIP3   OH276719   0.856   0.013   6.171 -0.1833 -0.0615 -0.1496
18435TIP3    H176720   0.864   0.011   6.266 -1.1641 -0.7438 -0.0797
18435TIP3    H276721   0.823  -0.074   6.147  1.6251 -0.4633 -1.2653
18436TIP3   OH276722   3.406   6.148  10.311 -0.1361  0.0857 -0.2471
18436TIP3    H176723   3.379   6.219  10.254 -0.0195  0.8175  0.5979
18436TIP3    H276724   3.471   6.100  10.261  0.7091  1.3180 -0.3494
18437TIP3   OH276725   3.439   0.390  11.531 -0.1397 -0.0929  0.1701
18437TIP3    H176726   3.429   0.481  11.505 -1.0376  0.1984  1.4681
18437TIP3    H276727   3.350   0.359  11.543  0.1500 -1.2582 -0.6238
18438TIP3   OH276728   3.417   1.655  14.104 -0.3690 -0.3358 -0.1763
18438TIP3    H176729   3.456   1.740  14.122  1.5649 -1.1532 -0.3527
18438TIP3    H276730   3.341   1.650  14.163  1.5191  0.1010  2.3721
18439TIP3   OH276731   4.384   4.704  12.288  0.6411  0.8008 -0.6847
18439TIP3    H176732   4.398   4.762  12.363 -0.4883 -1.2376  1.1675
18439TIP3    H276733   4.467   4.658  12.276  0.3666  0.0554  0.2709
18440TIP3   OH276734   5.526   2.137   3.271 -0.6242 -0.6321 -0.0984
18440TIP3    H176735   5.620   2.129   3.286 -0.6787 -1.4008 -0.1176
18440TIP3    H276736   5.517   2.149   3.177 -0.4472  1.2474  0.1136
18441TIP3   OH276737   0.428   2.175  14.510 -0.0854 -0.6663 -0.0817
18441TIP3    H176738   0.476   2.222  14.578 -1.5149 -0.2537  0.6593
18441TIP3    H276739   0.493   2.118  14.470  0.9857 -0.2273  1.0017
18442TIP3   OH276740   6.007   2.364   1.070  0.6939  0.3276  0.5446
18442TIP3    H176741   5.987   2.456   1.086  1.1091  0.6652 -0.8440
18442TIP3    H276742   6.096   2.352   1.104  0.3634  0.2611  1.3855
18443TIP3   OH276743   2.379   2.253  15.413  0.4986 -0.0150 -0.2400
18443TIP3    H176744   2.420   2.284  15.332  0.1193 -1.6338 -1.0889
18443TIP3    H276745   2.442   2.191  15.449 -0.0610 -0.5563 -0.1821
18444TIP3   OH276746   0.479   5.091   1.253  0.1141  0.5237 -0.4304
18444TIP3    H176747   0.531   5.077   1.173 -0.7906  0.0825 -0.9437
18444TIP3    H276748   0.389   5.070   1.227  0.0573 -1.2960  1.1459
18445TIP3   OH276749   2.735   1.889  13.829  0.2559  0.1349  0.4059
18445TIP3    H176750   2.781   1.942  13.764  1.6712 -0.3068  1.0141
18445TIP3    H276751   2.644   1.890  13.801  0.2546  2.7819  0.3302
18446TIP3   OH276752   5.464   3.142   4.707  0.5292 -0.1385  0.6819
18446TIP3    H176753   5.472   3.213   4.771  2.7436  0.7461 -0.5343
18446TIP3    H276754   5.546   3.144   4.658  0.5383 -3.4013  0.4529
18447TIP3   OH276755   4.793   2.785   2.164 -0.0143  0.7995  0.1341
18447TIP3    H176756   4.876   2.825   2.137  0.8076 -1.4173 -0.7508
18447TIP3    H276757   4.816   2.734   2.242 -0.1960 -1.0760 -1.0190
18448TIP3   OH276758   0.661   1.697  15.665  0.0325  0.1384  0.2944
18448TIP3    H176759   0.744   1.664  15.630  0.9869  0.8693  1.8288
18448TIP3    H276760   0.671   1.692  15.760 -0.7794  2.4337  0.5234
18449TIP3   OH276761   0.037   3.556   3.268  0.1718 -0.0871 -0.2433
18449TIP3    H176762  -0.002   3.469   3.267  0.2784 -0.1340 -0.3423
18449TIP3    H276763  -0.038   3.616   3.264  0.0548 -0.1639  0.6914
18450TIP3   OH276764   5.302   2.360   4.331 -0.3503 -0.1844  0.3508
18450TIP3    H176765   5.283   2.352   4.425 -1.8687 -0.2514  0.0478
18450TIP3    H276766   5.396   2.377   4.327  0.3039 -3.1895  1.7392
18451TIP3   OH276767   4.318   2.647  13.142 -0.2502  0.1927 -0.7138
18451TIP3    H176768   4.244   2.602  13.184  0.4414  0.4813  0.8808
18451TIP3    H276769   4.395   2.609  13.184  0.4698  0.5902 -1.6713
18452TIP3   OH276770   2.832   6.491   0.387 -0.4731 -0.5427  0.4075
18452TIP3    H176771   2.762   6.514   0.449  0.4367 -0.3377  1.3624
18452TIP3    H276772   2.843   6.396   0.397 -1.9708 -0.9143 -1.1822
18453TIP3   OH276773   3.520   3.267   1.798  0.1103  0.1058 -0.3145
18453TIP3    H176774   3.550   3.241   1.885  0.1895  0.3894 -0.2556
18453TIP3    H276775   3.490   3.358   1.809 -1.4875 -0.4185 -0.2048
18454TIP3   OH276776   5.426   4.966  15.508  0.3951  0.4748 -0.3389
18454TIP3    H176777   5.479   5.036  15.468  0.5947  0.0878 -0.7635
18454TIP3    H276778   5.485   4.891  15.511  0.1325  0.2830 -0.0300
18455TIP3   OH276779   2.420   5.155   4.153 -0.5905 -0.3365  0.1853
18455TIP3    H176780   2.444   5.079   4.205  0.1428  0.5113  1.1075
18455TIP3    H276781   2.461   5.140   4.068 -0.5408 -1.0212  0.3292
18456TIP3   OH276782   3.892   4.250   4.146  0.4153 -0.4618  0.6290
18456TIP3    H176783   3.895   4.327   4.203 -2.2638  0.7944 -0.8344
18456TIP3    H276784   3.955   4.268   4.077  1.4598 -0.6259  1.5333
18457TIP3   OH276785   5.683   4.131  11.829  0.7597  0.5567 -0.0566
18457TIP3    H176786   5.668   4.223  11.853 -0.3546  0.0579  1.2310
18457TIP3    H276787   5.637   4.081  11.897  1.5619 -0.9596 -0.6085
18458TIP3   OH276788   4.957   5.060  10.773  0.0471 -0.1925  0.2666
18458TIP3    H176789   4.984   4.997  10.705 -0.5350  1.3360 -1.4249
18458TIP3    H276790   4.885   5.109  10.732 -1.0671  0.0099  2.4190
18459TIP3   OH276791   5.360   2.108  11.314 -0.1462 -0.0245  0.0199
18459TIP3    H176792   5.297   2.171  11.348  1.0835  0.8279  0.7908
18459TIP3    H276793   5.358   2.121  11.219  0.3694  1.4737  0.1911
18460TIP3   OH276794   0.416   2.856   6.088 -0.1555  0.2137 -0.7217
18460TIP3    H176795   0.328   2.819   6.091 -0.6081  1.3004 -0.4467
18460TIP3    H276796   0.408   2.942   6.129  0.8175  0.7605 -1.6470
18461TIP3   OH276797   2.945   0.051   4.294  0.1723  0.1361  0.3099
18461TIP3    H176798   2.851   0.060   4.274 -0.3210 -1.5543  1.7472
18461TIP3    H276799   2.957   0.104   4.373  0.0128 -1.0780  1.1752
18462TIP3   OH276800   3.282   2.387  12.342 -0.1920 -0.4590  0.0860
18462TIP3    H176801   3.348   2.322  12.367 -1.3031 -1.1542  1.3110
18462TIP3    H276802   3.200   2.337  12.339 -0.8829  0.6761 -0.0120
18463TIP3   OH276803   4.304   0.683   1.588  0.1433  0.7451 -0.4359
18463TIP3    H176804   4.324   0.624   1.661 -0.0034  1.5206  0.2465
18463TIP3    H276805   4.210   0.701   1.598 -0.1098  0.0079 -1.4544
18464TIP3   OH276806   2.946   5.475  14.456  0.3815 -0.1646  0.2078
18464TIP3    H176807   2.873   5.441  14.404 -0.0427  1.4169 -0.2559
18464TIP3    H276808   3.009   5.505  14.391  1.5392 -1.6665  0.6078
18465TIP3   OH276809   3.785   3.939  14.167 -0.1248 -0.2912 -0.4690
18465TIP3    H176810   3.716   3.990  14.210  0.8904  0.1096  0.7059
18465TIP3    H276811   3.861   3.947  14.225  0.6241 -1.5442 -1.2455
18466TIP3   OH276812   0.798   5.071  13.381  0.3788  0.0980  0.5794
18466TIP3    H176813   0.878   5.101  13.338  0.8141 -0.1487  1.2095
18466TIP3    H276814   0.811   4.978  13.395 -0.1034  0.0188  0.5051
18467TIP3   OH276815   3.096   5.292   3.578 -0.0314 -0.2002  0.0907
18467TIP3    H176816   3.088   5.231   3.651  3.1465 -2.0680 -1.0293
18467TIP3    H276817   3.053   5.249   3.505  2.0018 -1.0693 -0.6382
18468TIP3   OH276818   5.565   4.500  16.993 -0.1112  0.3565 -0.0332
18468TIP3    H176819   5.645   4.460  16.960 -1.9296 -0.9382 -3.0333
18468TIP3    H276820   5.525   4.432  17.047 -0.0985  0.3735 -0.0007
18469TIP3   OH276821   2.662   4.828   1.402  0.1472 -0.0332 -0.2214
18469TIP3    H176822   2.573   4.855   1.425  0.3053  0.9245 -0.6967
18469TIP3    H276823   2.686   4.765   1.470 -0.9557 -0.4268 -0.1904
18470TIP3   OH276824   0.078   4.226   0.867  0.4611  0.6392  0.5459
18470TIP3    H176825   0.048   4.284   0.796 -1.6182 -2.2384 -1.0063
18470TIP3    H276826   0.098   4.143   0.823  0.8857 -0.6423  3.0964
18471TIP3   OH276827   3.277   3.371  13.856 -0.2284 -0.1878 -0.3062
18471TIP3    H176828   3.347   3.433  13.839  0.3292 -0.6155  0.4045
18471TIP3    H276829   3.217   3.418  13.914 -0.9261  0.4393 -1.5170
18472TIP3   OH276830   0.777   5.515  10.772 -0.1135  0.0844 -0.3942
18472TIP3    H176831   0.719   5.582  10.736 -0.7666 -1.0138 -1.4241
18472TIP3    H276832   0.772   5.443  10.709  1.5365 -0.4496  0.0633
18473TIP3   OH276833   4.480   2.555  13.393  0.4901 -0.5244 -0.6756
18473TIP3    H176834   4.485   2.612  13.470 -0.1612  1.8027 -2.2909
18473TIP3    H276835   4.410   2.494  13.414  1.1615 -0.7327  1.0817
18474TIP3   OH276836   1.654   4.788   5.091  0.0959  0.0470  0.6113
18474TIP3    H176837   1.631   4.697   5.105  0.0946  0.2455  1.9632
18474TIP3    H276838   1.702   4.814   5.169  0.9540  0.9325 -0.1869
18475TIP3   OH276839   5.972   4.754  11.939 -0.0627 -0.4128  0.1236
18475TIP3    H176840   6.000   4.824  11.999 -0.5256  0.5481 -0.7746
18475TIP3    H276841   5.913   4.699  11.993  0.5519 -0.3001  0.9190
18476TIP3   OH276842   0.916   0.470  16.843 -0.3970 -0.4651 -0.0992
18476TIP3    H176843   0.956   0.520  16.773 -1.8215 -0.4159 -0.8967
18476TIP3    H276844   0.907   0.381  16.808  2.9252 -1.5666  1.6161
18477TIP3   OH276845   0.819   3.881   5.645  0.8025  0.5923 -0.0334
18477TIP3    H176846   0.782   3.929   5.719 -0.3651  0.4798 -0.5392
18477TIP3    H276847   0.832   3.793   5.678 -1.0836  0.1640 -0.3794
18478TIP3   OH276848   0.889   4.918   5.172 -0.0517  0.0495 -0.0268
18478TIP3    H176849   0.982   4.943   5.171  0.3004 -1.2270 -1.2356
18478TIP3    H276850   0.864   4.923   5.264  0.8112  1.8248  0.1409
18479TIP3   OH276851   6.229   5.864  14.283  0.5573 -0.2166  0.2635
18479TIP3    H176852   6.150   5.916  14.295  0.8601 -0.3968  3.4751
18479TIP3    H276853   6.248   5.870  14.189 -2.4312  1.0017 -0.3151
18480TIP3   OH276854   2.519   1.289  11.873 -0.4027 -0.1643  0.4902
18480TIP3    H176855   2.595   1.347  11.870 -1.9924  1.9533 -0.3753
18480TIP3    H276856   2.449   1.343  11.909 -2.0146 -1.4466 -0.6247
18481TIP3   OH276857   5.547   1.214  11.863  0.2035  0.3517 -0.9124
18481TIP3    H176858   5.600   1.265  11.803  0.2005  1.4768  0.0375
18481TIP3    H276859   5.470   1.269  11.881  1.1503  0.8971  1.6814
18482TIP3   OH276860   1.233   6.123   0.307 -0.8424 -0.2567  0.4730
18482TIP3    H176861   1.264   6.104   0.395 -0.5684 -0.4562  0.3326
18482TIP3    H276862   1.282   6.064   0.250  0.0620  0.9082  0.0203
18483TIP3   OH276863   0.982   5.877   0.205 -0.5429  0.1944 -0.3182
18483TIP3    H176864   1.054   5.919   0.158 -0.5301 -0.2992 -0.7476
18483TIP3    H276865   0.903   5.916   0.168 -0.5204  0.1011 -0.4659
18484TIP3   OH276866   2.790   4.846  13.049  0.3359 -0.1191  0.2851
18484TIP3    H176867   2.872   4.850  13.099  0.1258 -0.5854  0.6745
18484TIP3    H276868   2.800   4.912  12.981  1.7929 -1.4276 -0.8163
18485TIP3   OH276869   3.536   0.190   4.843 -0.0039  0.1767  0.4109
18485TIP3    H176870   3.587   0.243   4.781 -1.2053  0.3816 -0.4032
18485TIP3    H276871   3.553   0.230   4.928  0.7211  0.6173  0.0649
18486TIP3   OH276872   4.280   3.614   5.837 -0.1332 -0.4904 -0.2831
18486TIP3    H176873   4.189   3.587   5.825 -0.2369 -0.4232  0.3311
18486TIP3    H276874   4.295   3.681   5.771 -0.3213 -1.0018 -0.8437
18487TIP3   OH276875   0.825   5.532  15.146  0.0285  0.3825 -0.4587
18487TIP3    H176876   0.829   5.578  15.230  0.3327  1.1324 -0.8768
18487TIP3    H276877   0.758   5.464  15.159  0.3904  0.2039  0.5247
18488TIP3   OH276878   2.711   4.193   2.373 -0.4643  0.3859  0.5510
18488TIP3    H176879   2.700   4.211   2.466  0.9773  1.6932  0.4978
18488TIP3    H276880   2.684   4.274   2.330 -0.1096  0.1596 -0.1034
18489TIP3   OH276881   4.627   2.063   1.511  0.4780  0.2956  0.1984
18489TIP3    H176882   4.607   1.979   1.551  1.0361 -0.9827 -2.1275
18489TIP3    H276883   4.718   2.055   1.483  0.4367  1.5478 -0.3393
18490TIP3   OH276884   4.880   5.184  13.178 -0.3789 -0.1151  0.8618
18490TIP3    H176885   4.940   5.236  13.231 -0.5345  4.0059 -2.7314
18490TIP3    H276886   4.793   5.212  13.204 -0.5879 -1.0475  1.2070
18491TIP3   OH276887   4.914   6.375   3.868 -0.4231 -0.2384 -0.1889
18491TIP3    H176888   4.907   6.345   3.959 -0.6026 -0.6016 -0.3199
18491TIP3    H276889   4.970   6.452   3.872 -0.2103 -0.4110  0.1959
18492TIP3   OH276890   2.244   2.688  13.573  0.2429 -0.2847  0.2761
18492TIP3    H176891   2.219   2.741  13.497  1.3105  1.2991  1.0244
18492TIP3    H276892   2.189   2.610  13.566 -1.9340  1.2656 -0.4079
18493TIP3   OH276893   5.576   0.367   2.244 -0.0630 -0.2578  0.1777
18493TIP3    H176894   5.620   0.310   2.307 -2.6576 -1.9700  0.5184
18493TIP3    H276895   5.643   0.386   2.178  2.0306 -0.2936  2.2162
18494TIP3   OH276896   3.308   3.172   0.481 -0.0748  0.2941  0.3204
18494TIP3    H176897   3.223   3.133   0.463 -0.0400  0.7718 -0.9556
18494TIP3    H276898   3.318   3.167   0.576 -2.0286  1.2513  0.5861
18495TIP3   OH276899   5.667   0.098   0.211 -0.2842  0.1153  0.1932
18495TIP3    H176900   5.602   0.095   0.140  1.4324 -0.8104 -1.3762
18495TIP3    H276901   5.723   0.173   0.189 -0.4979  0.5897  1.2555
18496TIP3   OH276902   5.794   3.893  12.990  0.5800 -0.7761 -0.2626
18496TIP3    H176903   5.820   3.803  12.972  0.0358 -0.7902 -1.0089
18496TIP3    H276904   5.826   3.942  12.914  0.9590 -0.3284  0.1856
18497TIP3   OH276905   1.439   0.573  11.857 -0.5331 -0.6052  0.1272
18497TIP3    H176906   1.352   0.576  11.896  0.0091  0.5819  1.3037
18497TIP3    H276907   1.474   0.661  11.871  1.3563 -1.4541  0.8606
18498TIP3   OH276908   5.669   3.192   1.397 -0.2532  0.0707  0.4340
18498TIP3    H176909   5.747   3.247   1.395 -0.0407 -0.2627 -1.3394
18498TIP3    H276910   5.596   3.254   1.399  0.0227  0.4103  0.1083
18499TIP3   OH276911   0.350   1.274   5.892  0.2497 -0.3336 -0.2743
18499TIP3    H176912   0.344   1.344   5.827  0.4271 -0.2492 -0.1996
18499TIP3    H276913   0.270   1.283   5.944  0.0985 -0.4132 -0.4940
18500TIP3   OH276914   5.929   6.632   1.685  0.0342  0.2574 -0.6755
18500TIP3    H176915   6.012   6.623   1.731  0.7710  1.7725 -1.6725
18500TIP3    H276916   5.870   6.569   1.729  1.0352  0.8138  1.5280
18501TIP3   OH276917   3.300   0.032   2.398  0.5166 -0.5130 -0.1263
18501TIP3    H176918   3.238   0.021   2.326  2.2091 -3.3744 -1.2448
18501TIP3    H276919   3.373   0.082   2.361  0.3360  0.0328  0.2540
18502TIP3   OH276920   1.316   0.426  14.718  0.5684  0.4736 -0.1469
18502TIP3    H176921   1.301   0.445  14.810 -2.0042 -3.0896  0.2723
18502TIP3    H276922   1.410   0.437  14.706  0.9854  0.7062  2.9800
18503TIP3   OH276923   4.454   0.474   5.133  0.0230 -0.5067  0.7827
18503TIP3    H176924   4.363   0.446   5.144  0.0581  0.1760  3.1366
18503TIP3    H276925   4.505   0.394   5.144 -0.2891 -0.9720 -0.9872
18504TIP3   OH276926   1.059   4.292  15.403 -0.4642  0.3541 -0.4312
18504TIP3    H176927   1.088   4.349  15.332 -1.0386  0.5570 -0.5049
18504TIP3    H276928   1.030   4.353  15.472 -2.5972  0.1605 -1.1343
18505TIP3   OH276929   2.623   5.417   2.440  0.2204 -0.4408 -0.5188
18505TIP3    H176930   2.621   5.504   2.400  0.2740 -0.3846 -0.3990
18505TIP3    H276931   2.539   5.410   2.485 -0.9883 -1.5563 -2.8666
18506TIP3   OH276932   3.904   3.301  12.744  0.9213  0.2781  0.3418
18506TIP3    H176933   3.862   3.219  12.771  0.5838 -0.4229 -2.1836
18506TIP3    H276934   3.861   3.368  12.797 -1.8431 -0.6974 -0.5685
18507TIP3   OH276935   4.047   0.817  15.793  0.2886  0.3183  0.2877
18507TIP3    H176936   4.080   0.827  15.703 -1.7053 -1.6034 -0.7304
18507TIP3    H276937   3.958   0.783  15.781  0.2774 -0.7039  3.0174
18508TIP3   OH276938   5.923   1.179   0.765  0.4654 -0.2680 -0.2346
18508TIP3    H176939   6.015   1.159   0.782  0.1512 -0.5070  1.2331
18508TIP3    H276940   5.917   1.274   0.771  0.8675 -0.1424 -1.6580
18509TIP3   OH276941   2.544   0.888   5.763 -0.3273  0.7425  0.4184
18509TIP3    H176942   2.544   0.870   5.669 -0.1052  1.3778  0.2939
18509TIP3    H276943   2.572   0.805   5.803 -1.2357  0.2246 -0.0192
18510TIP3   OH276944   3.671   5.405  16.483 -0.4780  0.0440 -0.2621
18510TIP3    H176945   3.756   5.361  16.484  0.3988  1.7087  0.3201
18510TIP3    H276946   3.689   5.492  16.519 -2.1334  0.9343 -1.5451
18511TIP3   OH276947   6.123   1.571  12.878 -0.3777  0.6172 -0.3302
18511TIP3    H176948   6.173   1.524  12.812 -0.6760 -0.9121  0.5139
18511TIP3    H276949   6.075   1.637  12.829 -1.2723 -1.0630 -1.7561
18512TIP3   OH276950   1.853   2.143  15.681  0.0688  0.3408  0.0019
18512TIP3    H176951   1.948   2.129  15.686  0.2586  2.0859  1.3797
18512TIP3    H276952   1.816   2.057  15.701  1.3321 -0.3349 -0.4504
18513TIP3   OH276953   3.083   1.293  14.383  0.4100  0.2112 -0.3436
18513TIP3    H176954   3.162   1.347  14.394  0.7406 -0.3682  0.1522
18513TIP3    H276955   3.016   1.355  14.357  0.9363  0.7776 -0.3762
18514TIP3   OH276956   5.931   6.645   6.244 -0.4878 -0.6144 -0.1782
18514TIP3    H176957   5.902   6.734   6.222  1.1641 -0.2504 -1.0061
18514TIP3    H276958   5.867   6.613   6.307 -1.6273  0.8212 -0.5804
18515TIP3   OH276959   6.235   4.312  14.995 -0.2491  0.1389  0.2109
18515TIP3    H176960   6.153   4.351  14.966  0.0690  1.5972  1.2121
18515TIP3    H276961   6.300   4.344  14.933 -0.2796 -0.2999 -0.0531
18516TIP3   OH276962   3.534   4.538   5.143 -0.8637 -0.2204 -0.2891
18516TIP3    H176963   3.539   4.536   5.048  0.3968 -1.0556 -0.2094
18516TIP3    H276964   3.526   4.631   5.165  1.0422  0.1435 -1.1014
18517TIP3   OH276965   5.870   2.143  15.908 -0.0793 -0.0859  0.0162
18517TIP3    H176966   5.911   2.188  15.981 -0.3846 -0.0317  0.1553
18517TIP3    H276967   5.941   2.092  15.868 -0.2792 -1.5379  1.4372
18518TIP3   OH276968   3.191   0.281  11.566  0.3546  0.3392 -0.0070
18518TIP3    H176969   3.158   0.191  11.554  1.5580 -0.0611 -0.3715
18518TIP3    H276970   3.115   0.337  11.547 -0.9750 -0.6369  2.1342
18519TIP3   OH276971   1.329   5.815   5.864  0.0318  0.1892 -0.0003
18519TIP3    H176972   1.372   5.762   5.797 -0.1587  0.1655 -0.1057
18519TIP3    H276973   1.261   5.863   5.817 -1.2698 -1.1476  0.4385
18520TIP3   OH276974   1.529   6.283  16.268 -0.2990 -0.0695  0.2851
18520TIP3    H176975   1.621   6.300  16.245  0.3573 -1.0838  2.0645
18520TIP3    H276976   1.515   6.191  16.245 -0.6306 -0.1466  0.8014
18521TIP3   OH276977   6.427   0.888  16.817  0.2639  0.1000 -0.0877
18521TIP3    H176978   6.465   0.969  16.782  1.2456 -0.2744  0.0676
18521TIP3    H276979   6.417   0.831  16.741  0.0892  0.1773 -0.1214
18522TIP3   OH276980   2.445   1.616  17.152 -0.1965 -0.1280  0.0628
18522TIP3    H176981   2.436   1.685  17.087  0.9423 -0.3160 -0.3040
18522TIP3    H276982   2.359   1.611  17.194 -0.9858 -0.0731 -1.4989
18523TIP3   OH276983   5.488   4.872  16.075  0.2467 -0.3102  0.4847
18523TIP3    H176984   5.479   4.967  16.082  2.4741  0.1273 -1.8576
18523TIP3    H276985   5.410   4.837  16.118 -1.0431  2.5937  0.6112
18524TIP3   OH276986   1.548   4.816   6.373 -0.2715 -0.3871 -0.4510
18524TIP3    H176987   1.586   4.837   6.288 -1.0391 -0.6326 -0.8672
18524TIP3    H276988   1.538   4.720   6.372 -1.0593 -0.3127 -0.4341
18525TIP3   OH276989   4.975   4.444   0.469  0.2068 -0.0547 -0.4823
18525TIP3    H176990   4.908   4.404   0.414  0.0267  0.5628 -0.7189
18525TIP3    H276991   4.935   4.524   0.502  0.0084 -0.8699  1.2659
18526TIP3   OH276992   4.966   1.594   5.982  0.1106 -0.0147  0.4759
18526TIP3    H176993   4.899   1.619   6.046  0.8565  0.1989  1.1849
18526TIP3    H276994   5.039   1.561   6.035  0.6213 -0.1195 -0.2827
18527TIP3   OH276995   5.615   3.809  16.711 -0.0234 -0.0197  0.2829
18527TIP3    H176996   5.669   3.850  16.643 -0.3642  0.1753  0.1314
18527TIP3    H276997   5.527   3.843  16.696  0.2607  1.5852  2.0574
18528TIP3   OH276998   6.096   2.778   5.206 -0.1014 -0.0168  0.1130
18528TIP3    H176999   6.099   2.705   5.267 -1.0164  1.2902  1.7741
18528TIP3    H277000   6.179   2.824   5.218 -0.0319 -0.0934 -0.0685
18529TIP3   OH277001   5.896   4.603  14.022 -0.2306 -0.0546 -0.0334
18529TIP3    H177002   5.809   4.568  14.044 -0.1761 -0.3640 -0.3118
18529TIP3    H277003   5.935   4.625  14.107  1.0182 -3.7019  0.4482
18530TIP3   OH277004   4.521   3.360  16.890  0.6547  0.3259 -0.1313
18530TIP3    H177005   4.430   3.359  16.919  0.1809  2.6755 -1.3816
18530TIP3    H277006   4.522   3.308  16.810  1.0861 -2.4296  1.6215
18531TIP3   OH277007   1.868   3.362  12.549 -0.0929  0.3983 -0.0517
18531TIP3    H177008   1.823   3.290  12.593  0.1733 -1.0996 -2.1073
18531TIP3    H277009   1.798   3.410  12.504  0.1258 -0.9427 -1.8863
18532TIP3   OH277010   3.065   6.020   5.027 -0.4945 -0.8286 -0.8552
18532TIP3    H177011   3.084   5.955   5.094 -0.7475 -1.1115 -1.0577
18532TIP3    H277012   3.126   6.092   5.046 -1.9854  0.0184  0.9895
18533TIP3   OH277013   2.927   3.782   2.628 -0.2301  0.2958  0.4344
18533TIP3    H177014   2.892   3.701   2.591 -0.3667  0.7998 -0.5654
18533TIP3    H277015   2.919   3.846   2.557  1.3535  0.7908  0.6795
18534TIP3   OH277016   1.488   1.816   3.232  0.3021 -0.3327 -0.0956
18534TIP3    H177017   1.521   1.896   3.191 -0.7353 -0.2673 -0.8052
18534TIP3    H277018   1.560   1.754   3.225  0.5924  0.0826 -0.8572
18535TIP3   OH277019   1.754   5.174  14.717 -0.1468 -0.4556  0.4109
18535TIP3    H177020   1.817   5.197  14.785  0.4448  0.9957 -0.5989
18535TIP3    H277021   1.790   5.094  14.678  1.5960  0.8187 -0.7326
18536TIP3   OH277022   6.667   5.341  11.767 -0.5259 -0.7346  0.5838
18536TIP3    H177023   6.613   5.293  11.830 -0.9603 -0.5908  0.3245
18536TIP3    H277024   6.603   5.385  11.710 -0.1428 -1.1304 -0.1589
18537TIP3   OH277025   1.863   3.522  17.106 -0.3429  0.5495  0.3041
18537TIP3    H177026   1.900   3.446  17.152 -1.0765  0.5505  0.9025
18537TIP3    H277027   1.872   3.594  17.168 -0.2115  0.8194 -0.0310
18538TIP3   OH277028   6.134   1.690   4.712  0.5793  0.2698 -0.4533
18538TIP3    H177029   6.190   1.768   4.711  0.2216  0.5375 -0.1177
18538TIP3    H277030   6.172   1.634   4.779 -0.1143  0.8826  0.4798
18539TIP3   OH277031   0.760   3.922   3.392 -0.4047  0.5874 -0.3133
18539TIP3    H177032   0.704   3.844   3.393 -0.7320  0.8300  0.6097
18539TIP3    H277033   0.778   3.940   3.484 -1.1371  2.1842 -0.4627
18540TIP3   OH277034   6.521   6.183  13.685  0.0440 -0.2791  0.1500
18540TIP3    H177035   6.507   6.277  13.682 -0.3821 -0.3228  0.6228
18540TIP3    H277036   6.580   6.169  13.759 -0.4484 -0.4412  0.5213
18541TIP3   OH277037   4.093   2.038   4.122  0.2523 -0.2387  0.1398
18541TIP3    H177038   4.056   2.089   4.050  0.8010  0.8926  0.6544
18541TIP3    H277039   4.058   2.078   4.201 -0.4520 -1.5626  0.5114
18542TIP3   OH277040   6.238   1.685  15.242  0.1878 -0.5495  0.2094
18542TIP3    H177041   6.246   1.690  15.338 -1.0460 -1.3037  0.3594
18542TIP3    H277042   6.307   1.743  15.210  0.5831 -0.2403  1.5590
18543TIP3   OH277043   2.541   4.399   4.427 -0.3308  0.2246 -0.2552
18543TIP3    H177044   2.500   4.424   4.345 -1.0745  0.1100  0.0714
18543TIP3    H277045   2.550   4.304   4.421 -3.0615 -0.1709  0.9608
18544TIP3   OH277046   1.366   3.676   4.161  0.3001 -0.7689 -0.7456
18544TIP3    H177047   1.410   3.622   4.095 -1.9820 -2.1508 -1.1914
18544TIP3    H277048   1.334   3.753   4.113 -1.3323 -1.7586 -1.2950
18545TIP3   OH277049   6.434   4.694  13.228 -0.5873  0.4552 -0.0019
18545TIP3    H177050   6.345   4.729  13.231  0.1268  2.2507  1.0072
18545TIP3    H277051   6.431   4.616  13.283 -1.1410  1.4702  1.4383
18546TIP3   OH277052   5.792   2.604  16.145 -0.1512  0.5788  0.0852
18546TIP3    H177053   5.827   2.517  16.125 -0.7704  0.3743 -0.1441
18546TIP3    H277054   5.861   2.647  16.196 -0.5754 -0.7214  1.7996
18547TIP3   OH277055   1.450   0.480   4.529 -0.0706  0.2896 -0.0362
18547TIP3    H177056   1.467   0.388   4.508  3.1185  0.6871  0.5368
18547TIP3    H277057   1.445   0.523   4.444 -0.6698 -0.2767 -0.2902
18548TIP3   OH277058   6.321   2.382   2.146 -0.0274  0.0214 -0.3356
18548TIP3    H177059   6.241   2.359   2.195 -0.3638  2.5875  0.3984
18548TIP3    H277060   6.378   2.421   2.212  0.6333  0.9571 -1.4544
18549TIP3   OH277061   3.517   3.365  15.796 -0.1914  0.0017  0.4441
18549TIP3    H177062   3.515   3.444  15.741  0.5497 -0.4708 -0.2739
18549TIP3    H277063   3.430   3.327  15.786 -0.3855  0.4561  0.3887
18550TIP3   OH277064   2.204   5.544   1.964 -0.1716  0.6385  0.4635
18550TIP3    H177065   2.122   5.506   1.996  0.3553  0.5747  1.7569
18550TIP3    H277066   2.176   5.620   1.913 -0.9742  1.3714  1.9770
18551TIP3   OH277067   6.138   1.859   0.015  0.0899  0.4013  0.1785
18551TIP3    H177068   6.131   1.804  -0.062 -0.9710  0.2122  0.4038
18551TIP3    H277069   6.054   1.904   0.020 -0.1068 -0.1222  1.6320
18552TIP3   OH277070   4.650   4.958   1.226 -0.3507  0.3321  0.9198
18552TIP3    H177071   4.636   4.915   1.142 -1.0046  0.5313  0.9216
18552TIP3    H277072   4.740   4.937   1.250 -0.3053 -0.0846  0.3768
18553TIP3   OH277073   5.874   4.329   3.782 -0.4440  0.4065  0.0028
18553TIP3    H177074   5.781   4.344   3.767 -0.4103  0.3643 -0.2682
18553TIP3    H277075   5.878   4.278   3.863 -0.6652  0.2820 -0.0644
18554TIP3   OH277076   4.131   3.965   3.376  0.1662 -0.0567 -0.2382
18554TIP3    H177077   4.186   3.898   3.418  1.5819  0.9371 -0.4835
18554TIP3    H277078   4.180   4.046   3.386 -1.8325  1.0867  0.5975
18555TIP3   OH277079   2.085   2.683   1.220  0.2135  0.1226 -0.1298
18555TIP3    H177080   2.053   2.594   1.230  1.6279 -0.3805 -0.0392
18555TIP3    H277081   2.154   2.677   1.154  1.3978  0.8774  1.0114
18556TIP3   OH277082   4.366   2.470  16.433  0.3850  0.1452 -0.2122
18556TIP3    H177083   4.324   2.531  16.373  0.2205 -0.7212 -0.9899
18556TIP3    H277084   4.322   2.485  16.517 -1.4924 -0.7322 -1.0078
18557TIP3   OH277085   3.698   4.338   5.825 -0.2392 -0.2034 -0.3395
18557TIP3    H177086   3.698   4.432   5.808 -1.8745 -0.1481 -0.1655
18557TIP3    H277087   3.632   4.304   5.764 -0.1882 -1.1297  0.1183
18558TIP3   OH277088   5.544   5.363   0.329 -0.4716  0.1008 -0.3591
18558TIP3    H177089   5.548   5.338   0.237  0.0869  0.5246 -0.4552
18558TIP3    H277090   5.564   5.283   0.377  1.9138  0.4673 -0.6737
18559TIP3   OH277091   6.340   6.776   4.743  0.0788  0.3814  0.0060
18559TIP3    H177092   6.322   6.707   4.807  1.5120  1.4490  1.5957
18559TIP3    H277093   6.380   6.730   4.669  2.0181 -0.3695  1.4947
18560TIP3   OH277094   4.560   0.557   1.256 -0.3021 -0.4188  0.1520
18560TIP3    H177095   4.478   0.593   1.220 -0.2700 -1.4120 -0.9353
18560TIP3    H277096   4.571   0.603   1.339 -1.9569 -0.2524  0.3091
18561TIP3   OH277097   3.221   1.056  10.634 -0.0450 -0.0515  0.0753
18561TIP3    H177098   3.257   0.967  10.635 -0.4655 -0.2104  1.0468
18561TIP3    H277099   3.136   1.047  10.591  0.7831  0.2203 -1.6516
18562TIP3   OH277100   6.250   1.465  17.153 -0.9659  0.5390 -0.4032
18562TIP3    H177101   6.283   1.379  17.179 -0.7430  0.8001  0.1982
18562TIP3    H277102   6.221   1.505  17.235 -2.2915  0.5247 -0.8606
18563TIP3   OH277103   3.308   2.110  15.749 -0.6972 -0.3208  0.3846
18563TIP3    H177104   3.338   2.022  15.771 -0.7504 -0.3133  0.4898
18563TIP3    H277105   3.379   2.167  15.777 -0.5140 -0.3578 -0.0006
18564TIP3   OH277106   3.844   6.079   6.290 -0.0501  0.0179 -0.0956
18564TIP3    H177107   3.858   6.003   6.235 -0.1072  0.1999 -0.3625
18564TIP3    H277108   3.932   6.106   6.318 -0.0387 -0.2141  0.0910
18565TIP3   OH277109   3.140   4.133  13.650  0.5816  0.2992  0.0817
18565TIP3    H177110   3.084   4.203  13.618 -0.2209 -0.2485  0.2797
18565TIP3    H277111   3.104   4.053  13.612 -0.3897 -0.3609  2.3100
18566TIP3   OH277112   4.022   3.026  13.910 -0.0852 -0.2913  0.2999
18566TIP3    H177113   4.089   2.961  13.886  0.4661  0.4147 -0.0886
18566TIP3    H277114   4.012   3.079  13.831 -0.6354  0.0087  0.5759
18567TIP3   OH277115   0.969   1.961  14.268 -0.1272 -0.4435  0.6177
18567TIP3    H177116   0.984   2.051  14.238 -2.3832 -0.8520 -1.8874
18567TIP3    H277117   0.964   1.968  14.363  2.2414  1.6634  0.6486
18568TIP3   OH277118   2.915   3.438   5.652  0.2536 -0.1198  0.2290
18568TIP3    H177119   2.975   3.430   5.727 -0.0566 -2.1471  0.2889
18568TIP3    H277120   2.973   3.457   5.578  0.9914 -2.0140  0.2962
18569TIP3   OH277121   1.635   3.590   0.137  0.7195  0.9708 -0.4336
18569TIP3    H177122   1.582   3.631   0.068  0.5331 -1.0545 -1.5433
18569TIP3    H277123   1.717   3.639   0.136  0.7981  0.8516 -2.2753
18570TIP3   OH277124   3.479   3.584   0.298 -0.1006 -0.4541  0.2670
18570TIP3    H177125   3.550   3.635   0.335 -1.0365  1.0092  0.0713
18570TIP3    H277126   3.401   3.615   0.344 -0.7211 -1.4955 -0.0684
18571TIP3   OH277127   0.032   2.724  12.793  0.0746  0.4832  0.4746
18571TIP3    H177128   0.031   2.805  12.844 -0.0021 -0.0951  1.4179
18571TIP3    H277129  -0.005   2.748  12.708  0.6802  1.5847  0.5092
18572TIP3   OH277130   6.253   4.983  14.473  0.4373 -0.1943 -0.5601
18572TIP3    H177131   6.202   5.002  14.394 -0.5481 -2.1827 -0.4291
18572TIP3    H277132   6.340   4.959  14.440  0.4747  0.4604 -0.9431
18573TIP3   OH277133   3.158   6.604  17.233  0.1750  0.7947 -0.6449
18573TIP3    H177134   3.125   6.514  17.244  1.2381  0.3818 -0.7632
18573TIP3    H277135   3.227   6.595  17.167  1.5471  1.4041  0.7044
18574TIP3   OH277136   1.772   5.088  14.335 -0.0491 -0.2357  0.0032
18574TIP3    H177137   1.753   5.100  14.242 -0.6373  0.6967  0.2238
18574TIP3    H277138   1.867   5.083  14.341  0.0989  1.5559 -0.4657
18575TIP3   OH277139   0.598   1.431  13.513  0.1082  0.1616 -0.3573
18575TIP3    H177140   0.645   1.459  13.591  2.1987 -1.1336 -1.1129
18575TIP3    H277141   0.593   1.510  13.459  0.3788  0.5885  0.2330
18576TIP3   OH277142   6.533   6.178   1.673 -0.3673 -0.2713  0.6073
18576TIP3    H177143   6.590   6.203   1.746 -0.3239  0.4911  0.3140
18576TIP3    H277144   6.584   6.115   1.623 -0.5590 -1.1253  1.4760
18577TIP3   OH277145   2.688   3.231   0.377  0.0814 -0.5499 -0.4382
18577TIP3    H177146   2.718   3.201   0.292 -1.1949 -0.6871 -0.8512
18577TIP3    H277147   2.612   3.286   0.358  0.6837  0.6467  0.5018
18578TIP3   OH277148   5.401   4.702   3.457  0.4709 -0.1312  0.2056
18578TIP3    H177149   5.312   4.688   3.425  0.1426 -0.0534  1.0661
18578TIP3    H277150   5.454   4.711   3.378 -0.1394 -1.0779 -0.3173
18579TIP3   OH277151   3.190   6.073  13.816  0.1419 -0.4502  0.3129
18579TIP3    H177152   3.255   6.143  13.820  0.1162 -0.4130  0.0625
18579TIP3    H277153   3.159   6.073  13.726 -0.9835  0.2315  0.6935
18580TIP3   OH277154   2.716   0.882   3.475  0.3191  0.2217  0.0100
18580TIP3    H177155   2.717   0.921   3.387  1.7581 -0.0209 -0.1009
18580TIP3    H277156   2.651   0.933   3.523 -0.9869 -0.0677 -1.3820
18581TIP3   OH277157   6.092   1.092   5.693  0.6003 -0.1375  0.1638
18581TIP3    H177158   6.010   1.108   5.738  1.2381  1.1970  0.8961
18581TIP3    H277159   6.072   1.025   5.628 -1.0513  0.1686  0.3491
18582TIP3   OH277160   6.032   0.920   3.649 -0.7780  0.3986 -0.1171
18582TIP3    H177161   6.122   0.905   3.619 -0.8243 -0.2953  0.0810
18582TIP3    H277162   5.987   0.957   3.573 -0.2341  1.0905 -0.1098
18583TIP3   OH277163   4.297   1.466   5.029  0.4954  0.4172 -0.4497
18583TIP3    H177164   4.248   1.548   5.041 -1.7384 -0.7948 -0.9499
18583TIP3    H277165   4.231   1.402   5.003  2.2750 -1.4570 -0.5327
18584TIP3   OH277166   1.049   0.149   6.023 -0.1003 -0.9158 -0.8671
18584TIP3    H177167   1.076   0.181   6.109 -1.0587  0.3592 -1.0303
18584TIP3    H277168   0.979   0.087   6.041  0.3982 -1.4228 -0.6694
18585TIP3   OH277169   2.326   6.516  15.281  0.0758 -0.6290 -0.0124
18585TIP3    H177170   2.231   6.522  15.271  0.0136  1.4393  1.4943
18585TIP3    H277171   2.338   6.463  15.359  0.0944  0.9587  1.0787
18586TIP3   OH277172   2.761   1.893   5.565  0.3218 -0.0743  0.2182
18586TIP3    H177173   2.714   1.889   5.482  0.7905  1.5337 -0.1336
18586TIP3    H277174   2.819   1.817   5.563 -1.4624 -1.4795  0.2036
18587TIP3   OH277175   5.701   2.022  14.489 -0.2322 -0.2961  0.4745
18587TIP3    H177176   5.771   2.084  14.473 -0.4603 -0.0289  0.5159
18587TIP3    H277177   5.651   2.020  14.408  1.4573 -2.6026 -0.5801
18588TIP3   OH277178   2.387   0.246   2.248 -0.4225  0.0852 -0.3499
18588TIP3    H177179   2.402   0.184   2.177  0.3025  0.9119 -0.9360
18588TIP3    H277180   2.461   0.233   2.307 -0.6761 -0.1414 -0.0812
18589TIP3   OH277181   6.232   0.113  10.549  0.4821  0.0874 -0.4620
18589TIP3    H177182   6.249   0.207  10.550 -0.8664  0.3873 -2.0540
18589TIP3    H277183   6.318   0.073  10.538  1.0361  1.1553 -0.0451
18590TIP3   OH277184   0.260   5.013  12.611 -0.2275 -0.0232 -0.5155
18590TIP3    H177185   0.295   5.041  12.696 -0.2727  2.5585 -1.2971
18590TIP3    H277186   0.208   4.935  12.630 -1.0176  1.0832  1.9651
18591TIP3   OH277187   6.340   1.448   0.358 -0.0624 -0.2898 -0.0306
18591TIP3    H177188   6.300   1.432   0.443 -0.8787 -0.8430 -0.5093
18591TIP3    H277189   6.288   1.519   0.319  0.5520  0.2289  0.0972
18592TIP3   OH277190   1.173   0.247  15.345  0.0574  0.4083 -0.0738
18592TIP3    H177191   1.171   0.153  15.323 -2.3541  0.3642  0.1550
18592TIP3    H277192   1.265   0.270  15.344  0.5618 -1.5155 -2.1654
18593TIP3   OH277193   3.602   3.039  16.443  0.0852  0.0357 -0.4172
18593TIP3    H177194   3.565   2.958  16.478  1.4881 -1.0545 -1.3749
18593TIP3    H277195   3.596   3.029  16.348  0.9391  0.7227 -0.5466
18594TIP3   OH277196   0.735   6.460   4.354 -0.0706  0.1422  0.8508
18594TIP3    H177197   0.747   6.374   4.395 -1.1930 -0.8167 -0.7585
18594TIP3    H277198   0.640   6.469   4.345  0.1384  0.4702 -1.1981
18595TIP3   OH277199   5.946   1.960  13.821 -0.5645 -0.1207  0.1390
18595TIP3    H177200   6.041   1.965  13.816 -0.3576 -2.3184  1.4146
18595TIP3    H277201   5.915   1.985  13.734  1.1981 -0.2062 -0.5134
18596TIP3   OH277202   5.673   2.538  15.883 -0.4830  0.3175  0.3416
18596TIP3    H177203   5.668   2.553  15.978  0.3847 -0.5546  0.5329
18596TIP3    H277204   5.636   2.451  15.871  0.9820 -0.2917  0.0951
18597TIP3   OH277205   3.676   1.445  15.490  0.1582  0.1287  0.2105
18597TIP3    H177206   3.643   1.459  15.578  1.4711 -0.7619  0.8646
18597TIP3    H277207   3.675   1.350  15.479  0.4894  0.2087 -0.5425
18598TIP3   OH277208   5.767   6.646   5.381  0.3261  1.0597  0.4175
18598TIP3    H177209   5.793   6.637   5.473 -0.5932 -1.5880  0.4406
18598TIP3    H277210   5.795   6.564   5.340 -0.7124  1.5549 -1.3180
18599TIP3   OH277211   6.192   6.548  11.446 -0.2227  0.0315 -0.0623
18599TIP3    H177212   6.240   6.542  11.529  2.3665 -0.6712 -1.5425
18599TIP3    H277213   6.143   6.630  11.452 -2.5981 -1.5378  3.4242
18600TIP3   OH277214   2.441   3.125   5.839 -0.1674 -0.0693  0.2279
18600TIP3    H177215   2.411   3.214   5.820 -0.8945 -0.0513  1.4286
18600TIP3    H277216   2.362   3.072   5.839  0.5008 -1.1662 -2.8021
18601TIP3   OH277217   4.550   4.778  15.614  0.0812  0.1931 -0.2861
18601TIP3    H177218   4.637   4.767  15.574 -0.5644 -0.6368 -1.4831
18601TIP3    H277219   4.502   4.833  15.552 -0.6596 -0.4101 -0.2581
18602TIP3   OH277220   0.170   5.636  16.740 -0.1089 -0.0063  0.2047
18602TIP3    H177221   0.266   5.635  16.743 -0.1238  0.2957  0.8319
18602TIP3    H277222   0.143   5.623  16.830 -0.6669 -0.6480 -0.0573
18603TIP3   OH277223   2.789   5.458  13.279  0.6167 -0.1147  0.0811
18603TIP3    H177224   2.752   5.499  13.357 -1.1487  0.6344 -1.1028
18603TIP3    H277225   2.873   5.502  13.265  0.3799  0.5877  0.8743
18604TIP3   OH277226   3.755   1.671  15.115 -0.3088 -0.2130 -0.0820
18604TIP3    H177227   3.758   1.699  15.024 -2.2740 -2.0415 -0.7622
18604TIP3    H277228   3.724   1.747  15.163  0.0121  0.5252 -1.0307
18605TIP3   OH277229   1.679   2.303   2.746  0.1072 -0.0830 -0.0567
18605TIP3    H177230   1.774   2.313   2.757  0.0079  1.0014 -0.1893
18605TIP3    H277231   1.669   2.285   2.652  0.0991  0.7928 -0.2249
18606TIP3   OH277232   6.107   3.721   1.962 -0.9985 -0.4449 -0.3035
18606TIP3    H177233   6.188   3.768   1.980 -2.2450  0.4875  3.2005
18606TIP3    H277234   6.050   3.785   1.919 -2.9224  1.6450  5.0302
18607TIP3   OH277235   1.235   3.378  16.839 -0.0684  0.3442  0.1333
18607TIP3    H177236   1.151   3.343  16.808 -0.7872  0.1474  2.1850
18607TIP3    H277237   1.299   3.311  16.817 -0.1678  1.1810 -2.8610
18608TIP3   OH277238   1.860   3.006  15.796  0.9134 -0.3817 -0.5832
18608TIP3    H177239   1.840   2.913  15.803  1.1586 -0.3312  0.9734
18608TIP3    H277240   1.909   3.027  15.875 -1.1037  1.5562  0.2184
18609TIP3   OH277241   6.782   3.725  11.978 -0.1912 -0.6528 -0.0167
18609TIP3    H177242   6.865   3.727  11.930 -0.9241  0.0952 -1.3035
18609TIP3    H277243   6.741   3.810  11.958 -1.4303 -1.1620  0.2997
18610TIP3   OH277244   1.350   6.459  15.879 -0.8622 -0.2761 -0.5620
18610TIP3    H177245   1.291   6.383  15.878 -0.8528 -0.2756 -1.3088
18610TIP3    H277246   1.365   6.476  15.972 -1.5556 -0.6537 -0.3763
18611TIP3   OH277247   6.450   1.136  16.459 -0.2394  0.1894  0.4582
18611TIP3    H177248   6.366   1.129  16.503 -0.4576 -1.3870 -0.1947
18611TIP3    H277249   6.461   1.053  16.412  1.2665  0.7184 -0.1831
18612TIP3   OH277250   3.752   4.459   3.081 -0.2328 -0.6162 -0.6856
18612TIP3    H177251   3.811   4.530   3.056 -1.0068 -0.2513 -1.5485
18612TIP3    H277252   3.695   4.448   3.004 -1.3764 -0.8465  0.1788
18613TIP3   OH277253   1.126   6.007  15.150  0.0351 -0.2563 -0.0441
18613TIP3    H177254   1.187   6.055  15.095  0.2556 -0.0017  0.4213
18613TIP3    H277255   1.040   6.030  15.117  0.1945 -0.9429 -0.9763
18614TIP3   OH277256   3.246   2.492  13.491  0.3375  0.3004  0.3778
18614TIP3    H177257   3.243   2.502  13.586 -1.4158  0.3361  0.3420
18614TIP3    H277258   3.228   2.399  13.476 -1.6977  0.7343  0.0055
18615TIP3   OH277259   4.787   2.931  13.696 -0.6101 -0.6463 -0.4610
18615TIP3    H177260   4.831   2.848  13.679 -0.3850 -0.3872 -1.1692
18615TIP3    H277261   4.721   2.911  13.761  0.4831 -1.0691  0.5336
18616TIP3   OH277262   0.269   1.838   0.378  0.1638 -0.1883  0.3887
18616TIP3    H177263   0.296   1.748   0.396 -0.5137 -1.1807 -3.1949
18616TIP3    H277264   0.178   1.843   0.407  0.2882 -0.5575  0.8470
18617TIP3   OH277265   0.055   1.876   4.022  0.4309 -0.2877 -0.1903
18617TIP3    H177266   0.046   1.781   4.014  0.9604 -0.4636  1.3291
18617TIP3    H277267   0.025   1.897   4.110 -0.0914  1.0171 -0.6527
18618TIP3   OH277268   5.679   0.652  14.872 -0.5940  0.2400 -0.1759
18618TIP3    H177269   5.647   0.562  14.865  1.6060 -0.7164  1.3680
18618TIP3    H277270   5.628   0.690  14.944 -2.8840  0.8839 -2.0826
18619TIP3   OH277271   4.186   4.805  10.938  0.0560 -0.6060 -0.2434
18619TIP3    H177272   4.234   4.826  11.018  1.1167  2.0542 -1.4964
18619TIP3    H277273   4.247   4.751  10.887 -0.7876 -2.6726  0.8964
18620TIP3   OH277274   6.264   0.478   5.789 -0.1849  0.0979  0.0055
18620TIP3    H177275   6.284   0.569   5.812 -1.5833  0.7605 -1.3451
18620TIP3    H277276   6.349   0.435   5.784  0.5470  1.5450 -0.2148
18621TIP3   OH277277   0.591   2.933  14.009  0.4220  0.3533 -0.3216
18621TIP3    H177278   0.613   3.023  13.987 -0.2390 -0.0642 -2.8795
18621TIP3    H277279   0.662   2.881  13.970 -0.5937 -0.3983 -1.2136
18622TIP3   OH277280   5.412   2.042  12.037 -0.1821  0.0520 -0.3457
18622TIP3    H177281   5.449   2.126  12.061  1.0822 -0.6179  0.0634
18622TIP3    H277282   5.322   2.045  12.069 -0.1851  1.2945 -0.4625
18623TIP3   OH277283   5.547   1.409  11.454  0.2841  0.4036  0.9190
18623TIP3    H177284   5.625   1.429  11.402 -3.4619  0.8178 -5.0786
18623TIP3    H277285   5.523   1.492  11.495  0.8227  1.3210 -0.5609
18624TIP3   OH277286   6.368   4.073  14.781  0.1421 -0.1365  0.6670
18624TIP3    H177287   6.428   4.013  14.825 -0.1993  0.9349  2.6305
18624TIP3    H277288   6.361   4.038  14.692  2.4999 -1.1181  0.8270
18625TIP3   OH277289   0.921   5.531   2.195 -0.9105  0.7258  0.2578
18625TIP3    H177290   0.842   5.477   2.201 -1.4361  1.4952  0.4444
18625TIP3    H277291   0.916   5.572   2.108  0.3945 -0.8900 -0.5986
18626TIP3   OH277292   3.220   5.674   0.444 -0.6251  0.2897 -0.5590
18626TIP3    H177293   3.273   5.672   0.364 -0.6327  1.7125 -0.6057
18626TIP3    H277294   3.131   5.659   0.414 -0.4302 -0.8187 -0.6221
18627TIP3   OH277295   5.404   5.985   4.763  0.0631 -0.1527  0.3310
18627TIP3    H177296   5.482   5.977   4.709 -0.4320  0.1523 -0.4388
18627TIP3    H277297   5.341   6.033   4.709 -1.0693 -1.4212  0.4844
18628TIP3   OH277298   1.392   4.382  12.620  0.0878  0.2093 -0.3869
18628TIP3    H177299   1.297   4.381  12.629  0.0981  1.7241 -0.0758
18628TIP3    H277300   1.423   4.326  12.692 -0.4657  1.6438  0.9911
18629TIP3   OH277301   6.564   2.212   2.207  0.1272  0.0755 -0.2262
18629TIP3    H177302   6.620   2.136   2.189  0.6941  0.0679  1.4504
18629TIP3    H277303   6.554   2.211   2.302 -1.8915  0.6806 -0.4200
18630TIP3   OH277304   4.790   3.226   5.744 -0.3353 -0.0668  0.0345
18630TIP3    H177305   4.859   3.201   5.804 -0.8740 -2.4215 -0.2780
18630TIP3    H277306   4.836   3.256   5.665  0.3345  1.1469  0.8707
18631TIP3   OH277307   4.735   3.388  11.779 -0.7683 -0.0905 -0.2645
18631TIP3    H177308   4.704   3.476  11.756  1.3900  0.3237 -1.7796
18631TIP3    H277309   4.758   3.349  11.695  3.0555 -0.2298  0.7192
18632TIP3   OH277310   1.607   5.464  13.567  0.3503 -0.3812  0.0659
18632TIP3    H177311   1.609   5.370  13.548  2.7267 -0.1304 -1.0747
18632TIP3    H277312   1.574   5.504  13.487  3.8023  0.1069 -1.1797
18633TIP3   OH277313   6.060   0.215  14.111 -0.1373  0.1140  1.0704
18633TIP3    H177314   5.976   0.198  14.154 -0.3916  0.5809  0.7667
18633TIP3    H277315   6.103   0.281  14.165 -0.3833  0.5765  0.7077
18634TIP3   OH277316   4.310   1.395  15.491  0.5111  0.2288  0.6398
18634TIP3    H177317   4.386   1.431  15.446  2.6021 -0.9178  3.1592
18634TIP3    H277318   4.339   1.312  15.528 -1.6247  0.2319  2.5323
18635TIP3   OH277319   4.282   0.696   2.781  0.4562  0.3811 -0.4738
18635TIP3    H177320   4.258   0.787   2.763  2.0244  1.0079  0.4780
18635TIP3    H277321   4.200   0.648   2.775 -0.6473  2.0980  0.5197
18636TIP3   OH277322   1.934   2.687  13.534  0.1567 -0.0878 -0.8508
18636TIP3    H177323   1.930   2.759  13.471  1.8976 -0.7174 -1.7315
18636TIP3    H277324   1.902   2.725  13.616  1.2846  1.7865 -1.2310
18637TIP3   OH277325   4.560   3.922  12.850  0.0263 -0.1458 -0.2077
18637TIP3    H177326   4.589   3.902  12.761  0.2950 -0.3307 -0.0797
18637TIP3    H277327   4.628   3.979  12.885 -0.8588  1.2176 -0.6613
18638TIP3   OH277328   0.550   5.508   4.785  0.2490  0.5938 -0.1999
18638TIP3    H177329   0.528   5.577   4.722  0.6267  0.9714  0.0804
18638TIP3    H277330   0.638   5.480   4.760 -0.2420 -0.3709 -0.8342
18639TIP3   OH277331   6.126   1.916   5.982  0.2123 -0.1555 -0.5269
18639TIP3    H177332   6.062   1.852   6.014  0.7668 -0.5422 -0.1651
18639TIP3    H277333   6.116   1.991   6.041  2.3688 -1.4951  1.7124
18640TIP3   OH277334   4.363   2.448   1.397 -0.1693  0.0724  0.6024
18640TIP3    H177335   4.350   2.404   1.482 -0.6587  0.3720  0.6807
18640TIP3    H277336   4.439   2.504   1.411  1.3798 -1.8537  0.0718
18641TIP3   OH277337   2.542   0.392   5.613  0.2546  0.1433 -0.4376
18641TIP3    H177338   2.456   0.360   5.586  1.1089 -2.5123 -0.1255
18641TIP3    H277339   2.587   0.412   5.530 -0.4308  1.0101 -0.6157
18642TIP3   OH277340   4.333   1.178   0.535  0.1922 -0.5689 -0.2254
18642TIP3    H177341   4.292   1.252   0.580  0.0744 -0.5581 -0.3495
18642TIP3    H277342   4.393   1.218   0.472  0.1316 -0.5789 -0.2895
18643TIP3   OH277343   6.368   0.438  14.836 -0.0733 -0.3815  0.5524
18643TIP3    H177344   6.311   0.505  14.797  0.1097 -0.3050  0.4122
18643TIP3    H277345   6.353   0.446  14.930  1.9903  1.7427  0.7532
18644TIP3   OH277346   6.445   6.444   1.796  0.0150  0.3807 -0.1957
18644TIP3    H177347   6.458   6.396   1.878 -0.1862  0.7617  0.0644
18644TIP3    H277348   6.529   6.490   1.782  1.1985 -2.2089 -1.9075
18645TIP3   OH277349   1.254   0.125  15.809  0.3796  0.6514 -0.1802
18645TIP3    H177350   1.299   0.189  15.753  0.5073  0.1063 -0.7003
18645TIP3    H277351   1.186   0.088  15.753 -0.3727  1.0743  0.4335
18646TIP3   OH277352   4.335   3.035  13.701  0.4278  0.7213  0.5886
18646TIP3    H177353   4.430   3.042  13.696  0.4371  1.4296  1.5241
18646TIP3    H277354   4.303   3.110  13.652  0.3566  0.6455  0.5190
18647TIP3   OH277355   1.183   4.071  16.550  0.9533 -0.6592  0.3584
18647TIP3    H177356   1.173   4.138  16.617  0.1340  0.2836 -0.6807
18647TIP3    H277357   1.270   4.086  16.514  1.2132 -0.8752  0.8870
18648TIP3   OH277358   4.281   2.063   1.988 -0.0490  0.1223  0.4984
18648TIP3    H177359   4.308   2.071   1.897  0.0266  1.1332  0.6024
18648TIP3    H277360   4.187   2.045   1.984 -0.0461  0.1697  0.2239
18649TIP3   OH277361   4.474   5.992  14.160 -0.0622 -0.1100 -0.2664
18649TIP3    H177362   4.462   6.051  14.234 -1.3718  0.5832 -1.0191
18649TIP3    H277363   4.409   5.923  14.174  0.9065 -0.9585  0.1698
18650TIP3   OH277364   4.311   5.365   6.395  0.7215  0.3319  0.4266
18650TIP3    H177365   4.307   5.408   6.309  1.8463  3.6463  1.9385
18650TIP3    H277366   4.222   5.372   6.430  0.5952  0.2562  0.1180
18651TIP3   OH277367   6.703   1.989   2.143 -0.2746  0.0166 -0.1505
18651TIP3    H177368   6.705   1.998   2.048  2.1675 -0.0403 -0.1279
18651TIP3    H277369   6.758   1.913   2.161 -3.0210 -1.7626  1.1568
18652TIP3   OH277370   4.838   5.864  12.202  0.0318  0.2874 -0.2355
18652TIP3    H177371   4.750   5.857  12.241  0.9600  0.1711  1.9221
18652TIP3    H277372   4.862   5.773  12.182 -0.2750  0.3022 -0.6700
18653TIP3   OH277373   0.606   1.301  17.011  0.0263  0.2442  0.0158
18653TIP3    H177374   0.566   1.363  17.072  0.6009  1.9772 -1.3147
18653TIP3    H277375   0.700   1.317  17.019  0.1569 -0.1834 -0.5971
18654TIP3   OH277376   2.884   1.786   1.919 -0.5633  0.5045  0.4414
18654TIP3    H177377   2.794   1.801   1.946 -0.1781  0.4152  1.8459
18654TIP3    H277378   2.900   1.848   1.849 -2.2873 -0.7371 -1.0830
18655TIP3   OH277379   6.359   5.926  15.799 -0.2168  0.0895 -0.5820
18655TIP3    H177380   6.424   5.952  15.733 -0.4289  2.6650  0.1936
18655TIP3    H277381   6.299   6.000  15.804 -0.1696 -0.0441  2.5325
18656TIP3   OH277382   3.433   0.657   6.603 -0.4795  0.2484 -0.4370
18656TIP3    H177383   3.361   0.719   6.589 -1.5896 -0.6128  1.3036
18656TIP3    H277384   3.395   0.587   6.656  1.2738 -0.9548 -0.7259
18657TIP3   OH277385   0.455   2.565  13.336 -0.1153  0.2448  0.0954
18657TIP3    H177386   0.402   2.645  13.344  0.9199  0.7486  2.3062
18657TIP3    H277387   0.394   2.495  13.358 -0.7101  0.5400 -0.5941
18658TIP3   OH277388   4.545   4.632   2.465  0.4243 -0.3362  0.2096
18658TIP3    H177389   4.490   4.634   2.386  1.5018  0.2295 -0.5403
18658TIP3    H277390   4.528   4.716   2.508  0.1332 -0.4823  0.3859
18659TIP3   OH277391   3.270   1.515   5.143  0.0188 -0.4397 -0.0158
18659TIP3    H177392   3.181   1.480   5.136 -0.3370  0.6756 -1.3028
18659TIP3    H277393   3.282   1.529   5.237 -0.8465 -1.3910  0.2468
18660TIP3   OH277394   6.192   4.210  16.019 -0.4426  0.0164 -0.1706
18660TIP3    H177395   6.206   4.147  15.948 -1.0426  1.6010 -1.7644
18660TIP3    H277396   6.133   4.275  15.981  1.9467  2.7787  0.6119
18661TIP3   OH277397   5.971   6.162   0.224 -0.1956  0.3659  0.0303
18661TIP3    H177398   6.018   6.229   0.174  0.0127 -0.3567 -0.7400
18661TIP3    H277399   6.028   6.143   0.299  1.0818 -1.0473 -1.2939
18662TIP3   OH277400   4.543   3.539   5.928  0.0888 -0.0722  0.0762
18662TIP3    H177401   4.560   3.487   5.850  1.4871  0.6241 -0.0888
18662TIP3    H277402   4.454   3.572   5.915  0.2263 -0.1414 -1.1072
18663TIP3   OH277403   3.384   4.233  14.446 -0.3412  0.1753  0.0850
18663TIP3    H177404   3.322   4.208  14.514 -0.5236  1.1061  0.2620
18663TIP3    H277405   3.333   4.235  14.365 -0.5145  0.7804  0.2051
18664TIP3   OH277406   1.158   0.911  14.137 -0.6929 -0.3561 -0.0465
18664TIP3    H177407   1.127   0.840  14.192 -1.1502  0.0469  0.2236
18664TIP3    H277408   1.133   0.885  14.048 -0.5418 -0.6979  0.0123
18665TIP3   OH277409   3.881   6.035   2.493 -0.5502 -0.0635  0.3089
18665TIP3    H177410   3.963   6.043   2.543 -0.7649  0.0764  0.6392
18665TIP3    H277411   3.904   6.063   2.404  0.4201 -2.5279 -0.2678
18666TIP3   OH277412   1.750   5.401  16.895 -0.0747 -0.8179  0.4435
18666TIP3    H177413   1.726   5.342  16.824  1.2456  0.1894 -0.8653
18666TIP3    H277414   1.676   5.461  16.903 -0.1860 -0.8715 -0.1660
18667TIP3   OH277415   3.340   3.110   2.937 -1.2810  0.4018  0.2972
18667TIP3    H177416   3.301   3.183   2.985 -1.2543 -0.2890  1.3923
18667TIP3    H277417   3.266   3.058   2.907 -1.2645 -0.1022  1.0982
18668TIP3   OH277418   0.665   6.040   0.544  0.1877 -0.2701 -0.5501
18668TIP3    H177419   0.738   6.063   0.487 -0.8929 -0.1182 -1.8925
18668TIP3    H277420   0.596   6.103   0.523 -1.4247 -2.2926 -1.5086
18669TIP3   OH277421   3.720   1.521  12.222  0.1796 -0.3443 -0.5630
18669TIP3    H177422   3.681   1.581  12.286 -0.6265 -1.4394  0.0010
18669TIP3    H277423   3.760   1.578  12.157 -1.1004  0.8202 -0.3744
18670TIP3   OH277424   3.687   1.915   1.894 -0.4233 -0.3056 -0.2976
18670TIP3    H177425   3.695   2.004   1.859 -1.0346  0.1515  0.6940
18670TIP3    H277426   3.771   1.900   1.937 -0.3571 -0.1611 -0.3743
18671TIP3   OH277427   3.080   3.563   6.767  0.1716 -0.8031 -0.3153
18671TIP3    H177428   2.986   3.570   6.748  0.1538 -0.4361 -0.1075
18671TIP3    H277429   3.118   3.528   6.687  0.2413  1.6861 -1.3927
18672TIP3   OH277430   3.961   1.700  15.342  0.2780 -0.2404 -0.2337
18672TIP3    H177431   4.027   1.667  15.403  1.6141  2.0973 -0.3218
18672TIP3    H277432   4.010   1.718  15.262 -1.0262 -1.1339 -1.2456
18673TIP3   OH277433   5.239   3.049  12.671  0.7563  0.4652  0.1760
18673TIP3    H177434   5.174   3.111  12.637 -0.6230  0.0165  1.8689
18673TIP3    H277435   5.249   3.074  12.763  2.0327 -0.2968  0.2540
18674TIP3   OH277436   5.754   0.488   4.508 -0.0413 -0.0798  0.3360
18674TIP3    H177437   5.700   0.533   4.443 -0.8258 -0.6166  0.6001
18674TIP3    H277438   5.739   0.536   4.589  0.5844  0.3159  0.2172
18675TIP3   OH277439   2.275   1.798  11.211  0.1629 -0.3836 -0.0721
18675TIP3    H177440   2.308   1.882  11.179  1.2143 -1.0864 -0.8620
18675TIP3    H277441   2.244   1.753  11.133  0.7273 -1.2143  0.1697
18676TIP3   OH277442   6.458   1.484  14.855 -0.2211 -0.4855 -0.3785
18676TIP3    H177443   6.438   1.511  14.765  0.9921 -0.4454 -0.6376
18676TIP3    H277444   6.396   1.532  14.909  0.3265  0.9672 -1.0363
18677TIP3   OH277445   4.883   6.331   1.562  0.4650 -0.3955 -0.7712
18677TIP3    H177446   4.924   6.321   1.648 -1.3923  0.6499  0.2529
18677TIP3    H277447   4.849   6.244   1.542  2.0032 -0.9616 -1.0636
18678TIP3   OH277448   5.778   0.134   3.000 -0.4107  0.6065 -0.3276
18678TIP3    H177449   5.746   0.050   3.032  0.8259  0.5623  0.8134
18678TIP3    H277450   5.699   0.188   2.989 -1.1439 -0.5022 -0.5016
18679TIP3   OH277451   4.703   2.979   1.774 -0.5671 -0.0415  0.4958
18679TIP3    H177452   4.615   2.959   1.804 -0.3648 -0.7955  0.5973
18679TIP3    H277453   4.727   3.058   1.822 -2.2442  1.7944 -1.6155
18680TIP3   OH277454   2.329   4.831   1.193  0.3790  0.2728  0.3681
18680TIP3    H177455   2.321   4.828   1.288  0.0371  3.2159  0.4956
18680TIP3    H277456   2.421   4.815   1.175  0.1413 -2.0621  1.0401
18681TIP3   OH277457   5.754   1.571   0.592  0.2847 -0.1861  0.4081
18681TIP3    H177458   5.682   1.603   0.538  0.4676  0.7080  0.6788
18681TIP3    H277459   5.825   1.554   0.530  0.1184 -0.2522  0.2379
18682TIP3   OH277460   0.914   4.854  15.611 -0.1131 -0.3345  0.0864
18682TIP3    H177461   0.987   4.795  15.596 -1.6636 -1.9071 -1.6149
18682TIP3    H277462   0.931   4.928  15.553  0.4484 -0.4042  0.1614
18683TIP3   OH277463   4.003   3.743  15.008 -0.5042  0.2223 -0.2525
18683TIP3    H177464   3.929   3.796  14.978 -0.5249  0.5468  0.3632
18683TIP3    H277465   3.977   3.653  14.988 -1.9839  0.1387  1.7844
18684TIP3   OH277466   2.503   2.218   1.207  0.6091 -0.3408 -0.3652
18684TIP3    H177467   2.528   2.303   1.243 -0.6319 -0.0574 -0.1347
18684TIP3    H277468   2.416   2.201   1.244  1.1548 -2.0644  0.2037
18685TIP3   OH277469   6.669   2.228  13.476 -0.3286  0.2398 -0.2085
18685TIP3    H177470   6.700   2.140  13.500 -0.1003  0.5881  0.7902
18685TIP3    H277471   6.577   2.228  13.500 -0.5262  0.0119 -0.9489
18686TIP3   OH277472   5.442   0.235  11.543 -0.4514  0.4645 -0.0083
18686TIP3    H177473   5.401   0.159  11.585 -1.4855  0.6486 -0.6559
18686TIP3    H277474   5.402   0.311  11.586 -1.5486  0.6553 -1.3256
18687TIP3   OH277475   3.773   5.434   5.905  0.0937 -0.2639 -0.4648
18687TIP3    H177476   3.698   5.378   5.884  0.1010  0.1285 -1.5680
18687TIP3    H277477   3.843   5.373   5.928 -0.0963 -0.6895 -1.0031
18688TIP3   OH277478   1.927   4.164  16.345  0.3112  0.0228 -0.2738
18688TIP3    H177479   1.954   4.076  16.369 -1.1268 -0.1103  0.9570
18688TIP3    H277480   1.832   4.165  16.359  0.2775  1.6959 -0.4600
18689TIP3   OH277481   2.855   6.062   3.658 -0.5667  0.5104 -0.6363
18689TIP3    H177482   2.915   6.029   3.725  0.9243  2.2864 -1.0667
18689TIP3    H277483   2.845   5.989   3.597  2.0510  0.5578 -1.1628
18690TIP3   OH277484   3.659   5.157   5.222 -0.5551  0.9385  0.5951
18690TIP3    H177485   3.621   5.090   5.165  1.7015  0.0871  0.0359
18690TIP3    H277486   3.753   5.139   5.221  0.1153  4.0988  0.4541
18691TIP3   OH277487   6.152   3.307   5.475 -0.2579  0.3671  0.1760
18691TIP3    H177488   6.207   3.287   5.551 -0.2142  1.7310  0.5106
18691TIP3    H277489   6.207   3.360   5.418 -0.5848  0.0824 -0.4171
18692TIP3   OH277490   6.737   2.949   2.702  0.0575  0.6632 -0.0026
18692TIP3    H177491   6.816   2.899   2.681 -0.6958 -0.4117 -0.2990
18692TIP3    H277492   6.725   3.008   2.628 -0.6911 -0.7719 -1.0590
18693TIP3   OH277493   3.099   0.016   5.577  0.0680  0.3423  0.5457
18693TIP3    H177494   3.130   0.060   5.655  1.2648  3.3419 -1.5428
18693TIP3    H277495   3.023   0.068   5.548  0.0495 -0.3192 -0.6567
18694TIP3   OH277496   0.922   5.748  15.006  0.1403 -0.5871 -0.0139
18694TIP3    H177497   0.871   5.677  15.043 -0.7484  0.3950  0.6646
18694TIP3    H277498   0.924   5.815  15.074 -1.1122  1.0382 -1.5298
18695TIP3   OH277499   5.397   0.240  11.279  0.1767 -0.5746 -0.0895
18695TIP3    H177500   5.433   0.260  11.366  2.4392  1.2834 -1.3962
18695TIP3    H277501   5.330   0.307  11.266 -0.8251 -1.4397  0.6158
18696TIP3   OH277502   5.604   2.831   0.936  0.0072 -0.1541 -0.2841
18696TIP3    H177503   5.517   2.791   0.939 -0.9499  1.8565 -0.4198
18696TIP3    H277504   5.616   2.870   1.023  0.7507 -0.3795 -0.2814
18697TIP3   OH277505   4.606   1.363  11.844  0.0599 -0.3266  0.3078
18697TIP3    H177506   4.604   1.404  11.930 -2.1701  0.4243 -0.0702
18697TIP3    H277507   4.598   1.436  11.782 -2.1610 -1.1405 -0.4175
18698TIP3   OH277508   0.243   1.472   4.137 -0.0318  0.0249 -0.4039
18698TIP3    H177509   0.261   1.435   4.223 -0.0119 -0.6729 -0.7025
18698TIP3    H277510   0.271   1.563   4.143 -0.8574  0.2286  0.6074
18699TIP3   OH277511   1.975   1.335  12.842  0.2988 -0.0613  0.4040
18699TIP3    H177512   1.937   1.250  12.820  0.7796 -0.0690 -0.4132
18699TIP3    H277513   2.070   1.319  12.845  0.3449  0.2854  0.9744
18700TIP3   OH277514   4.474   4.915   5.569 -0.2075  0.0689 -0.3110
18700TIP3    H177515   4.542   4.960   5.619 -1.3343  0.6238  0.7405
18700TIP3    H277516   4.392   4.955   5.598 -1.0704 -1.3082 -0.7981
18701TIP3   OH277517   6.297   3.958  16.913 -0.4279 -0.3617  0.1760
18701TIP3    H177518   6.273   4.051  16.917 -2.1867 -0.7524 -0.9452
18701TIP3    H277519   6.393   3.959  16.913 -0.4113  1.5176 -1.2211
18702TIP3   OH277520   5.776   0.927   4.824 -0.1745  0.2973  0.8047
18702TIP3    H177521   5.751   0.838   4.801  0.8601 -0.3364  2.1026
18702TIP3    H277522   5.856   0.944   4.774 -1.9115  1.5613 -1.6776
18703TIP3   OH277523   4.496   5.080   2.502 -0.5747  0.1052  0.4554
18703TIP3    H177524   4.548   5.152   2.537 -0.2632  0.2645 -0.3233
18703TIP3    H277525   4.517   5.006   2.559  0.2990  0.2343  0.3169
18704TIP3   OH277526   5.915   2.517   0.191 -0.5360  0.1460  0.0419
18704TIP3    H177527   5.909   2.429   0.228 -2.8405 -0.2436 -1.2080
18704TIP3    H277528   5.942   2.503   0.100  0.0593  0.8120  0.1055
18705TIP3   OH277529   5.484   2.197   4.742  0.0638  0.0963  0.5322
18705TIP3    H177530   5.542   2.260   4.701 -1.6236  1.1764 -0.2288
18705TIP3    H277531   5.424   2.169   4.672 -0.4279 -0.8855  1.3262
18706TIP3   OH277532   4.419   4.790  12.552 -0.4523  0.4117 -0.2205
18706TIP3    H177533   4.447   4.880  12.538  2.9298 -0.7651 -1.4389
18706TIP3    H277534   4.444   4.769  12.642 -1.8173  0.8706  0.2733
18707TIP3   OH277535   5.272   4.373   4.916  0.3926  0.4202 -0.7583
18707TIP3    H177536   5.338   4.304   4.924  0.6418  0.8177  0.7390
18707TIP3    H277537   5.193   4.337   4.957  0.5521  1.0545  0.1222
18708TIP3   OH277538   4.916   1.080   3.804 -0.1206 -0.1060  0.2435
18708TIP3    H177539   4.913   0.984   3.801  2.6476 -0.2452 -0.1882
18708TIP3    H277540   4.831   1.106   3.839 -1.3427 -2.6645 -0.6632
18709TIP3   OH277541   5.297   5.096   0.290  0.2192  0.0386  0.5999
18709TIP3    H177542   5.270   5.187   0.281 -0.5259 -0.2960 -0.6126
18709TIP3    H277543   5.390   5.096   0.267 -0.1509  0.2349 -0.8953
18710TIP3   OH277544   3.132   4.937  12.294  0.1640  0.8791  0.2629
18710TIP3    H177545   3.131   4.919  12.388 -0.1939  1.7017  0.4144
18710TIP3    H277546   3.221   4.914  12.267 -0.1444 -0.6831  0.5368
18711TIP3   OH277547   1.271   4.027   5.284  0.1689  0.2037  0.1420
18711TIP3    H177548   1.259   4.065   5.371 -0.5179 -0.6929  0.4580
18711TIP3    H277549   1.183   3.996   5.259  0.2230  1.0684 -1.1632
18712TIP3   OH277550   3.450   5.364  15.738 -0.4044  0.5987 -0.0873
18712TIP3    H177551   3.358   5.364  15.763 -0.6802  1.7207 -1.0424
18712TIP3    H277552   3.476   5.456  15.743  0.4551  0.3909 -0.5681
18713TIP3   OH277553   5.646   3.738   4.769 -0.3299  0.0505 -0.2489
18713TIP3    H177554   5.711   3.784   4.717 -1.8025  0.8106 -1.4458
18713TIP3    H277555   5.609   3.806   4.826 -2.6411  0.4649 -2.1511
18714TIP3   OH277556   6.404   4.866  17.194 -0.0375 -0.0109  0.1131
18714TIP3    H177557   6.395   4.791  17.254  0.6852 -0.7119 -0.6397
18714TIP3    H277558   6.331   4.856  17.133  0.0227 -0.0666  0.0523
18715TIP3   OH277559   0.944   4.672  14.699  0.1715  0.0041 -0.1110
18715TIP3    H177560   0.888   4.727  14.643 -0.2281 -0.2290  0.0554
18715TIP3    H277561   0.972   4.601  14.642 -1.2599 -0.9257  0.3072
18716TIP3   OH277562   0.597   2.090   0.433 -0.0355 -0.1072 -0.2587
18716TIP3    H177563   0.673   2.133   0.394 -0.7100 -0.1780 -1.6475
18716TIP3    H277564   0.596   2.123   0.523  1.0622  0.6559 -0.5066
18717TIP3   OH277565   2.968   4.841   4.872 -0.0323  0.2401 -0.6019
18717TIP3    H177566   2.896   4.802   4.824 -0.4700 -0.1704  0.3631
18717TIP3    H277567   3.047   4.811   4.827 -0.4419  0.0298 -1.1741
18718TIP3   OH277568   0.767   3.439  13.004  0.2631  0.3957  0.5106
18718TIP3    H177569   0.719   3.360  12.977  2.1530 -0.7014  0.2903
18718TIP3    H277570   0.698   3.503  13.024 -1.2783 -0.9074 -0.4870
18719TIP3   OH277571   1.887   3.591   1.080 -0.0742 -0.2202  0.3167
18719TIP3    H177572   1.920   3.510   1.119  1.7921  0.4906  0.2521
18719TIP3    H277573   1.875   3.651   1.154 -1.2394 -0.4744  0.3399
18720TIP3   OH277574   6.709   4.677   2.951 -0.2735  0.4556  0.3588
18720TIP3    H177575   6.623   4.679   2.908 -0.4234 -0.2576  0.6268
18720TIP3    H277576   6.755   4.753   2.915 -0.9564  0.7527  0.0920
18721TIP3   OH277577   2.327   3.313   0.458 -0.2436  0.5573 -0.0691
18721TIP3    H177578   2.391   3.342   0.393 -1.4180 -0.9514 -1.9524
18721TIP3    H277579   2.243   3.342   0.423 -0.5990  3.1795  2.7512
18722TIP3   OH277580   5.905   1.718   3.184 -0.4478 -0.0773 -0.1950
18722TIP3    H177581   5.825   1.741   3.138 -0.6402 -1.9458 -0.8343
18722TIP3    H277582   5.879   1.649   3.245  0.6118 -0.5197 -0.2302
18723TIP3   OH277583   6.560   2.826   2.369 -0.5289 -0.2146 -0.2688
18723TIP3    H177584   6.605   2.838   2.285  0.5394 -0.8686  0.2056
18723TIP3    H277585   6.510   2.907   2.379 -0.6526 -0.1134 -1.5253
18724TIP3   OH277586   0.334   0.782   1.465 -0.0807 -0.2950 -0.3015
18724TIP3    H177587   0.382   0.837   1.528  0.8304 -1.1801 -0.2068
18724TIP3    H277588   0.318   0.840   1.390 -0.2303  0.4571  0.3042
18725TIP3   OH277589   3.399   2.189   6.058  0.3230  0.4542 -0.4763
18725TIP3    H177590   3.351   2.272   6.063 -0.5557 -0.0581 -0.3674
18725TIP3    H277591   3.335   2.126   6.025  1.1988 -0.0232 -1.2617
18726TIP3   OH277592   2.643   2.909  12.768 -0.1503 -0.0340 -0.2732
18726TIP3    H177593   2.555   2.885  12.796  0.4614 -0.6055  1.2243
18726TIP3    H277594   2.638   3.002  12.747 -0.1215  1.0212  4.0165
18727TIP3   OH277595   1.274   2.424  15.605 -0.2571 -0.4992  0.3276
18727TIP3    H177596   1.281   2.495  15.669  2.8233 -2.7525  2.6241
18727TIP3    H277597   1.217   2.360  15.645  0.2864 -1.1497  0.0763
18728TIP3   OH277598   3.106   3.743  15.580  0.1979 -0.2840 -0.6803
18728TIP3    H177599   3.023   3.743  15.533  1.8185 -0.9595 -3.6201
18728TIP3    H277600   3.138   3.654  15.573  0.2869 -0.5162  2.1461
18729TIP3   OH277601   0.822   0.037   5.791 -0.2066  0.9096 -0.1181
18729TIP3    H177602   0.904   0.085   5.797  0.5082 -0.4370  1.2355
18729TIP3    H277603   0.847  -0.055   5.795 -1.8434  0.4849  1.5866
18730TIP3   OH277604   0.562   0.232  16.167 -0.1606  0.4984  0.0457
18730TIP3    H177605   0.521   0.243  16.252 -1.4145 -0.5527 -0.3958
18730TIP3    H277606   0.606   0.147  16.172 -1.9757 -0.5552 -0.9930
18731TIP3   OH277607   4.490   1.881  13.568  0.4610  0.1121 -0.4437
18731TIP3    H177608   4.524   1.939  13.636  1.0275 -1.3468  0.5482
18731TIP3    H277609   4.468   1.939  13.495 -2.0075  1.9410  1.6708
18732TIP3   OH277610   2.318   0.253  14.878  0.0569  0.1695 -0.2856
18732TIP3    H177611   2.235   0.288  14.847 -0.5043 -0.6944  0.2586
18732TIP3    H277612   2.295   0.184  14.940  1.1702 -0.4661 -0.5552
18733TIP3   OH277613   6.089   2.271   4.705 -0.2663  0.2012 -0.2422
18733TIP3    H177614   5.994   2.273   4.709 -0.2552  1.4175 -0.3619
18733TIP3    H277615   6.113   2.356   4.668  0.7849 -0.7117 -1.7491
18734TIP3   OH277616   4.755   5.035   5.367 -0.5050  0.3067 -0.3181
18734TIP3    H177617   4.832   5.085   5.338  1.1776 -2.3026 -0.5002
18734TIP3    H277618   4.725   5.081   5.446  1.6479  1.0163  0.1264
18735TIP3   OH277619   5.070   2.001   2.189  0.3311 -0.2635 -0.0823
18735TIP3    H177620   4.988   2.050   2.201  0.4668 -0.4612  1.6875
18735TIP3    H277621   5.138   2.067   2.194  0.6266 -0.7627  3.8995
18736TIP3   OH277622   3.593   5.291   5.472 -0.0793 -0.0907 -0.0615
18736TIP3    H177623   3.623   5.236   5.400  1.2496  0.2065  0.2597
18736TIP3    H277624   3.498   5.275   5.477 -0.2387  0.1307 -2.0704
18737TIP3   OH277625   3.290   4.512  14.849  0.4259  0.5020  0.3555
18737TIP3    H177626   3.228   4.543  14.915  1.8346  1.4749  1.2621
18737TIP3    H277627   3.284   4.577  14.779 -1.6913 -0.9967 -0.8681
18738TIP3   OH277628   2.358   0.073   2.021  0.0009  0.6867  0.2736
18738TIP3    H177629   2.383   0.047   1.932  2.7298  0.3252  1.0935
18738TIP3    H277630   2.297   0.005   2.050  2.0112 -1.2966 -0.0031
18739TIP3   OH277631   5.511   6.268   0.205 -0.3576  0.3376  0.1037
18739TIP3    H177632   5.471   6.268   0.291  2.7611 -0.5720  1.6365
18739TIP3    H277633   5.593   6.316   0.217  0.9247 -1.2605 -1.9404
18740TIP3   OH277634   2.170   4.663   4.067  0.1603 -0.2507 -0.4232
18740TIP3    H177635   2.249   4.609   4.059  0.6045  0.0453  1.8868
18740TIP3    H277636   2.201   4.747   4.100 -0.9001  0.5078 -1.3102
18741TIP3   OH277637   5.905   1.357  14.082 -0.4321 -0.4317 -0.1470
18741TIP3    H177638   5.918   1.406  14.163 -2.8940  0.4062 -0.2124
18741TIP3    H277639   5.931   1.418  14.013  0.9279 -0.8705 -0.0234
18742TIP3   OH277640   1.351   6.765   0.412 -0.2477  0.0213 -0.3012
18742TIP3    H177641   1.347   6.702   0.340 -0.2928 -0.5642  0.2132
18742TIP3    H277642   1.259   6.788   0.429 -0.1234  1.5970 -1.6856
18743TIP3   OH277643   6.664   4.598   4.594  0.3147 -0.3512  0.5659
18743TIP3    H177644   6.612   4.597   4.513 -0.2094 -0.2209  0.8975
18743TIP3    H277645   6.644   4.683   4.633  3.5140  1.2544 -1.0640
18744TIP3   OH277646   1.637   5.085   2.440 -0.0797  0.1849 -0.3398
18744TIP3    H177647   1.542   5.096   2.437 -0.1926 -0.8519 -0.7789
18744TIP3    H277648   1.658   5.081   2.533 -0.9108 -3.1412 -0.2368
18745TIP3   OH277649   3.358   3.614   3.501  0.6455 -0.3993 -0.3560
18745TIP3    H177650   3.335   3.707   3.504  1.9509  0.0334 -2.9929
18745TIP3    H277651   3.275   3.569   3.486  0.2174  0.4386 -0.4962
18746TIP3   OH277652   3.751   1.981  16.560  0.3939  0.4531  0.4450
18746TIP3    H177653   3.833   1.993  16.511 -0.2644  0.7881 -0.6070
18746TIP3    H277654   3.728   1.890  16.545 -0.4336  0.8695 -0.8872
18747TIP3   OH277655   2.392   6.245   4.644 -0.2487  0.3359 -0.5685
18747TIP3    H177656   2.382   6.305   4.719  2.2878 -0.2731  0.3014
18747TIP3    H277657   2.458   6.182   4.673  1.7081  0.8208 -3.7685
18748TIP3   OH277658   3.581   5.991   4.063 -0.0523  0.1151  0.2021
18748TIP3    H177659   3.620   5.976   4.149 -0.6610 -1.2738  0.2596
18748TIP3    H277660   3.642   5.948   4.002 -0.3569 -0.1390  0.0786
18749TIP3   OH277661   0.212   2.788  16.022 -0.0585 -0.2682 -0.4671
18749TIP3    H177662   0.286   2.807  16.080  0.6591 -1.3752 -0.9875
18749TIP3    H277663   0.173   2.708  16.059  0.3235 -0.9065 -1.4113
18750TIP3   OH277664   4.980   0.374  11.153 -0.3125  0.1217  0.1545
18750TIP3    H177665   4.947   0.294  11.113 -0.3005 -0.6547  1.6393
18750TIP3    H277666   5.056   0.398  11.100  0.7984 -1.9090  0.7809
18751TIP3   OH277667   6.005   5.426   2.679  0.4069  0.5430  0.5142
18751TIP3    H177668   6.028   5.471   2.761  1.4647  0.5150  0.2385
18751TIP3    H277669   6.087   5.391   2.647  0.0232  0.6854 -0.6544
18752TIP3   OH277670   2.795   2.324   3.958 -0.1444 -0.3646 -0.2758
18752TIP3    H177671   2.890   2.315   3.954  0.1754  1.5177  1.6599
18752TIP3    H277672   2.777   2.408   3.914 -0.6499  0.3242  1.1848
18753TIP3   OH277673   6.628   3.987  14.012 -0.2413  0.5164 -0.7646
18753TIP3    H177674   6.672   3.925  14.070 -1.1002  0.6627  0.0508
18753TIP3    H277675   6.675   4.070  14.026  2.3589 -0.3697 -3.4827
18754TIP3   OH277676   6.573   5.312   3.929  0.2037 -0.4714 -0.3756
18754TIP3    H177677   6.655   5.356   3.907 -0.5830  0.3740 -1.6949
18754TIP3    H277678   6.550   5.263   3.850 -0.5466 -0.7210 -0.0097
18755TIP3   OH277679   1.590   5.135   3.610 -0.4654  0.1476 -0.1010
18755TIP3    H177680   1.547   5.083   3.678  0.8276 -2.2925 -1.0934
18755TIP3    H277681   1.680   5.143   3.640 -0.1367 -0.0707 -1.0230
18756TIP3   OH277682   3.812   4.433  12.788 -0.5243 -0.0471 -0.5854
18756TIP3    H177683   3.750   4.381  12.738 -1.5112  0.5914 -0.0589
18756TIP3    H277684   3.757   4.485  12.847  0.5982 -0.7494  1.1311
18757TIP3   OH277685   4.156   2.242  14.571  0.0728  0.3319 -0.7135
18757TIP3    H177686   4.123   2.254  14.482 -1.0416  0.8084 -0.2445
18757TIP3    H277687   4.238   2.194  14.560 -0.6945 -0.7340 -1.9081
18758TIP3   OH277688   6.684   6.242  17.195  0.4679  0.3601 -0.1493
18758TIP3    H177689   6.631   6.307  17.149  0.0415  0.7106  0.8003
18758TIP3    H277690   6.663   6.159  17.154  1.1010  0.8385 -1.4549
18759TIP3   OH277691   4.924   4.879   2.500 -0.0841  0.5591  0.5188
18759TIP3    H177692   4.888   4.792   2.484 -1.3222  1.0049  0.8564
18759TIP3    H277693   4.958   4.875   2.590 -0.0176  0.3805  0.4845
18760TIP3   OH277694   4.580   4.271  10.985 -0.0680 -0.0117  0.2986
18760TIP3    H177695   4.576   4.363  11.010 -0.5006 -0.5528  2.2935
18760TIP3    H277696   4.528   4.266  10.905 -0.7787  1.3121  0.6582
18761TIP3   OH277697   5.606   3.655   0.232  0.0191  0.1208  0.9456
18761TIP3    H177698   5.528   3.678   0.283  0.3770 -0.1458  1.6211
18761TIP3    H277699   5.572   3.602   0.160 -0.5416  0.8807  0.6426
18762TIP3   OH277700   5.711   1.787  10.962  0.4117  0.3102 -0.1269
18762TIP3    H177701   5.754   1.863  11.002  0.4389  0.9842 -1.3954
18762TIP3    H277702   5.621   1.816  10.946  0.7691  0.5515 -1.8261
18763TIP3   OH277703   1.564   4.309   5.085  0.1312  0.0626  0.0755
18763TIP3    H177704   1.536   4.348   5.002  0.4003  1.1551  0.4815
18763TIP3    H277705   1.587   4.219   5.063  0.5496  0.4489 -1.1132
18764TIP3   OH277706   0.179   6.430   5.521  0.6237  0.0081  0.8844
18764TIP3    H177707   0.108   6.389   5.572  0.2353  0.9904  1.1388
18764TIP3    H277708   0.259   6.406   5.568  0.3320  0.2160  1.4970
18765TIP3   OH277709   4.154   0.682   6.135 -0.4552 -0.2232  0.1338
18765TIP3    H177710   4.083   0.721   6.185 -1.7108 -0.1008 -1.6624
18765TIP3    H277711   4.225   0.745   6.138 -0.6828 -0.0309  1.3736
18766TIP3   OH277712   2.171   5.698  11.999 -0.2764 -0.6681  0.1343
18766TIP3    H177713   2.144   5.633  12.064  0.7889 -0.2030  1.0686
18766TIP3    H277714   2.117   5.774  12.017  0.2431 -0.4256  0.7121
18767TIP3   OH277715   5.759   1.247  12.731  0.0001 -0.1453  0.2973
18767TIP3    H177716   5.684   1.291  12.693 -0.1638 -0.8068 -0.1667
18767TIP3    H277717   5.811   1.219  12.655 -0.5573 -1.8769  0.5227
18768TIP3   OH277718   2.774   5.184  14.062  0.7590 -0.0092  0.2703
18768TIP3    H177719   2.761   5.239  13.984 -1.2439  0.1683  0.7108
18768TIP3    H277720   2.864   5.202  14.089  1.0547  0.9020 -1.2568
18769TIP3   OH277721   0.560   6.434   6.091 -0.5993 -0.4691 -0.3952
18769TIP3    H177722   0.501   6.369   6.054 -1.5368 -1.5137  2.7732
18769TIP3    H277723   0.601   6.390   6.165  1.7439  1.2990 -0.5973
18770TIP3   OH277724   6.561   5.962   6.239 -0.2808  0.2277  0.0200
18770TIP3    H177725   6.499   5.933   6.306 -0.0159 -0.5192 -0.0487
18770TIP3    H277726   6.523   5.933   6.156  1.2894 -2.4015  0.1456
18771TIP3   OH277727   0.410   2.509  15.327 -0.1713 -0.5267 -0.1017
18771TIP3    H177728   0.327   2.462  15.323 -0.0964 -0.5862 -0.9568
18771TIP3    H277729   0.477   2.441  15.326 -0.0650 -0.4194 -1.2664
18772TIP3   OH277730   0.538   4.195  13.178 -0.3853 -0.1977 -0.5870
18772TIP3    H177731   0.597   4.270  13.183  1.1565 -1.4450  0.1037
18772TIP3    H277732   0.489   4.209  13.096  1.3130  0.4999 -1.5156
18773TIP3   OH277733   0.321   5.579   0.796 -0.4538 -0.1173 -0.2231
18773TIP3    H177734   0.340   5.672   0.789 -0.2648 -0.1466 -0.1036
18773TIP3    H277735   0.333   5.545   0.707 -0.3199 -0.0642 -0.2255
18774TIP3   OH277736   0.215   3.038   2.607 -0.4950  0.0358  0.0704
18774TIP3    H177737   0.142   3.055   2.549 -0.2179 -0.9229 -0.5714
18774TIP3    H277738   0.288   3.086   2.569 -0.0329 -1.4786 -1.0274
18775TIP3   OH277739   5.579   3.622  16.113  0.6343  0.2944 -0.4910
18775TIP3    H177740   5.658   3.570  16.125  0.6202  0.5165  0.6475
18775TIP3    H277741   5.543   3.631  16.201 -0.0788  1.0957 -0.8549
18776TIP3   OH277742   5.368   1.488  15.721 -0.0884 -0.1489 -0.2695
18776TIP3    H177743   5.391   1.570  15.677 -1.5929  0.7983  0.7005
18776TIP3    H277744   5.444   1.468  15.776  0.3099  0.5472 -0.5635
18777TIP3   OH277745   5.178   3.331  15.329  0.8083 -0.0296 -0.2104
18777TIP3    H177746   5.257   3.364  15.288  1.6643 -1.3026  0.4000
18777TIP3    H277747   5.161   3.247  15.286  1.2303 -0.9630  1.4100
18778TIP3   OH277748   2.763   0.355   3.810  0.0666  0.0908  0.1976
18778TIP3    H177749   2.786   0.351   3.902  0.9261  0.7300  0.0245
18778TIP3    H277750   2.755   0.449   3.791 -2.1717 -0.1065  0.1161
18779TIP3   OH277751   4.791   3.748   3.382  0.0098  0.0804 -0.3519
18779TIP3    H177752   4.883   3.721   3.393  0.0779  1.0182  1.7177
18779TIP3    H277753   4.789   3.837   3.417 -1.6863  0.0719 -0.4303
18780TIP3   OH277754   2.121   0.001   2.586  0.4343 -0.0896  0.2911
18780TIP3    H177755   2.169  -0.024   2.507  1.2830 -0.0157  0.7707
18780TIP3    H277756   2.031   0.013   2.557  1.1763  2.2732 -1.1323
18781TIP3   OH277757   0.362   2.676   5.848 -0.3884 -0.4036  0.6112
18781TIP3    H177758   0.348   2.589   5.812  1.4337 -0.7434  0.7098
18781TIP3    H277759   0.333   2.669   5.939  0.1804 -1.0324  0.7477
18782TIP3   OH277760   3.843   0.261  13.748  0.2952 -0.2370  0.7675
18782TIP3    H177761   3.813   0.337  13.798  1.1931  1.1659 -0.7888
18782TIP3    H277762   3.916   0.227  13.799  0.6132  0.6265  0.8994
18783TIP3   OH277763   1.417   1.858  14.986  0.9284  0.5709 -0.0991
18783TIP3    H177764   1.474   1.920  15.030  1.0067  0.5274 -0.1391
18783TIP3    H277765   1.367   1.816  15.056  0.7374  0.8154 -0.0879
18784TIP3   OH277766   1.719   0.859  16.507 -0.1213 -0.5371  0.2480
18784TIP3    H177767   1.640   0.840  16.457 -0.4190 -0.6215  0.7503
18784TIP3    H277768   1.749   0.774  16.540  0.7903 -0.6506 -0.8428
18785TIP3   OH277769   4.760   4.503  11.079 -0.2872 -0.6083  0.0243
18785TIP3    H177770   4.762   4.516  10.984  0.8678  1.3314  0.2910
18785TIP3    H277771   4.851   4.486  11.103 -0.2219  0.9952  1.0227
18786TIP3   OH277772   3.450   1.006  12.334  0.3196  0.6406  0.6471
18786TIP3    H177773   3.372   1.003  12.389  0.9426 -1.6336  1.4571
18786TIP3    H277774   3.425   1.061  12.260 -2.0550 -0.0904  0.8840
18787TIP3   OH277775   5.690   4.777   2.964  0.8411 -0.3232  0.4461
18787TIP3    H177776   5.740   4.798   3.043  1.9779 -1.4829  0.0671
18787TIP3    H277777   5.741   4.708   2.922  0.5707  0.6893 -1.6133
18788TIP3   OH277778   6.255   5.474  12.027  0.5464 -0.5511 -0.1557
18788TIP3    H177779   6.255   5.570  12.023  0.2367 -0.5207  0.4587
18788TIP3    H277780   6.301   5.454  12.108 -1.2770 -0.8606  0.8367
18789TIP3   OH277781   1.301   5.707  16.643 -0.5155  0.3772 -0.1174
18789TIP3    H177782   1.360   5.632  16.649 -0.2448  0.5897 -0.0987
18789TIP3    H277783   1.228   5.677  16.589 -1.6902 -0.7412  2.0325
18790TIP3   OH277784   0.296   4.380  12.441  0.7061 -0.0019 -0.4567
18790TIP3    H177785   0.248   4.461  12.462  0.2760 -0.3463 -0.0910
18790TIP3    H277786   0.387   4.401  12.460  0.1019 -1.0355  4.2439
18791TIP3   OH277787   4.275   5.605   0.938 -0.7275 -0.2822 -0.3401
18791TIP3    H177788   4.367   5.604   0.911 -0.4166 -3.3160  0.6879
18791TIP3    H277789   4.231   5.659   0.871  1.0950 -2.2087 -3.1997
18792TIP3   OH277790   5.057   3.297   3.913 -0.3152 -0.3870  0.4203
18792TIP3    H177791   5.024   3.323   3.999 -1.3714 -0.6097  0.0821
18792TIP3    H277792   5.085   3.206   3.925  3.0515  0.7192  1.5094
18793TIP3   OH277793   1.541   4.133  15.780 -0.5444 -0.2088  0.2566
18793TIP3    H177794   1.472   4.165  15.722 -0.2998  1.5949  0.9279
18793TIP3    H277795   1.622   4.155  15.735 -0.3694  0.2268  0.7905
18794TIP3   OH277796   2.426   5.694  17.088  0.3978  0.3267 -0.2803
18794TIP3    H177797   2.454   5.670  16.999 -2.2562 -2.4234 -0.4491
18794TIP3    H277798   2.471   5.776  17.106  3.5004 -0.7024 -2.9341
18795TIP3   OH277799   4.162   3.585  13.859  0.1487  0.0415 -0.1393
18795TIP3    H177800   4.213   3.657  13.822  0.4139  0.1376  0.4050
18795TIP3    H277801   4.090   3.571  13.797 -0.1620  1.0742 -0.0080
18796TIP3   OH277802   0.436   2.908  11.535 -0.6043  0.4645  0.2389
18796TIP3    H177803   0.516   2.955  11.557 -0.9147  0.3391  1.6930
18796TIP3    H277804   0.380   2.974  11.495 -0.6151  1.0874  1.2597
18797TIP3   OH277805   3.735   0.187  15.738  0.0452 -0.3472  0.4036
18797TIP3    H177806   3.736   0.120  15.669 -0.8581  0.9778 -0.9476
18797TIP3    H277807   3.651   0.231  15.726  0.7343  1.1751  1.1072
18798TIP3   OH277808   0.226   0.303   0.663  0.2675  0.1242 -0.1586
18798TIP3    H177809   0.261   0.308   0.574 -1.2798 -0.3384 -0.7954
18798TIP3    H277810   0.137   0.271   0.652 -0.2587  1.0006  1.4884
18799TIP3   OH277811   3.487   3.035  11.561 -0.3754 -0.5090  0.2655
18799TIP3    H177812   3.557   2.970  11.568  0.2208  0.1648  0.7061
18799TIP3    H277813   3.408   2.984  11.544  0.1401 -1.3193  0.2730
18800TIP3   OH277814   2.652   2.210   0.101  0.1171  0.1827  0.0121
18800TIP3    H177815   2.623   2.121   0.081  2.3890 -0.6609  0.2855
18800TIP3    H277816   2.621   2.225   0.191 -0.5614 -0.2169 -0.1530
18801TIP3   OH277817   5.619   2.036  13.007 -0.1355 -0.4933  0.5670
18801TIP3    H177818   5.641   2.110  12.951  0.2574  0.4684  1.9766
18801TIP3    H277819   5.700   1.985  13.013  0.1161 -0.0282  1.1188
18802TIP3   OH277820   4.291   4.789  13.082 -0.3998  0.3754 -0.9758
18802TIP3    H177821   4.331   4.727  13.143 -1.7227 -0.3316 -0.8025
18802TIP3    H277822   4.314   4.756  12.995  0.8103  0.9321 -0.8769
18803TIP3   OH277823   5.380   2.096  12.709  0.6737 -0.2563 -0.2186
18803TIP3    H177824   5.409   2.126  12.796 -1.9084 -1.4076  1.0806
18803TIP3    H277825   5.422   2.011  12.698 -0.6734 -1.0761  0.8507
18804TIP3   OH277826   5.230   6.000   1.147  0.3955  0.3263 -0.0585
18804TIP3    H177827   5.177   5.927   1.114  1.3024 -0.0794 -0.6304
18804TIP3    H277828   5.174   6.043   1.212 -0.7720  0.1124 -0.9068
18805TIP3   OH277829   3.889   6.020  12.605 -0.2878 -0.2973  1.0224
18805TIP3    H177830   3.852   5.955  12.545  1.1995  0.1653 -0.4400
18805TIP3    H277831   3.860   5.991  12.692 -3.3222 -0.4007  0.0392
18806TIP3   OH277832   3.242   2.769  11.621 -0.2454 -0.6172 -0.6290
18806TIP3    H177833   3.193   2.824  11.682  1.4575 -1.6704  1.7596
18806TIP3    H277834   3.312   2.731  11.673  0.8912 -2.0851 -3.1101
18807TIP3   OH277835   0.579   2.219  16.370 -0.4912 -0.0770 -0.1045
18807TIP3    H177836   0.667   2.191  16.395 -0.6043  1.2694  1.8818
18807TIP3    H277837   0.523   2.187  16.441 -2.0080 -3.0465 -2.5127
18808TIP3   OH277838   3.531   0.797  12.725  0.2204 -0.1108  0.2844
18808TIP3    H177839   3.578   0.722  12.687  0.2295 -0.2421  0.5568
18808TIP3    H277840   3.459   0.757  12.774 -0.9625  0.1351 -1.1970
18809TIP3   OH277841   2.658   5.660   1.363  0.1546  0.1234  0.4729
18809TIP3    H177842   2.588   5.612   1.319 -0.9348  0.7315  1.4754
18809TIP3    H277843   2.675   5.610   1.443  1.3911 -0.4198 -0.1256
18810TIP3   OH277844   3.674   1.218  12.790 -0.6501  0.0360  0.3036
18810TIP3    H177845   3.651   1.159  12.862 -1.1456  0.5147  0.5458
18810TIP3    H277846   3.618   1.190  12.718 -1.1797  0.4550  0.5399
18811TIP3   OH277847   3.418   3.508   1.872 -0.2656 -0.4115  0.2468
18811TIP3    H177848   3.429   3.567   1.946 -1.5327  0.1019  0.0471
18811TIP3    H277849   3.345   3.546   1.822  1.7270  0.2753 -2.2262
18812TIP3   OH277850   3.095   4.705  13.786  0.5034  0.4344  0.2370
18812TIP3    H177851   3.125   4.628  13.835  2.2850 -0.5070 -2.1951
18812TIP3    H277852   3.168   4.767  13.791 -0.2795  1.3108  0.8253
18813TIP3   OH277853   3.210   0.686  11.460  0.3258 -0.1227 -0.6428
18813TIP3    H177854   3.175   0.628  11.527 -0.7857  0.8809 -0.3203
18813TIP3    H277855   3.302   0.696  11.482  0.4399 -1.4671 -0.4945
18814TIP3   OH277856   1.001   0.694  16.215 -0.1548  0.0724  0.3165
18814TIP3    H177857   1.062   0.747  16.163 -0.6825  1.0247  0.6420
18814TIP3    H277858   0.915   0.716  16.180 -0.2278 -2.4194 -1.1780
18815TIP3   OH277859   2.937   0.154   0.193  0.0095 -0.4759 -0.0702
18815TIP3    H177860   3.031   0.139   0.188 -0.0453 -0.2063 -2.2403
18815TIP3    H277861   2.898   0.072   0.163 -0.3769  0.8379 -3.3455
18816TIP3   OH277862   5.261   4.034   2.094  0.0072  0.1687 -0.0319
18816TIP3    H177863   5.255   4.110   2.037 -1.2508 -0.5560 -0.8964
18816TIP3    H277864   5.338   4.050   2.148 -1.8596  3.4496  1.8495
18817TIP3   OH277865   4.181   0.084   0.699  0.1308  0.1401 -0.2174
18817TIP3    H177866   4.100   0.032   0.704 -0.8659  1.5329 -1.5147
18817TIP3    H277867   4.246   0.030   0.743 -1.2106 -1.5825 -0.2695
18818TIP3   OH277868   6.728   2.367   4.753 -0.1372 -0.2730 -0.2245
18818TIP3    H177869   6.747   2.306   4.682  4.6379 -0.0890  0.7278
18818TIP3    H277870   6.720   2.452   4.710  1.2241 -0.3906 -0.7334
18819TIP3   OH277871   1.023   5.183  12.201  0.0209 -0.1643  0.0166
18819TIP3    H177872   0.949   5.230  12.239 -0.7525 -2.0293  0.8739
18819TIP3    H277873   0.998   5.167  12.111  0.0529  0.5648 -0.1256
18820TIP3   OH277874   3.897   5.571   1.261  0.2017  0.1492 -0.0589
18820TIP3    H177875   3.803   5.578   1.276  0.2581  1.1137 -0.1187
18820TIP3    H277876   3.931   5.528   1.339 -0.3139 -0.4565 -0.1550
18821TIP3   OH277877   3.327   6.378  16.921 -0.5224 -0.1235 -0.4164
18821TIP3    H177878   3.280   6.461  16.931 -0.4263 -0.2757  1.3180
18821TIP3    H277879   3.285   6.336  16.845  0.5030  2.2240 -2.3620
18822TIP3   OH277880   2.302   5.461   2.980  0.5072 -0.0736 -0.1220
18822TIP3    H177881   2.232   5.527   2.980  1.2603  0.7312 -1.3159
18822TIP3    H277882   2.357   5.483   2.905  3.8559  1.2140  2.5927
18823TIP3   OH277883   0.717   1.412  11.343 -0.1519  0.0037 -0.1718
18823TIP3    H177884   0.784   1.442  11.282  1.3504 -1.5509  0.6493
18823TIP3    H277885   0.634   1.437  11.303  0.9360  2.4152 -0.9543
18824TIP3   OH277886   3.161   5.487  16.119 -0.4060 -0.5990  0.5749
18824TIP3    H177887   3.239   5.459  16.166  0.5820  1.2379  0.0721
18824TIP3    H277888   3.116   5.545  16.180 -0.9434 -0.9847  0.5504
18825TIP3   OH277889   0.340   5.771   4.454  0.3901 -0.4394 -0.2128
18825TIP3    H177890   0.301   5.843   4.505  1.0016 -0.5618  0.4358
18825TIP3    H277891   0.371   5.813   4.374 -2.5467 -0.6027 -1.5143
18826TIP3   OH277892   4.505   3.257   3.574  0.1077  0.1199 -0.1160
18826TIP3    H177893   4.461   3.184   3.529 -0.3484 -0.0137  0.5270
18826TIP3    H277894   4.553   3.215   3.645 -1.8439  0.6102  1.5631
18827TIP3   OH277895   2.213   1.683   4.626 -0.1158  0.5903 -0.0674
18827TIP3    H177896   2.227   1.775   4.603 -0.7856  0.5927 -0.4914
18827TIP3    H277897   2.292   1.639   4.598  1.4615  1.4736  2.7658
18828TIP3   OH277898   5.327   5.269   4.585  0.2745 -0.0006 -0.4329
18828TIP3    H177899   5.415   5.238   4.608  0.3057  1.2318  1.2286
18828TIP3    H277900   5.303   5.326   4.657 -0.9022  1.6277 -2.0703
18829TIP3   OH277901   2.959   3.301   6.545  0.3734 -0.6473 -0.4409
18829TIP3    H177902   3.018   3.376   6.554 -0.4115 -0.0584 -0.1252
18829TIP3    H277903   2.991   3.254   6.468  0.6773  0.1815 -0.8281
18830TIP3   OH277904   0.054   3.608  10.564 -0.0189  0.5372  0.2836
18830TIP3    H177905  -0.041   3.609  10.565 -0.0116  1.0685  1.4289
18830TIP3    H277906   0.079   3.606  10.656  1.0771  3.0386  0.0934
18831TIP3   OH277907   0.197   5.238  12.277  0.3752  0.4795  0.3019
18831TIP3    H177908   0.231   5.151  12.253 -0.9946  0.1752 -0.5702
18831TIP3    H277909   0.112   5.220  12.317 -1.0185  1.5663 -2.0839
18832TIP3   OH277910   3.415   1.112   5.716 -0.5659 -0.4251  0.1013
18832TIP3    H177911   3.489   1.160   5.753 -0.1082 -1.5100  0.6310
18832TIP3    H277912   3.454   1.031   5.681 -1.5521 -1.1789  0.7262
18833TIP3   OH277913   3.205   0.787   6.591  0.1636 -0.1316  0.3841
18833TIP3    H177914   3.113   0.792   6.565  0.5764 -0.3913 -1.1904
18833TIP3    H277915   3.221   0.868   6.638 -1.0188 -0.3349  1.1643
18834TIP3   OH277916   4.932   0.591  15.907 -0.0958  0.1160 -1.0380
18834TIP3    H177917   4.846   0.632  15.910  1.1554  2.8035 -0.6217
18834TIP3    H277918   4.988   0.654  15.861  1.8579 -1.1534 -0.4807
18835TIP3   OH277919   2.242   0.661   4.025 -0.5309 -0.0087 -0.1901
18835TIP3    H177920   2.171   0.617   4.070 -0.9763  0.7127 -0.1703
18835TIP3    H277921   2.201   0.737   3.984  0.2076  0.3619 -0.2619
18836TIP3   OH277922   6.393   6.148   5.374 -0.0153 -0.4208  0.6628
18836TIP3    H177923   6.395   6.205   5.297 -0.3719  0.9048  1.6333
18836TIP3    H277924   6.349   6.068   5.342  0.6382 -0.2412 -0.7403
18837TIP3   OH277925   3.989   1.540  12.376  0.6879 -0.0788  0.3881
18837TIP3    H177926   3.928   1.536  12.302  0.5780  1.9001  0.3407
18837TIP3    H277927   3.976   1.458  12.423  0.0035 -0.8946 -1.2008
18838TIP3   OH277928   4.510   5.904  13.633  0.3576  0.2396  0.1631
18838TIP3    H177929   4.511   5.810  13.653  1.8525 -0.6176 -3.5125
18838TIP3    H277930   4.601   5.932  13.646  0.1757  0.8978  0.0322
18839TIP3   OH277931   2.251   4.399  14.289 -0.1472  0.2041  0.0696
18839TIP3    H177932   2.314   4.364  14.352  0.0235 -1.7543 -1.1447
18839TIP3    H277933   2.293   4.476  14.253  0.3781  0.4875  1.2829
18840TIP3   OH277934   3.186   4.127  11.574 -0.0888 -0.1844 -0.1828
18840TIP3    H177935   3.129   4.152  11.646 -0.5955  0.9050 -0.9483
18840TIP3    H277936   3.274   4.131  11.610 -0.3278  0.4996  0.3207
18841TIP3   OH277937   6.095   0.960   2.137 -0.0920 -0.0554  0.1586
18841TIP3    H177938   6.121   0.979   2.046  0.9750  0.1404  0.5008
18841TIP3    H277939   6.148   1.019   2.190 -2.0759  1.2044  0.8243
18842TIP3   OH277940   2.097   2.431   6.181  0.0048 -0.3027  0.1015
18842TIP3    H177941   2.110   2.337   6.172  0.3635 -0.2554  0.1070
18842TIP3    H277942   2.157   2.470   6.117  2.8819  0.0517  2.9370
18843TIP3   OH277943   0.788   3.404  13.700  0.2229 -0.6388  0.0084
18843TIP3    H177944   0.876   3.378  13.673  0.6986  0.0827  0.8429
18843TIP3    H277945   0.792   3.408  13.796 -0.1924  1.2175 -0.0297
18844TIP3   OH277946   2.962   5.039   4.583 -0.2958 -0.0318  0.5228
18844TIP3    H177947   3.049   5.073   4.559 -0.6313  0.9729  0.7289
18844TIP3    H277948   2.934   4.990   4.505 -0.0306  0.5794  0.0357
18845TIP3   OH277949   1.064   4.002   6.667  0.1664  0.0129 -0.2472
18845TIP3    H177950   0.986   3.952   6.646 -0.6273  0.5452  1.3871
18845TIP3    H277951   1.129   3.936   6.692 -0.6708 -0.2573  1.2632
18846TIP3   OH277952   0.618   0.066  14.059 -0.0164  0.4660  0.7555
18846TIP3    H177953   0.596   0.032  14.146  1.2011 -0.3603  0.7385
18846TIP3    H277954   0.659  -0.007  14.014 -1.7087  0.5296 -0.9387
18847TIP3   OH277955   5.030   3.229  14.446 -0.1203  0.3539  0.4483
18847TIP3    H177956   4.971   3.156  14.465  2.3122 -1.9667 -0.5883
18847TIP3    H277957   5.025   3.240  14.351  1.6610 -0.3793  0.2538
18848TIP3   OH277958   0.195   3.872   4.420 -0.4642 -0.7854  0.2380
18848TIP3    H177959   0.217   3.889   4.512 -0.7163  0.1181  0.1389
18848TIP3    H277960   0.099   3.871   4.418 -0.4603 -0.7782 -0.0205
18849TIP3   OH277961   5.375   2.501   2.163 -0.5231  0.1301 -0.4729
18849TIP3    H177962   5.398   2.410   2.149 -0.0999  0.2132 -0.3341
18849TIP3    H277963   5.319   2.501   2.241  2.6083  0.3917  1.8939
18850TIP3   OH277964   0.239   1.166  14.226  0.6336  0.0722 -0.4263
18850TIP3    H177965   0.157   1.116  14.221  0.2296  0.3604  2.6724
18850TIP3    H277966   0.308   1.099  14.225  0.4955 -0.1345 -4.1218
18851TIP3   OH277967   3.696   3.868  16.767 -0.0954 -0.6750 -0.0380
18851TIP3    H177968   3.780   3.831  16.740  0.9256  0.7249  1.1486
18851TIP3    H277969   3.693   3.954  16.726  0.8630  0.9188  3.0827
18852TIP3   OH277970   0.420   3.389  11.225 -0.0723  0.2763  0.5455
18852TIP3    H177971   0.446   3.301  11.200  2.6692  1.2632 -0.2478
18852TIP3    H277972   0.383   3.380  11.313  1.1748 -1.4939  0.9008
18853TIP3   OH277973   1.626   6.431   4.422  0.5469 -0.2527  0.1741
18853TIP3    H177974   1.716   6.411   4.395  0.9426  2.1352 -0.4392
18853TIP3    H277975   1.635   6.477   4.505 -0.0940  0.0518  0.0799
18854TIP3   OH277976   5.783   1.511  16.299 -0.3046 -0.4940 -0.1025
18854TIP3    H177977   5.733   1.547  16.226 -1.7544 -1.9659  0.1275
18854TIP3    H277978   5.735   1.432  16.325  0.5131 -0.3269  2.0609
18855TIP3   OH277979   1.448   3.971   4.230  0.6554 -0.0492 -0.1395
18855TIP3    H177980   1.435   3.926   4.146 -0.7875 -2.3329  1.2351
18855TIP3    H277981   1.360   3.995   4.258  1.0200 -0.1929  1.1677
18856TIP3   OH277982   3.217   1.425  10.519  0.3768 -0.5907  0.9372
18856TIP3    H177983   3.264   1.355  10.474  0.6448 -0.2786  0.7282
18856TIP3    H277984   3.274   1.502  10.510 -1.0382  0.2907 -0.9989
18857TIP3   OH277985   0.537   4.689   4.907  0.8100 -0.2062 -0.3437
18857TIP3    H177986   0.511   4.760   4.848 -0.2072 -0.7183 -0.5248
18857TIP3    H277987   0.472   4.693   4.978  0.4911 -1.2420 -0.5788
18858TIP3   OH277988   6.730   5.711  13.635  0.3818 -0.0914  0.0706
18858TIP3    H177989   6.810   5.706  13.584 -0.1124 -1.1508 -0.6286
18858TIP3    H277990   6.760   5.726  13.725  1.3028  0.5774 -0.3374
18859TIP3   OH277991   1.030   4.844   3.040  0.1139  0.3624  0.3561
18859TIP3    H177992   1.010   4.772   2.980 -0.1382  0.9522 -0.2779
18859TIP3    H277993   1.080   4.906   2.987 -0.4742  1.0852  0.6390
18860TIP3   OH277994   3.489   3.915   6.090 -0.0417 -0.5209  0.7458
18860TIP3    H177995   3.460   3.965   6.166 -0.8262 -2.1759  1.5726
18860TIP3    H277996   3.418   3.853   6.073  0.5159 -0.7785 -0.7965
18861TIP3   OH277997   4.128   3.387   1.407  0.4426 -0.4268 -0.3596
18861TIP3    H177998   4.108   3.338   1.487 -0.7593  2.6916  1.3922
18861TIP3    H277999   4.208   3.348   1.373  1.7684 -0.9863  3.1685
18862TIP3   OH278000   0.292   3.041   0.355 -1.0333 -0.8708 -0.6091
18862TIP3    H178001   0.200   3.013   0.347 -1.5335  0.9306 -1.2701
18862TIP3    H278002   0.289   3.117   0.412  0.1509 -1.2108 -0.0775
18863TIP3   OH278003   0.829   6.138   5.346  0.2255  0.1870 -0.4692
18863TIP3    H178004   0.911   6.184   5.364 -0.3790  0.2769  2.1655
18863TIP3    H278005   0.761   6.198   5.377 -0.6458 -1.7037  1.3706
18864TIP3   OH278006   5.624   6.129  11.249  0.3492 -0.2780 -0.9170
18864TIP3    H178007   5.625   6.037  11.275  1.3582 -0.5155 -1.7755
18864TIP3    H278008   5.667   6.131  11.163 -1.2365  0.7571 -1.7154
18865TIP3   OH278009   3.515   5.864  15.425  0.3659 -0.0174  0.2561
18865TIP3    H178010   3.423   5.850  15.448  0.8357 -0.6776  1.7787
18865TIP3    H278011   3.558   5.880  15.509  1.8136 -0.7073 -0.3461
18866TIP3   OH278012   0.980   1.601  13.486 -0.0057 -0.1002 -0.4776
18866TIP3    H178013   0.983   1.676  13.544 -2.1750  0.2125 -0.7326
18866TIP3    H278014   0.921   1.539  13.529  1.5571 -1.5905 -0.3870
18867TIP3   OH278015   1.603   1.360  15.542  0.5243 -0.3760  0.2506
18867TIP3    H178016   1.536   1.349  15.474  0.8987 -0.8872 -0.0320
18867TIP3    H278017   1.609   1.455  15.553  0.7292 -0.2741 -0.6965
18868TIP3   OH278018   3.672   5.125   3.239 -0.9048 -0.6750  0.1123
18868TIP3    H178019   3.620   5.206   3.240  1.9856  1.2779  2.0490
18868TIP3    H278020   3.640   5.075   3.314 -1.4576 -0.4482  0.0274
18869TIP3   OH278021   4.604   0.970   2.554  0.5197 -0.9802 -0.0521
18869TIP3    H178022   4.511   0.988   2.563  0.5979 -0.9361  0.7462
18869TIP3    H278023   4.629   1.008   2.470  0.3716  1.2561  0.9051
18870TIP3   OH278024   1.410   1.962  12.485  0.1624  0.0031 -0.0432
18870TIP3    H178025   1.484   2.008  12.523 -0.7461 -0.8219  2.8284
18870TIP3    H278026   1.352   2.032  12.454  0.8543  0.6832  0.1831
18871TIP3   OH278027   6.148   5.812  11.639 -0.3857 -0.3281 -0.4623
18871TIP3    H178028   6.188   5.851  11.561 -1.2987 -3.1674 -2.4277
18871TIP3    H278029   6.220   5.766  11.683  0.2678  1.8129  0.7870
18872TIP3   OH278030   2.368   1.010  14.201  0.1121 -0.1183 -0.0439
18872TIP3    H178031   2.327   1.016  14.115  0.3362 -0.9296 -0.2076
18872TIP3    H278032   2.447   1.064  14.193 -0.4449  0.7127  0.0001
18873TIP3   OH278033   1.077   1.909   4.799  0.1149  0.3376  0.6294
18873TIP3    H178034   1.051   1.856   4.875  0.4116 -2.8147 -1.3908
18873TIP3    H278035   1.000   1.963   4.780 -0.7322 -0.4102  1.8428
18874TIP3   OH278036   1.766   2.588   1.903 -0.3821 -0.3876  0.2723
18874TIP3    H178037   1.811   2.665   1.867  0.2541 -0.5584  0.6832
18874TIP3    H278038   1.688   2.578   1.849  0.5414 -0.6225 -1.0547
18875TIP3   OH278039   4.464   4.887  16.576 -1.0816 -0.8353  0.5058
18875TIP3    H178040   4.372   4.913  16.577 -0.6005  0.9667 -0.2502
18875TIP3    H278041   4.509   4.957  16.622 -0.0694 -1.6483  0.7575
18876TIP3   OH278042   5.604   4.448   5.161 -0.0948 -0.1056 -0.2692
18876TIP3    H178043   5.541   4.379   5.139 -0.9970  0.7997 -0.5405
18876TIP3    H278044   5.602   4.453   5.256  1.5942 -1.9504 -0.0979
18877TIP3   OH278045   5.373   5.269  13.974  0.4120  0.7774 -0.5107
18877TIP3    H178046   5.306   5.296  14.036 -1.4409  0.6960 -2.3953
18877TIP3    H278047   5.427   5.207  14.021 -1.9566 -0.5617  0.5223
18878TIP3   OH278048   0.622   4.340   1.362  0.0383  0.2412  0.5258
18878TIP3    H178049   0.617   4.266   1.422  2.2842 -0.1991  0.2234
18878TIP3    H278050   0.647   4.301   1.278  0.2194  1.2302  0.1134
18879TIP3   OH278051   6.406   4.444  13.345 -0.6954 -0.2836  0.2905
18879TIP3    H178052   6.358   4.366  13.374 -0.5337 -0.8396 -0.8877
18879TIP3    H278053   6.473   4.410  13.286 -2.1706  0.9287 -2.1804
18880TIP3   OH278054   5.363   1.822  12.332  0.2820 -0.0656 -0.4484
18880TIP3    H178055   5.434   1.759  12.344  2.1295  1.7010 -1.8722
18880TIP3    H278056   5.322   1.796  12.249 -0.6305 -0.9703  0.2792
18881TIP3   OH278057   6.133   0.854   3.254 -0.7460 -0.4715 -0.1033
18881TIP3    H178058   6.044   0.877   3.227  0.0949  1.8016 -0.9866
18881TIP3    H278059   6.179   0.836   3.172 -0.2848 -1.2773  0.3267
18882TIP3   OH278060   0.353   0.396  15.788  0.4391  0.1319 -0.4556
18882TIP3    H178061   0.304   0.377  15.868  0.3934  1.5487 -0.1336
18882TIP3    H278062   0.295   0.368  15.717  0.8944 -2.0733  0.0076
18883TIP3   OH278063   4.477   3.305   3.180  0.0826 -0.2705  0.0425
18883TIP3    H178064   4.408   3.345   3.233  0.1916  0.9557 -0.7312
18883TIP3    H278065   4.557   3.322   3.228  0.0977  0.2176 -0.1539
18884TIP3   OH278066   0.443   4.314  10.666  0.0550 -0.3613  0.5025
18884TIP3    H178067   0.408   4.402  10.676  0.5601 -0.4168  3.0662
18884TIP3    H278068   0.454   4.282  10.755  2.5881 -1.9425 -0.3149
18885TIP3   OH278069   2.947   5.113  16.288 -0.5705 -0.1297 -0.4162
18885TIP3    H178070   2.869   5.071  16.249 -1.0390  0.2834  0.0769
18885TIP3    H278071   3.020   5.074  16.241 -1.0675 -0.6608 -0.7623
18886TIP3   OH278072   4.639   6.568   2.373 -0.4212 -0.2781 -0.0029
18886TIP3    H178073   4.602   6.499   2.318  0.5650 -1.7959  1.1905
18886TIP3    H278074   4.680   6.521   2.446  0.9953  1.5216  0.4025
18887TIP3   OH278075   4.616   0.966  11.590  0.5242 -0.0266 -0.3002
18887TIP3    H178076   4.637   0.996  11.679 -3.5753 -0.8374  1.0379
18887TIP3    H278077   4.614   1.046  11.538  0.8294  0.7026  0.7925
18888TIP3   OH278078   2.928   3.566  13.016 -0.3486 -0.6805 -0.1541
18888TIP3    H178079   3.017   3.573  12.982 -0.3918 -3.0444 -0.9026
18888TIP3    H278080   2.939   3.559  13.111  0.1417  0.5968 -0.1072
18889TIP3   OH278081   2.706   6.065   5.361  0.1193 -0.3004  0.5940
18889TIP3    H178082   2.740   5.990   5.409 -0.0402 -0.0334  1.1405
18889TIP3    H278083   2.614   6.043   5.344 -0.7116  0.8696  3.1336
18890TIP3   OH278084   1.520   4.272   3.897 -0.1356 -0.0877  0.0450
18890TIP3    H178085   1.543   4.229   3.815  1.2413  1.1990 -0.2674
18890TIP3    H278086   1.427   4.255   3.908  0.0201 -1.6356 -0.9582
18891TIP3   OH278087   4.589   3.358   1.535 -0.3950  0.4123  0.2152
18891TIP3    H178088   4.564   3.383   1.445 -1.7004  0.0875  0.4819
18891TIP3    H278089   4.574   3.437   1.586 -2.9278 -0.3791  0.7555
18892TIP3   OH278090   5.050   4.875   2.788  0.3332  0.5428 -0.4952
18892TIP3    H178091   5.005   4.795   2.815  1.2727 -0.0684 -0.7269
18892TIP3    H278092   5.093   4.906   2.867 -0.1380  0.8944 -0.3746
18893TIP3   OH278093   1.628   6.468   0.892  0.1430  0.5193 -0.5049
18893TIP3    H178094   1.559   6.484   0.955  0.7466 -1.3218  0.6517
18893TIP3    H278095   1.610   6.381   0.858  0.0837  1.3093 -2.5657
18894TIP3   OH278096   3.957   0.409   1.136  1.0093 -0.0597  0.2203
18894TIP3    H178097   3.913   0.357   1.068  0.7243  1.6154 -0.8975
18894TIP3    H278098   4.041   0.434   1.096  0.1884  2.2408 -0.1527
18895TIP3   OH278099   5.435   1.640   3.803  0.5587  0.0927 -0.0139
18895TIP3    H178100   5.434   1.622   3.709  1.9449  2.8247 -0.6098
18895TIP3    H278101   5.421   1.555   3.844  1.9071 -1.4715 -2.6637
18896TIP3   OH278102   4.934   1.393  15.245 -0.9072  0.1927 -0.2537
18896TIP3    H178103   5.007   1.381  15.184  0.3495  1.8742  0.8821
18896TIP3    H278104   4.950   1.329  15.314  1.1222  2.4495  1.4580
18897TIP3   OH278105   1.334   4.596  15.465 -0.0450  0.2078  0.0397
18897TIP3    H178106   1.367   4.600  15.375  0.5713  3.3545  0.3161
18897TIP3    H278107   1.400   4.644  15.516 -0.1398 -1.9419  2.2589
18898TIP3   OH278108   3.975   0.650  16.333  0.0241 -0.4396 -0.4380
18898TIP3    H178109   3.896   0.605  16.361 -0.1619  0.4391  0.4591
18898TIP3    H278110   4.039   0.580  16.316 -0.4356 -1.0583  0.3949
18899TIP3   OH278111   3.720   1.871   3.093  0.2418  0.3125  0.3244
18899TIP3    H178112   3.799   1.838   3.135  0.9099  1.6896  0.1854
18899TIP3    H278113   3.649   1.839   3.147  0.9890  0.3720  1.3618
18900TIP3   OH278114   5.287   4.510  15.188 -0.0709 -0.2562  0.0659
18900TIP3    H178115   5.207   4.535  15.233 -0.3317 -0.5222 -0.2432
18900TIP3    H278116   5.261   4.502  15.096  0.6873  1.3657 -0.3145
18901TIP3   OH278117   2.603   2.090   2.412  0.0328 -0.0106  0.8306
18901TIP3    H178118   2.616   1.996   2.420  1.2616  0.2543  2.0198
18901TIP3    H278119   2.573   2.102   2.322  2.1123 -1.3071 -0.0718
18902TIP3   OH278120   4.211   4.707   5.906  0.1323 -0.1228  0.1867
18902TIP3    H178121   4.301   4.730   5.928 -0.1956  1.9181 -0.4719
18902TIP3    H278122   4.162   4.722   5.987  0.3873 -1.3081  0.5666
18903TIP3   OH278123   1.997   3.098   0.395 -0.3466 -0.5321  0.0914
18903TIP3    H178124   2.082   3.089   0.352 -1.0318 -0.8038 -1.2336
18903TIP3    H278125   1.961   3.180   0.361 -0.9386 -0.8005  0.0658
18904TIP3   OH278126   3.405   6.671  15.102  0.0776 -0.0580 -0.1774
18904TIP3    H178127   3.369   6.734  15.039  2.2689 -0.7403 -2.1943
18904TIP3    H278128   3.390   6.712  15.188 -0.8974  1.9773 -1.2695
18905TIP3   OH278129   4.968   6.250   1.793 -0.5219 -0.1659  0.0072
18905TIP3    H178130   4.975   6.157   1.815  0.4444 -0.3231 -0.9312
18905TIP3    H278131   5.040   6.291   1.841  0.2565 -0.1934 -1.1186
18906TIP3   OH278132   0.636   5.236   6.322 -0.2334 -0.8198 -0.2035
18906TIP3    H178133   0.686   5.242   6.404 -0.7740 -0.6084  0.1149
18906TIP3    H278134   0.613   5.144   6.314  1.7349 -1.2384 -1.2737
18907TIP3   OH278135   5.002   4.027   3.684 -0.2947  0.9448 -0.0047
18907TIP3    H178136   4.960   3.953   3.728  0.9579  0.9034  1.1427
18907TIP3    H278137   5.090   3.996   3.664 -0.7123  1.1181 -2.1876
18908TIP3   OH278138   4.865   5.735  10.768 -0.1337  0.1496  0.7469
18908TIP3    H178139   4.830   5.647  10.757 -1.7052  0.7433  0.8397
18908TIP3    H278140   4.956   5.728  10.741 -0.1670 -1.5575  1.0130
18909TIP3   OH278141   6.339   2.878   3.092  0.0144  0.7114 -0.2013
18909TIP3    H178142   6.363   2.824   3.017 -0.2721  0.0023  0.2085
18909TIP3    H278143   6.359   2.968   3.065 -0.9570  0.5669 -1.4848
18910TIP3   OH278144   3.327   2.096   3.057 -0.2468  0.4151  0.7112
18910TIP3    H178145   3.420   2.092   3.078  0.0942  0.8127 -0.6763
18910TIP3    H278146   3.283   2.085   3.142  0.9796 -2.9552  1.0096
18911TIP3   OH278147   6.047   5.364  13.685 -0.2494  0.2843 -0.3124
18911TIP3    H178148   6.101   5.443  13.690  1.0465 -0.5766 -0.4441
18911TIP3    H278149   6.099   5.297  13.729 -2.8362  0.2828  2.9611
18912TIP3   OH278150   0.591   3.853  16.806 -0.0600  0.8419  0.1366
18912TIP3    H178151   0.627   3.934  16.769  0.0994  1.1655  0.9874
18912TIP3    H278152   0.650   3.832  16.879 -0.3767  0.2191  0.2155
18913TIP3   OH278153   2.057   4.836   5.637  0.0025  0.3237  0.0801
18913TIP3    H178154   2.023   4.906   5.581  1.0064  0.4639 -0.3549
18913TIP3    H278155   2.147   4.861   5.655  0.1863 -0.5670  0.4064
18914TIP3   OH278156   2.267   1.945   4.533 -0.0445  0.1610  0.1913
18914TIP3    H178157   2.337   1.959   4.596  0.5494  0.7187 -0.5900
18914TIP3    H278158   2.311   1.913   4.454 -0.9604 -2.3670  0.6404
18915TIP3   OH278159   2.401   6.242   1.907 -0.7610  0.1413 -0.0721
18915TIP3    H178160   2.406   6.200   1.821 -1.4276  1.0472 -0.5720
18915TIP3    H278161   2.461   6.193   1.962  0.5434  0.2665 -1.3642
18916TIP3   OH278162   2.182   0.145  15.221 -0.2380  0.1339 -0.1160
18916TIP3    H178163   2.187   0.080  15.151  1.7307 -0.9076  0.9449
18916TIP3    H278164   2.154   0.226  15.177 -2.4142 -1.3434 -1.4899
18917TIP3   OH278165   4.803   1.403   3.803  0.1909  0.2612 -0.2233
18917TIP3    H178166   4.794   1.337   3.872  2.0998 -1.3290 -1.4428
18917TIP3    H278167   4.764   1.362   3.726  2.0111  0.2460 -1.1601
18918TIP3   OH278168   6.323   4.761  16.716 -0.3490 -0.0080 -0.8385
18918TIP3    H178169   6.327   4.779  16.622  1.6420  0.8801 -0.6213
18918TIP3    H278170   6.303   4.668  16.723  3.2495 -0.9582 -2.2176
18919TIP3   OH278171   1.724   2.828   5.440 -0.2633 -0.3732  0.5115
18919TIP3    H178172   1.656   2.837   5.373  0.0101  0.9167  0.3979
18919TIP3    H278173   1.803   2.805   5.391 -0.1716  0.0896  0.4449
18920TIP3   OH278174   1.286   5.026  11.999 -0.0224  0.0381  0.4018
18920TIP3    H178175   1.301   4.944  11.952 -0.5942 -0.0740  0.4022
18920TIP3    H278176   1.194   5.046  11.981  0.1072  0.6642  0.4286
18921TIP3   OH278177   2.429   3.952   6.517  0.6382  0.2924  0.5261
18921TIP3    H178178   2.354   4.007   6.495  1.2051  0.8493 -0.0546
18921TIP3    H278179   2.392   3.865   6.532  0.0008  0.3086 -0.8530
18922TIP3   OH278180   6.703   2.067   3.311  0.6317 -0.3379  0.2313
18922TIP3    H178181   6.752   2.006   3.255  0.5723  0.2125 -0.4306
18922TIP3    H278182   6.744   2.152   3.295  0.6021 -0.1729  1.0212
18923TIP3   OH278183   4.492   1.267   0.342 -0.0185 -0.0131 -0.0915
18923TIP3    H178184   4.551   1.234   0.274 -1.6473 -0.4125 -1.3172
18923TIP3    H278185   4.493   1.362   0.331 -1.5843 -0.1743 -1.7864
18924TIP3   OH278186   1.084   6.064   4.323 -0.1326 -0.2814 -0.0063
18924TIP3    H178187   1.035   6.131   4.275  0.0550  0.5811  1.0189
18924TIP3    H278188   1.016   6.012   4.366 -0.1525  1.1185  1.6898
18925TIP3   OH278189   5.020   0.438  11.415 -0.1086  0.1978  0.0730
18925TIP3    H178190   4.999   0.425  11.323 -1.0432 -3.1367  0.7063
18925TIP3    H278191   5.116   0.435  11.418 -0.0603  0.7248 -0.8193
18926TIP3   OH278192   3.632   1.461  14.487  0.5151  0.5990  0.4079
18926TIP3    H178193   3.665   1.372  14.496  0.9535  0.7084 -0.1169
18926TIP3    H278194   3.538   1.450  14.472  0.7920  0.1608 -1.0741
18927TIP3   OH278195   6.108   0.611  15.985 -0.2325 -0.0141  0.2970
18927TIP3    H178196   6.075   0.697  16.012 -2.2715 -0.4655 -0.6555
18927TIP3    H278197   6.043   0.549  16.017  0.7120 -1.1329  0.1029
18928TIP3   OH278198   2.426   0.031   3.301 -0.1613 -0.1704 -0.3190
18928TIP3    H178199   2.372   0.105   3.274 -0.8739 -0.3219  0.6570
18928TIP3    H278200   2.509   0.070   3.326 -0.1805  0.1847 -0.8039
18929TIP3   OH278201   2.964   2.893  14.832  0.2297  0.0034 -0.5294
18929TIP3    H178202   3.009   2.971  14.865 -1.3272  0.0843  1.5240
18929TIP3    H278203   2.886   2.926  14.789 -0.0867 -0.3611 -0.2434
18930TIP3   OH278204   1.789   0.357  16.517  0.3509  0.6586  0.4257
18930TIP3    H178205   1.712   0.401  16.479  1.4649  3.0942  0.9301
18930TIP3    H278206   1.827   0.308  16.443 -1.5129 -0.4035  0.1162
18931TIP3   OH278207   2.000   1.968   4.876 -0.2289  0.3400 -0.5675
18931TIP3    H178208   1.921   1.950   4.825 -0.4528 -3.0203  0.8786
18931TIP3    H278209   1.968   1.999   4.961  0.0565  0.4817 -0.5098
18932TIP3   OH278210   3.354   2.757  14.488 -0.0437 -0.6314 -0.1436
18932TIP3    H178211   3.413   2.684  14.468 -0.4834 -1.0439  0.0495
18932TIP3    H278212   3.306   2.772  14.407  0.9371  0.2787 -0.5614
18933TIP3   OH278213   6.187   5.075  13.581 -0.2850 -0.1244  0.5615
18933TIP3    H178214   6.258   5.024  13.622 -0.5453 -0.3019  0.7928
18933TIP3    H278215   6.229   5.119  13.507  0.3674  0.7680  1.4439
18934TIP3   OH278216   1.109   3.078   0.928 -0.2179  0.0993 -0.4027
18934TIP3    H178217   1.181   3.115   0.980 -1.2807  0.2956  0.9641
18934TIP3    H278218   1.095   3.141   0.858  0.3559  0.5048 -0.1607
18935TIP3   OH278219   6.097   2.956   3.971  0.2570  0.2690  0.0235
18935TIP3    H178220   6.122   2.904   4.048 -1.4579  0.4849  0.7396
18935TIP3    H278221   6.164   3.025   3.967 -0.7522  1.5001  2.5795
18936TIP3   OH278222   2.421   3.416  12.545  0.4213  0.3830  0.4540
18936TIP3    H178223   2.404   3.497  12.593  0.3518  0.0314  1.0338
18936TIP3    H278224   2.337   3.394  12.505 -0.1180 -0.5375  2.0599
18937TIP3   OH278225   4.346   1.583   2.420  0.0555 -0.5638 -0.1047
18937TIP3    H178226   4.356   1.489   2.406 -1.3332 -0.5942 -1.0009
18937TIP3    H278227   4.254   1.600   2.400  1.0374  1.5299 -3.1394
18938TIP3   OH278228   2.836   1.858   1.047  0.4818  0.1088  0.2712
18938TIP3    H178229   2.891   1.836   1.122  0.6415  0.2386  0.1938
18938TIP3    H278230   2.766   1.913   1.083 -1.2136 -2.3658  0.8552
18939TIP3   OH278231   0.422   6.423   3.077 -0.0739 -0.4909  0.0929
18939TIP3    H178232   0.451   6.478   3.149  1.3955  0.1449 -0.9541
18939TIP3    H278233   0.333   6.453   3.058  0.0559  0.2979  0.7115
18940TIP3   OH278234   1.161   2.387   1.814  0.1331 -0.5191 -0.4398
18940TIP3    H178235   1.227   2.329   1.777 -1.0428 -1.8819 -0.4597
18940TIP3    H278236   1.092   2.389   1.747  0.7916  2.0564 -1.0791
18941TIP3   OH278237   1.575   2.402   1.082  0.0135  0.0661 -0.1588
18941TIP3    H178238   1.491   2.445   1.101 -0.3314  0.5641 -2.5747
18941TIP3    H278239   1.634   2.474   1.062  0.8616 -0.3246  0.9027
18942TIP3   OH278240   5.508   6.339  10.921 -0.0729  0.0172  0.0390
18942TIP3    H178241   5.477   6.249  10.914  0.2738 -0.0616 -0.5359
18942TIP3    H278242   5.578   6.346  10.856 -0.4042  0.8282 -0.2478
18943TIP3   OH278243   5.860   4.106   1.734  0.0504 -0.2753 -0.1128
18943TIP3    H178244   5.908   4.189   1.732 -0.4256  0.0514  1.3577
18943TIP3    H278245   5.785   4.124   1.792 -2.0751 -0.6432 -2.6504
18944TIP3   OH278246   5.802   6.435   1.877 -0.0172  0.2303  0.3156
18944TIP3    H178247   5.710   6.462   1.872 -0.0831  0.0547  0.5934
18944TIP3    H278248   5.800   6.350   1.921  0.2484  0.0711  0.0187
18945TIP3   OH278249   6.156   3.580  17.230  0.1490 -0.7121  0.2822
18945TIP3    H178250   6.183   3.664  17.267  1.2360 -1.1081  0.4040
18945TIP3    H278251   6.123   3.530  17.305  0.4803 -0.7766  0.3844
18946TIP3   OH278252   4.673   3.682   3.636 -0.5173 -0.1994  0.2607
18946TIP3    H178253   4.654   3.588   3.641  0.9014 -0.5128 -0.2818
18946TIP3    H278254   4.721   3.693   3.555  0.1377  0.8625  0.7827
18947TIP3   OH278255   0.241   2.618  16.274  0.0790 -0.0202  0.3703
18947TIP3    H178256   0.212   2.629  16.365  2.5463  0.7441  1.1117
18947TIP3    H278257   0.333   2.593  16.282  0.1983 -0.3725 -1.9256
18948TIP3   OH278258   6.348   1.862  12.838  0.7794  0.2859 -0.0215
18948TIP3    H178259   6.274   1.879  12.896  0.6925 -0.7410  0.1682
18948TIP3    H278260   6.415   1.825  12.894  0.3185 -1.6988 -0.7434
18949TIP3   OH278261   2.398   4.164  12.930  0.2768 -0.6577  0.5238
18949TIP3    H178262   2.470   4.172  12.992 -0.1057 -0.1944  0.9117
18949TIP3    H278263   2.371   4.254  12.913  0.9541 -0.7389 -0.9949
18950TIP3   OH278264   1.772   4.674  14.375 -0.0029  0.2449  0.2995
18950TIP3    H178265   1.788   4.672  14.469 -0.8844 -0.0375  0.4402
18950TIP3    H278266   1.822   4.599  14.341  1.0123  0.8532  0.4281
18951TIP3   OH278267   6.428   2.353  11.876 -0.3153 -0.4815  0.0239
18951TIP3    H178268   6.516   2.344  11.838  0.0606  0.8250  0.5356
18951TIP3    H278269   6.376   2.396  11.807 -0.3490 -0.5877 -0.0171
18952TIP3   OH278270   5.585   6.279  15.033  0.8448 -0.2375  0.1492
18952TIP3    H178271   5.576   6.325  15.116 -1.2594 -0.5597  0.1295
18952TIP3    H278272   5.592   6.349  14.968 -1.9601  0.1022  0.1614
18953TIP3   OH278273   2.979   6.057  16.035 -0.2119  0.5928 -0.3146
18953TIP3    H178274   2.885   6.051  16.021 -0.2771  1.4165 -0.2160
18953TIP3    H278275   2.995   6.000  16.110 -0.6663  0.6458 -0.1758
18954TIP3   OH278276   2.252   6.770   0.088  0.2096 -0.0961  0.0763
18954TIP3    H178277   2.225   6.710   0.157  0.9717  1.1127  1.4539
18954TIP3    H278278   2.176   6.776   0.030 -0.0206 -2.0336  0.1564
18955TIP3   OH278279   1.615   0.291  16.814 -0.2409 -0.3806 -0.5443
18955TIP3    H178280   1.643   0.360  16.754 -0.9860  0.6737  0.2893
18955TIP3    H278281   1.553   0.334  16.872  1.2664 -1.1138  1.6786
18956TIP3   OH278282   4.466   1.206  15.804 -0.3329 -0.1657 -0.6910
18956TIP3    H178283   4.523   1.171  15.873 -2.2414 -4.5057 -1.1868
18956TIP3    H278284   4.425   1.283  15.845  0.6635 -1.0312  2.0698
18957TIP3   OH278285   2.359   2.605  15.582 -0.2512 -0.0049 -0.1670
18957TIP3    H178286   2.291   2.559  15.631  1.9485 -0.4498  2.6314
18957TIP3    H278287   2.363   2.691  15.624  0.5051  0.2145 -0.6879
18958TIP3   OH278288   6.135   4.146   5.669 -0.1023  0.2674  0.4398
18958TIP3    H178289   6.190   4.217   5.636 -0.8158  0.3032 -0.7119
18958TIP3    H278290   6.135   4.157   5.764  0.7199  1.1191  0.3416
18959TIP3   OH278291   1.255   2.795  14.040 -0.1986 -0.1921  0.0004
18959TIP3    H178292   1.229   2.810  14.131  0.8773 -0.3727  0.3540
18959TIP3    H278293   1.313   2.719  14.044 -0.5078 -0.4815 -0.9048
18960TIP3   OH278294   0.839   0.734  15.984  0.2798 -0.0096 -0.0876
18960TIP3    H178295   0.787   0.738  15.904 -0.3335 -0.8559  0.2654
18960TIP3    H278296   0.924   0.698  15.956  0.2173  0.1087 -0.4325
18961TIP3   OH278297   5.062   5.991  12.142  0.0622  0.0564  0.2748
18961TIP3    H178298   4.978   5.946  12.144 -0.8427  1.6730 -0.0720
18961TIP3    H278299   5.121   5.936  12.194 -0.3099 -2.7842 -2.1519
18962TIP3   OH278300   6.697   3.142   2.472 -0.1186 -0.6814 -0.6300
18962TIP3    H178301   6.692   3.214   2.410 -0.4475  0.6162  0.8547
18962TIP3    H278302   6.608   3.130   2.504  0.2509 -0.4658  0.5239
18963TIP3   OH278303   3.757   3.688   1.437  0.5787  0.1088  0.2378
18963TIP3    H178304   3.754   3.699   1.342 -0.3929 -1.9439 -0.0106
18963TIP3    H278305   3.842   3.649   1.455  0.6045  0.1291  0.1560
18964TIP3   OH278306   6.022   3.993   0.370 -0.5854 -0.1807 -0.0751
18964TIP3    H178307   5.946   3.938   0.389 -1.0155  1.9725  5.3599
18964TIP3    H278308   5.986   4.072   0.330 -0.6285 -1.2293 -2.1363
18965TIP3   OH278309   1.294   5.465   4.809 -0.2717 -0.1253  0.2429
18965TIP3    H178310   1.297   5.501   4.721  0.7963  1.4034  0.8880
18965TIP3    H278311   1.384   5.473   4.842 -0.9506  0.6357  1.9742
18966TIP3   OH278312   5.690   4.532  11.238 -0.2209  0.1875  0.4214
18966TIP3    H178313   5.743   4.612  11.238  0.8508 -0.4685 -1.6971
18966TIP3    H278314   5.599   4.563  11.236  0.1972  1.3715 -0.9159
18967TIP3   OH278315   4.766   0.712   6.564  0.5290  0.4084 -0.3961
18967TIP3    H178316   4.817   0.647   6.613 -0.0903 -0.6370 -1.0936
18967TIP3    H278317   4.830   0.775   6.533  0.8431  1.5538  2.4359
18968TIP3   OH278318   1.073   5.859   3.545  0.1312  0.3594 -0.0170
18968TIP3    H178319   1.024   5.834   3.466 -0.4383 -0.0737  0.4692
18968TIP3    H278320   1.103   5.948   3.527 -0.0455  0.2869 -0.7010
18969TIP3   OH278321   4.225   2.766   4.335 -0.1904  0.0759  0.5840
18969TIP3    H178322   4.199   2.686   4.380 -0.5725 -0.1634 -0.0559
18969TIP3    H278323   4.298   2.800   4.386 -0.7974 -0.0426  1.5427
18970TIP3   OH278324   3.697   1.364   3.192  0.2548  0.0763  0.6054
18970TIP3    H178325   3.690   1.300   3.120  3.6446  0.4682 -0.1823
18970TIP3    H278326   3.701   1.449   3.147  0.7054  0.4476  1.3491
18971TIP3   OH278327   1.172   5.186   4.772  0.1515 -0.0631  0.2217
18971TIP3    H178328   1.104   5.225   4.718 -0.0852 -0.4175  0.2595
18971TIP3    H278329   1.248   5.243   4.761  0.3731 -0.6057 -1.1734
18972TIP3   OH278330   5.669   1.020   1.711  0.1553  0.2467  0.3746
18972TIP3    H178331   5.739   1.079   1.684 -0.5320  0.0390 -1.9234
18972TIP3    H278332   5.714   0.945   1.748  1.1690  0.0174 -1.2765
18973TIP3   OH278333   2.999   2.032   0.032 -0.1830 -0.5812  0.5115
18973TIP3    H178334   3.024   2.047   0.123  1.1068 -1.3193  0.2995
18973TIP3    H278335   2.973   2.118  -0.001  0.5003 -0.0961  1.2324
18974TIP3   OH278336   1.644   6.760  11.324  1.0233 -0.4465  0.0408
18974TIP3    H178337   1.591   6.794  11.396 -1.4791 -3.8500 -0.0845
18974TIP3    H278338   1.632   6.823  11.253 -1.0878  0.0085  0.7715
18975TIP3   OH278339   6.768   5.042  12.337  1.3836  0.3959  0.1405
18975TIP3    H178340   6.735   4.992  12.412 -0.1850  0.9700 -0.1574
18975TIP3    H278341   6.816   4.977  12.285  0.3647 -0.5493  0.3640
18976TIP3   OH278342   6.681   1.846   4.548 -0.3445 -0.6211 -1.0029
18976TIP3    H178343   6.748   1.813   4.489  1.0563  0.1744  0.1168
18976TIP3    H278344   6.612   1.880   4.491  1.5585  1.3170 -2.1709
18977TIP3   OH278345   3.488   3.333   3.528 -0.4242 -0.6987 -0.3340
18977TIP3    H178346   3.452   3.389   3.459  0.8121  0.7578  0.1740
18977TIP3    H278347   3.474   3.383   3.609 -0.4643 -1.6977  0.2787
18978TIP3   OH278348   4.275   5.695  12.845  0.6387  0.1324 -0.1318
18978TIP3    H178349   4.214   5.724  12.777 -0.2932  0.1127  0.6773
18978TIP3    H278350   4.344   5.649  12.797 -1.4891 -2.4419 -0.8708
18979TIP3   OH278351   4.199   2.796  16.524  0.5708 -0.0272  0.5079
18979TIP3    H178352   4.290   2.826  16.534  0.0371  1.4242  1.1279
18979TIP3    H278353   4.147   2.876  16.527 -0.5469 -0.5868 -2.5887
18980TIP3   OH278354   0.178   0.316   3.839 -0.7260 -0.3329 -0.6735
18980TIP3    H178355   0.159   0.223   3.831  1.2631 -0.7205 -1.1391
18980TIP3    H278356   0.265   0.320   3.879 -0.1472  1.2780 -2.0111
18981TIP3   OH278357   3.446   3.063  12.214  0.1869 -0.0928  0.0932
18981TIP3    H178358   3.448   2.969  12.198 -2.6720 -0.4838  1.7519
18981TIP3    H278359   3.482   3.073  12.302  1.5517  0.5123 -0.5138
18982TIP3   OH278360   3.737   3.456   6.436 -0.1567  0.0360  0.1819
18982TIP3    H178361   3.683   3.520   6.482 -0.8671 -0.0481 -0.5215
18982TIP3    H278362   3.806   3.508   6.394 -0.6408  0.3260 -0.2554
18983TIP3   OH278363   3.393   6.389   0.230  0.2950 -0.7497  0.4134
18983TIP3    H178364   3.454   6.328   0.188  1.9726 -0.8758  2.9745
18983TIP3    H278365   3.337   6.333   0.284  0.4313 -0.2395  1.0866
18984TIP3   OH278366   4.022   6.542  13.679  0.5388 -0.7134  0.1415
18984TIP3    H178367   3.945   6.519  13.731 -0.3529 -0.7063 -1.1318
18984TIP3    H278368   4.026   6.637  13.683  0.5912 -0.7251  0.3675
18985TIP3   OH278369   3.050   1.921   0.478 -0.1046 -0.7075 -0.2236
18985TIP3    H178370   3.003   1.869   0.544  1.4238 -1.5114  0.2401
18985TIP3    H278371   2.982   1.976   0.440 -1.4609 -1.9030  0.3935
18986TIP3   OH278372   1.524   1.896   5.280 -0.4441 -0.0138 -0.0923
18986TIP3    H178373   1.515   1.987   5.250  1.4311  0.4454  0.7066
18986TIP3    H278374   1.599   1.862   5.231 -1.0316 -1.0830 -0.2550
18987TIP3   OH278375   6.578   3.439  16.720  0.4764 -0.1617 -0.0160
18987TIP3    H178376   6.623   3.514  16.680  1.5675 -0.8217 -0.0305
18987TIP3    H278377   6.508   3.418  16.659  0.1716  0.8464 -0.0201
18988TIP3   OH278378   4.654   4.062   2.015 -0.3487 -0.5523 -0.7208
18988TIP3    H178379   4.588   4.100   1.957 -0.4960 -0.1976 -0.3257
18988TIP3    H278380   4.703   4.137   2.048  0.3976 -0.8350 -1.1898
18989TIP3   OH278381   4.952   0.918  11.636 -0.1372  0.2892  0.6009
18989TIP3    H178382   4.992   0.972  11.703 -1.5630  0.5635  1.2634
18989TIP3    H278383   5.004   0.838  11.634  0.4757  0.6704  1.3758
18990TIP3   OH278384   2.078   3.395  11.391  0.0563 -0.1983 -0.1571
18990TIP3    H178385   2.001   3.451  11.396 -1.0609 -1.6858 -0.1160
18990TIP3    H278386   2.043   3.309  11.366  1.5583 -1.1639  0.9532
18991TIP3   OH278387   6.648   5.415  16.320  0.0110  0.1515 -0.7736
18991TIP3    H178388   6.708   5.453  16.384  0.6961  0.3925 -1.5437
18991TIP3    H278389   6.607   5.491  16.278 -0.1770  0.0036 -0.8579
18992TIP3   OH278390   5.441   0.985  12.438  0.0785 -0.1029 -0.3431
18992TIP3    H178391   5.437   0.912  12.377 -0.2547 -0.1277 -0.2908
18992TIP3    H278392   5.489   0.951  12.514 -0.5286 -0.4178 -0.1014
18993TIP3   OH278393   3.961   2.010   1.783 -0.2898  0.4835 -0.1832
18993TIP3    H178394   3.892   2.076   1.771 -0.7357  0.3360  1.3407
18993TIP3    H278395   3.982   2.016   1.876  1.5665  0.3147 -0.5878
18994TIP3   OH278396   5.056   6.751  12.519  0.5814  0.0068  0.2022
18994TIP3    H178397   5.009   6.735  12.601  0.1282 -0.3455 -0.1272
18994TIP3    H278398   5.128   6.687  12.520 -0.2736 -0.9678 -0.3512
18995TIP3   OH278399   4.749   4.274  14.943 -0.1019  0.1185  0.6039
18995TIP3    H178400   4.691   4.349  14.957 -0.6953 -0.4243  1.1464
18995TIP3    H278401   4.733   4.249  14.852 -0.9241 -0.1750  0.8156
18996TIP3   OH278402   3.687   5.963   4.666  0.2586 -0.5624 -0.5529
18996TIP3    H178403   3.693   5.994   4.756  0.5787 -2.7928  0.2190
18996TIP3    H278404   3.772   5.983   4.627  0.9907 -1.7860  0.3815
18997TIP3   OH278405   2.106   0.970  15.510  0.3463  0.8788 -0.0347
18997TIP3    H178406   2.089   0.953  15.417 -1.0054  0.7435  0.2295
18997TIP3    H278407   2.187   1.020  15.511 -0.3690  2.1176 -1.4029
18998TIP3   OH278408   2.612   4.359  16.047 -0.3234  0.1407  0.3451
18998TIP3    H178409   2.627   4.389  16.136 -1.4431  0.9778  0.2639
18998TIP3    H278410   2.668   4.415  15.993  1.5796 -1.4228  0.6342
18999TIP3   OH278411   0.530   1.316  11.780 -0.4250 -0.0680  0.2560
18999TIP3    H178412   0.591   1.341  11.711 -0.6681 -1.5264 -0.5183
18999TIP3    H278413   0.509   1.224  11.762 -3.3498  0.5556  0.1045
19000TIP3   OH278414   0.095   5.265  12.624  0.0833 -0.6373  0.3051
19000TIP3    H178415   0.172   5.288  12.675  0.7221 -0.7676 -0.5758
19000TIP3    H278416   0.128   5.202  12.559 -0.5595  0.0514 -0.7027
19001TIP3   OH278417   3.424   2.303   0.088 -0.1384  0.2034 -0.5416
19001TIP3    H178418   3.503   2.292   0.141 -0.9529  0.1711  0.6818
19001TIP3    H278419   3.365   2.354   0.143 -1.6801 -1.3439 -0.7019
19002TIP3   OH278420   1.578   1.062  13.370  0.1235 -0.3266  0.1440
19002TIP3    H178421   1.581   1.147  13.413  2.2533 -1.3353  2.0851
19002TIP3    H278422   1.654   1.063  13.311 -0.1781 -0.6733 -0.2523
19003TIP3   OH278423   2.033   4.063   4.630 -0.1605  0.5340 -0.3886
19003TIP3    H178424   2.047   4.145   4.677 -1.8404  0.5427  0.1508
19003TIP3    H278425   1.994   4.089   4.547  0.6476  0.3708 -0.8207
19004TIP3   OH278426   0.452   5.755  14.178 -0.1795  0.2793  0.3597
19004TIP3    H178427   0.508   5.680  14.162  0.3861  0.7165  0.2891
19004TIP3    H278428   0.503   5.812  14.235 -0.0859  1.2270 -0.6509
19005TIP3   OH278429   6.381   1.322   3.671  0.1864  1.0473  0.2811
19005TIP3    H178430   6.431   1.293   3.595  0.5810 -0.9138  1.2535
19005TIP3    H278431   6.304   1.265   3.673  0.1209  1.1560  1.2728
19006TIP3   OH278432   4.311   4.370  13.739  0.0583  0.0208 -0.1858
19006TIP3    H178433   4.318   4.438  13.807 -0.9776 -0.9022  0.8628
19006TIP3    H278434   4.252   4.408  13.673  0.5482  0.6612 -0.2651
19007TIP3   OH278435   0.768   2.989   1.314  0.2641 -0.1153 -0.1765
19007TIP3    H178436   0.692   3.041   1.285  0.0910 -0.5804 -0.5527
19007TIP3    H278437   0.825   2.985   1.238  0.0283 -0.9301 -0.3189
19008TIP3   OH278438   3.783   0.977   2.495 -0.2172  0.0843 -0.2980
19008TIP3    H178439   3.838   0.944   2.565  0.2714 -1.2989 -1.3023
19008TIP3    H278440   3.832   1.051   2.459  0.7549 -0.7973 -0.8304
19009TIP3   OH278441   4.375   4.432  15.875 -0.2116 -0.4102 -0.1375
19009TIP3    H178442   4.319   4.472  15.941  0.6987 -0.4015  0.6566
19009TIP3    H278443   4.394   4.345  15.910  1.7760  0.2627  0.5321
19010TIP3   OH278444   3.789   3.347   1.569  0.9023  0.2785 -0.1918
19010TIP3    H178445   3.698   3.364   1.544  0.6734 -1.3495 -0.5146
19010TIP3    H278446   3.783   3.310   1.657  1.0038 -2.4643 -1.2868
19011TIP3   OH278447   3.840   0.504   4.833  0.4037 -0.1547  0.3476
19011TIP3    H178448   3.881   0.590   4.830  0.6393 -0.2417  0.8802
19011TIP3    H278449   3.768   0.513   4.895 -0.3448 -0.0209 -0.5445
19012TIP3   OH278450   4.783   4.086  16.463  0.5124  0.3385  0.0459
19012TIP3    H178451   4.856   4.086  16.402  0.2217 -0.9131 -0.3312
19012TIP3    H278452   4.814   4.034  16.538  0.7497  1.5780  0.8248
19013TIP3   OH278453   2.789   2.656   0.744  0.2013  0.1605  0.1270
19013TIP3    H178454   2.702   2.620   0.730  0.8273 -1.5006  0.3064
19013TIP3    H278455   2.803   2.649   0.838 -0.0299  1.8133  0.3074
19014TIP3   OH278456   3.754   3.104   3.184  0.0536  0.0486  0.0666
19014TIP3    H178457   3.658   3.101   3.177 -0.1218 -0.0159  2.3379
19014TIP3    H278458   3.784   3.033   3.127 -1.2663 -0.3977 -0.1004
19015TIP3   OH278459   0.123   1.922   0.965 -0.0045  0.1972  0.3174
19015TIP3    H178460   0.098   1.905   0.874  0.9266  1.5251 -0.1871
19015TIP3    H278461   0.055   1.980   0.998 -0.1708 -0.0333  0.3854
19016TIP3   OH278462   3.072   1.055  15.908  0.3899  0.2941 -0.2211
19016TIP3    H178463   3.020   1.031  15.831  2.2982 -2.2279 -0.7871
19016TIP3    H278464   3.019   1.025  15.982  0.1940 -0.6060 -0.7129
19017TIP3   OH278465   5.935   5.475  16.285  0.1593 -0.6761 -0.1889
19017TIP3    H178466   5.875   5.546  16.261  1.7191  0.8168  0.2099
19017TIP3    H278467   5.931   5.472  16.381 -0.8217 -1.9681 -0.2577
19018TIP3   OH278468   3.045   4.476   3.503  0.1782  0.3372  0.6849
19018TIP3    H178469   2.990   4.474   3.425 -1.0987  3.6990  1.4007
19018TIP3    H278470   3.007   4.410   3.561 -0.5448 -0.2782 -0.4741
19019TIP3   OH278471   1.212   6.089   3.074  0.3509 -0.5544  0.0316
19019TIP3    H178472   1.150   6.021   3.045 -1.2195  0.6826  0.4628
19019TIP3    H278473   1.177   6.170   3.038  2.3409  0.0194 -0.6468
19020TIP3   OH278474   4.022   3.652   5.467 -0.0704 -0.1737  0.0914
19020TIP3    H178475   4.102   3.663   5.519 -1.3203 -0.3518  2.1038
19020TIP3    H278476   4.050   3.664   5.377  2.4140 -1.1944  0.6959
19021TIP3   OH278477   3.653   1.045  14.969  0.1846 -0.6665  0.2786
19021TIP3    H178478   3.732   0.992  14.956  1.1439  0.9052 -0.3247
19021TIP3    H278479   3.681   1.114  15.029 -0.7095 -0.0511 -0.0142
19022TIP3   OH278480   6.382   0.437   1.913 -0.1414 -0.0110 -0.0441
19022TIP3    H178481   6.409   0.428   1.821 -1.0212  0.7080 -0.3769
19022TIP3    H278482   6.292   0.468   1.909  0.2559  1.3505  1.0591
19023TIP3   OH278483   0.083   5.628  14.676  0.4903 -0.5961  0.1878
19023TIP3    H178484   0.072   5.630  14.771 -0.9690 -2.3681  0.0785
19023TIP3    H278485   0.085   5.721  14.650 -3.2159 -0.0446  1.5231
19024TIP3   OH278486   4.791   1.136  16.395  0.0205  0.6042  0.4084
19024TIP3    H178487   4.832   1.111  16.313  0.2492  0.4718  0.5625
19024TIP3    H278488   4.716   1.189  16.369 -1.5452 -1.7460  0.0055
19025TIP3   OH278489   6.032   2.665  15.902  0.1780 -0.0762  0.3937
19025TIP3    H178490   5.960   2.603  15.884 -0.7889  0.7146  1.4670
19025TIP3    H278491   5.988   2.748  15.918  1.5256  1.1431 -2.0321
19026TIP3   OH278492   1.138   5.974  12.615 -0.0519  0.2741  0.2993
19026TIP3    H178493   1.182   5.896  12.582 -1.2408 -0.8045  1.1848
19026TIP3    H278494   1.208   6.036  12.633  1.0295 -1.0757  0.8179
19027TIP3   OH278495   4.833   1.731   2.106  0.5984  0.1659  0.6122
19027TIP3    H178496   4.824   1.635   2.109  0.2502  0.1675 -0.1734
19027TIP3    H278497   4.921   1.745   2.072  0.5257  0.1201  0.4008
19028TIP3   OH278498   2.678   2.167   5.080 -0.3075  0.3523 -0.2275
19028TIP3    H178499   2.596   2.133   5.117  0.9986 -0.4002  2.1041
19028TIP3    H278500   2.745   2.109   5.116  1.2688  1.0130 -2.0658
19029TIP3   OH278501   2.865   4.846  15.495 -0.1169  0.1669  0.1955
19029TIP3    H178502   2.864   4.933  15.455  0.1610 -1.1268 -2.7346
19029TIP3    H278503   2.958   4.824  15.502 -0.1892  0.0430  0.7908
19030TIP3   OH278504   2.633   1.830   3.218  0.0589  0.3414  0.4720
19030TIP3    H178505   2.563   1.783   3.173 -0.0063  0.6264  0.2781
19030TIP3    H278506   2.714   1.795   3.180 -0.0054  1.0515 -0.3472
19031TIP3   OH278507   0.401   0.319  13.483  0.2314  0.0895 -0.3703
19031TIP3    H178508   0.408   0.357  13.570 -0.2710 -0.0715 -0.2550
19031TIP3    H278509   0.322   0.359  13.446 -0.4176 -0.9877 -0.1735
19032TIP3   OH278510   6.485   0.641   0.496  0.1967  0.1577 -0.6899
19032TIP3    H178511   6.556   0.578   0.509  1.2342  1.5719  0.6955
19032TIP3    H278512   6.518   0.701   0.430 -0.4121 -0.1847 -1.3127
19033TIP3   OH278513   1.422   6.352   5.467  0.5902  0.1003  0.0730
19033TIP3    H178514   1.373   6.278   5.432 -0.3138  0.4353  0.6063
19033TIP3    H278515   1.408   6.423   5.404  2.3941 -0.4845 -1.0413
19034TIP3   OH278516   4.485   5.948  13.321 -0.3227 -0.8403 -0.0754
19034TIP3    H178517   4.413   5.978  13.265  1.5972  2.1777 -1.0688
19034TIP3    H278518   4.446   5.941  13.409 -2.1962 -0.8548 -0.8891
19035TIP3   OH278519   6.327   4.002  15.910 -0.2305  0.1376  0.2426
19035TIP3    H178520   6.323   4.009  15.815 -2.2613  1.0317  0.3666
19035TIP3    H278521   6.405   4.052  15.934  0.5049 -0.3960 -0.9572
19036TIP3   OH278522   0.440   4.554   1.116 -0.7906  0.1602  0.1881
19036TIP3    H178523   0.432   4.487   1.183  0.3434  0.9124  1.1059
19036TIP3    H278524   0.374   4.531   1.050  0.0564 -2.2433  0.1295
19037TIP3   OH278525   1.592   2.466  12.265 -0.4026  0.2449 -0.2285
19037TIP3    H178526   1.581   2.400  12.333  1.1948 -1.4938 -1.6187
19037TIP3    H278527   1.510   2.463  12.215 -0.2488 -0.8429 -0.4211
19038TIP3   OH278528   0.701   3.507  13.413  0.2186 -0.0479  0.6422
19038TIP3    H178529   0.744   3.497  13.499 -1.1537 -0.8989  1.2475
19038TIP3    H278530   0.773   3.524  13.353  1.2871 -0.1809  1.8516
19039TIP3   OH278531   3.993   0.390  14.534  0.2456  0.1764 -0.2220
19039TIP3    H178532   4.011   0.348  14.618  1.1645  0.0924 -0.4542
19039TIP3    H278533   4.053   0.465  14.532 -1.6873  1.7773  0.3935
19040TIP3   OH278534   6.347   2.195  16.763 -0.6243  0.2194 -0.2168
19040TIP3    H178535   6.274   2.144  16.796 -0.2792 -1.5359 -2.0401
19040TIP3    H278536   6.324   2.214  16.672 -0.3882  2.6795  0.1957
19041TIP3   OH278537   2.304   2.116   5.675 -0.4528  0.2881 -0.0295
19041TIP3    H178538   2.306   2.212   5.675 -1.3520  0.3264 -1.2734
19041TIP3    H278539   2.397   2.091   5.676 -0.1982  1.1810 -0.2969
19042TIP3   OH278540   2.095   0.806  15.984 -0.0365 -0.4513 -0.0360
19042TIP3    H178541   2.017   0.789  16.037 -0.4529 -0.8238 -0.7568
19042TIP3    H278542   2.068   0.787  15.894  1.7394 -3.6430  0.0163
19043TIP3   OH278543   6.137   5.954  11.865  0.2792  0.1264  0.0183
19043TIP3    H178544   6.216   5.937  11.917  0.0786 -2.2309 -0.4032
19043TIP3    H278545   6.146   5.898  11.788 -1.8358 -0.2149 -0.0023
19044TIP3   OH278546   6.557   5.022   6.269 -0.0619  0.1518  0.3914
19044TIP3    H178547   6.533   5.114   6.275 -1.0621 -0.0938  0.1873
19044TIP3    H278548   6.477   4.975   6.290 -0.2230 -0.6921 -1.9801
19045TIP3   OH278549   3.854   3.126   0.343 -0.7082 -0.5513 -0.4190
19045TIP3    H178550   3.794   3.175   0.399  0.7645  0.0053  0.7187
19045TIP3    H278551   3.941   3.142   0.381  0.6356  1.5730 -4.0346
19046TIP3   OH278552   0.763   1.561  15.027 -0.2261 -0.1514  0.4942
19046TIP3    H178553   0.745   1.577  14.935  1.2467  0.1246  0.2412
19046TIP3    H278554   0.702   1.491  15.052  0.1331 -1.0139 -0.9784
19047TIP3   OH278555   2.252   2.002  14.556  0.0239  0.2300  0.5487
19047TIP3    H178556   2.228   2.010  14.648  0.1197 -0.4776  0.6354
19047TIP3    H278557   2.190   1.939  14.519  0.9537 -0.6802  0.4994
19048TIP3   OH278558   4.322   2.416  15.716  0.0671  0.2363  0.1956
19048TIP3    H178559   4.298   2.411  15.623 -4.1960 -1.7742  1.3026
19048TIP3    H278560   4.299   2.505  15.742  2.4870  1.2335 -0.9054
19049TIP3   OH278561   6.149   4.345  16.300 -0.1491 -0.1602  0.0618
19049TIP3    H178562   6.074   4.312  16.251 -0.4839 -0.8388  1.0084
19049TIP3    H278563   6.221   4.343  16.237 -0.1812 -2.6253  0.0313
19050TIP3   OH278564   6.056   6.570  15.597 -0.3808 -0.0214 -0.3523
19050TIP3    H178565   5.963   6.574  15.576 -1.2320 -3.5105  2.1252
19050TIP3    H278566   6.059   6.574  15.693  1.3843 -5.7729  0.0506
19051TIP3   OH278567   0.675   4.490  12.846  0.3984 -0.3535  0.3058
19051TIP3    H178568   0.770   4.491  12.858  0.1749  0.5381  2.1410
19051TIP3    H278569   0.654   4.579  12.816  0.3271 -1.0671 -1.8976
19052TIP3   OH278570   6.688   6.774  12.298 -0.5255 -0.3835  0.1625
19052TIP3    H178571   6.672   6.681  12.282 -0.6645 -0.2126 -0.7520
19052TIP3    H278572   6.604   6.816  12.280  0.0744  0.1558 -1.4829
19053TIP3   OH278573   0.273   5.947  15.682  0.2490 -0.2301 -0.1700
19053TIP3    H178574   0.180   5.934  15.700  0.8506 -0.4135  3.1428
19053TIP3    H278575   0.287   6.041  15.698  0.6005 -0.1751 -0.8146
19054TIP3   OH278576   0.877   4.083   2.997  0.3964  0.1146  0.6963
19054TIP3    H178577   0.941   4.063   2.929  0.0095  0.4206  0.2421
19054TIP3    H278578   0.816   4.009   2.996 -1.3253  1.5071 -1.3260
19055TIP3   OH278579   5.276   1.758  13.862 -0.5013  0.1585 -0.4540
19055TIP3    H178580   5.245   1.817  13.930 -0.6275  1.4370 -1.6040
19055TIP3    H278581   5.253   1.671  13.894 -1.5334  0.8096  0.6279
19056TIP3   OH278582   3.079   0.595  11.926  0.5606 -0.8981  0.0461
19056TIP3    H178583   3.148   0.662  11.917  0.2513 -0.6420 -0.4658
19056TIP3    H278584   3.014   0.635  11.983 -0.2381 -0.2451 -1.2892
19057TIP3   OH278585   5.791   3.838   5.850  0.1956 -0.2765  0.1610
19057TIP3    H178586   5.833   3.855   5.935  0.4722  0.1172 -0.0472
19057TIP3    H278587   5.811   3.747   5.831  0.7304 -0.1697  0.1977
19058TIP3   OH278588   5.554   4.481  14.837 -0.1042 -0.9110  0.4695
19058TIP3    H178589   5.619   4.527  14.890  1.3153 -1.7142 -0.5449
19058TIP3    H278590   5.490   4.548  14.815  1.4727  0.4092 -0.2540
19059TIP3   OH278591   1.290   3.775   3.376  0.0119 -0.2202  0.1805
19059TIP3    H178592   1.300   3.843   3.310 -0.1492 -0.6614 -0.2996
19059TIP3    H278593   1.226   3.715   3.339  0.0722 -0.5749  0.6481
19060TIP3   OH278594   0.334   0.378   4.155 -0.5919  0.3484  0.0821
19060TIP3    H178595   0.389   0.327   4.214  0.1659  0.7371 -0.2894
19060TIP3    H278596   0.379   0.372   4.070 -2.2899 -1.2354 -0.7595
19061TIP3   OH278597   6.643   3.814  15.435  0.4526  0.2660  0.1174
19061TIP3    H178598   6.661   3.762  15.513  0.5747  0.6406  0.3436
19061TIP3    H278599   6.721   3.804  15.381 -0.1370 -0.9740 -0.5065
19062TIP3   OH278600   3.668   4.510  11.681 -0.2119 -0.4332  0.3592
19062TIP3    H178601   3.577   4.532  11.702 -0.5582 -0.2435 -1.3280
19062TIP3    H278602   3.674   4.416  11.697 -0.7175 -0.4582  0.4150
19063TIP3   OH278603   6.581   2.779   0.981 -0.8612 -0.1731 -0.3348
19063TIP3    H178604   6.593   2.846   1.048 -0.6239 -0.4021 -0.1468
19063TIP3    H278605   6.520   2.716   1.021 -0.5183 -0.4438 -0.2329
19064TIP3   OH278606   3.837   5.509  16.905 -0.6384 -0.3747  0.5716
19064TIP3    H178607   3.909   5.447  16.895 -0.3933 -0.0084 -0.0083
19064TIP3    H278608   3.876   5.594  16.885 -1.5846 -0.3545 -1.2929
19065TIP3   OH278609   5.359   3.190   0.795  0.4030  0.2586 -0.0301
19065TIP3    H178610   5.445   3.186   0.837 -0.3056 -0.9510  1.3707
19065TIP3    H278611   5.299   3.212   0.866 -0.4186  1.3905 -1.0576
19066TIP3   OH278612   5.051   3.380  14.658  0.1746 -0.4449  0.0486
19066TIP3    H178613   5.119   3.352  14.720  3.0511  1.3710 -2.1507
19066TIP3    H278614   5.068   3.329  14.579  0.1836  1.3813 -1.1641
19067TIP3   OH278615   5.111   5.794   4.520 -0.2141 -0.0856  0.7621
19067TIP3    H178616   5.043   5.807   4.587 -0.4604  0.5618  0.3948
19067TIP3    H278617   5.182   5.749   4.566 -0.8002 -0.5656  1.2064
19068TIP3   OH278618   5.208   0.807  17.209  0.5246 -0.3655  0.1353
19068TIP3    H178619   5.275   0.875  17.205 -0.3493  0.4799 -0.5617
19068TIP3    H278620   5.184   0.792  17.117  0.9141 -1.8233  0.2646
19069TIP3   OH278621   2.957   0.936  15.686  0.2777 -0.0708 -0.4897
19069TIP3    H178622   2.959   0.943  15.590 -1.5077 -0.9442 -0.6139
19069TIP3    H278623   2.864   0.932  15.707  0.6988 -1.3964  1.1831
19070TIP3   OH278624   3.360   4.675  11.110 -0.5187  0.0741  0.3934
19070TIP3    H178625   3.332   4.642  11.024 -2.9905  1.7262  0.5254
19070TIP3    H278626   3.289   4.650  11.169  0.0855  0.9605  1.5057
19071TIP3   OH278627   0.636   1.183   5.043 -0.0836  0.1104  0.2138
19071TIP3    H178628   0.662   1.176   4.951  0.1858  0.1931  0.2842
19071TIP3    H278629   0.540   1.185   5.040 -0.0738  0.2652 -0.0785
19072TIP3   OH278630   2.570   0.796   1.369 -0.2511 -0.2387 -0.5712
19072TIP3    H178631   2.519   0.818   1.447  1.6513  0.1973  0.5924
19072TIP3    H278632   2.549   0.866   1.306  0.5679  1.1566  0.6807
19073TIP3   OH278633   1.513   5.206  13.511  0.7827  0.2736 -1.0193
19073TIP3    H178634   1.516   5.176  13.420 -0.2689 -0.1108 -0.9337
19073TIP3    H278635   1.558   5.137  13.560 -0.1159 -0.3444 -1.0440
19074TIP3   OH278636   3.662   5.305   6.263 -0.0548 -0.8079  0.3016
19074TIP3    H178637   3.733   5.245   6.286 -1.4022 -1.7441  2.1835
19074TIP3    H278638   3.589   5.247   6.241 -0.7156  0.1505 -0.0704
19075TIP3   OH278639   5.602   1.947   4.781 -0.1043 -0.1279  0.1922
19075TIP3    H178640   5.598   2.041   4.795  1.0052 -0.1732  0.9082
19075TIP3    H278641   5.613   1.910   4.868  0.2873 -0.8568 -0.1595
19076TIP3   OH278642   4.509   6.670   6.308 -0.1370  0.0829 -0.1118
19076TIP3    H178643   4.490   6.743   6.249 -0.5611  1.1801  1.3333
19076TIP3    H278644   4.445   6.603   6.286 -0.6147  0.6843 -0.5696
19077TIP3   OH278645   6.138   2.056   1.889 -0.1855  0.7396 -0.0544
19077TIP3    H178646   6.145   1.976   1.836  0.5909  1.1605 -0.6128
19077TIP3    H278647   6.113   2.025   1.976  0.3940 -0.1464 -0.1902
19078TIP3   OH278648   2.055   2.210  17.145  0.3476  0.2547  0.7504
19078TIP3    H178649   2.063   2.117  17.122  1.9788  0.5649 -0.0654
19078TIP3    H278650   2.070   2.212  17.239  1.2431 -0.2180  0.6248
19079TIP3   OH278651   3.685   6.580  11.169 -0.4234 -0.0745  0.0665
19079TIP3    H178652   3.757   6.529  11.207 -0.6775 -2.1187 -2.0729
19079TIP3    H278653   3.727   6.657  11.133  0.2489  0.3056  1.5884
19080TIP3   OH278654   3.065   4.881   5.148 -0.4202 -0.2566 -0.2065
19080TIP3    H178655   3.150   4.843   5.170  0.2352  0.8608 -0.8031
19080TIP3    H278656   3.031   4.825   5.078 -0.6963 -1.3753  0.7908
19081TIP3   OH278657   6.657   1.353  10.898  0.0923 -0.3752  0.3960
19081TIP3    H178658   6.587   1.416  10.880  1.8938  1.3073 -0.8467
19081TIP3    H278659   6.665   1.303  10.817  0.2455 -0.6513  0.5823
19082TIP3   OH278660   5.171   5.162   0.800 -0.5634 -0.2794  0.4935
19082TIP3    H178661   5.201   5.213   0.725 -1.2549  0.5281  0.7660
19082TIP3    H278662   5.249   5.149   0.853  0.1382 -1.6391 -0.8054
19083TIP3   OH278663   6.737   6.227   0.876  0.1078  0.2836  0.4917
19083TIP3    H178664   6.766   6.165   0.809 -1.8364  0.7524 -0.8139
19083TIP3    H278665   6.816   6.244   0.928  1.3717 -0.9864 -0.9442
19084TIP3   OH278666   0.831   6.235   3.338 -0.1104 -0.8597  0.5890
19084TIP3    H178667   0.797   6.304   3.395  3.0154 -0.4671  2.1268
19084TIP3    H278668   0.905   6.276   3.294  0.3055 -2.5333 -0.2907
19085TIP3   OH278669   4.533   2.565   4.680  0.2183  0.0112  0.0029
19085TIP3    H178670   4.610   2.516   4.707 -0.5831 -1.3416 -0.1385
19085TIP3    H278671   4.502   2.608   4.760  1.8286  1.5758 -0.1913
19086TIP3   OH278672   1.617   0.063   0.445 -0.1309  0.1910 -0.1513
19086TIP3    H178673   1.524   0.041   0.444 -0.3282  1.0210 -1.2988
19086TIP3    H278674   1.658  -0.001   0.388  0.0128 -0.2021  0.3894
19087TIP3   OH278675   0.627   6.345  12.698  0.2190 -0.5335 -0.1313
19087TIP3    H178676   0.561   6.281  12.672  0.8622 -0.5878 -1.6685
19087TIP3    H278677   0.680   6.300  12.764 -1.4476 -0.3893  1.3371
19088TIP3   OH278678   6.598   3.402  15.099  0.6281  0.4034 -0.4478
19088TIP3    H178679   6.599   3.394  15.194 -1.0235 -0.3938 -0.4742
19088TIP3    H278680   6.568   3.317  15.068 -1.5371  1.4932 -1.5344
19089TIP3   OH278681   5.506   4.060   1.763  0.3707 -0.0863  0.2679
19089TIP3    H178682   5.551   4.113   1.828 -0.2674 -0.9029  1.3965
19089TIP3    H278683   5.481   3.981   1.810 -0.1273 -0.6775 -0.9684
19090TIP3   OH278684   5.015   0.653   1.530 -0.5478 -0.1370 -0.0423
19090TIP3    H178685   4.964   0.704   1.593 -0.2114  0.3061 -0.1230
19090TIP3    H278686   5.101   0.695   1.529 -0.7164  0.2086 -1.2052
19091TIP3   OH278687   4.603   2.542  12.218  0.4322 -0.3447  0.1832
19091TIP3    H178688   4.682   2.595  12.209  0.6204 -0.8242 -1.0166
19091TIP3    H278689   4.630   2.468  12.273  0.9931 -0.8613 -0.7844
19092TIP3   OH278690   4.550   2.628   6.495 -0.6727 -0.0940 -0.2872
19092TIP3    H178691   4.574   2.536   6.483 -1.0800 -0.5010  1.9108
19092TIP3    H278692   4.619   2.664   6.551  1.4140  1.8789 -3.8623
19093TIP3   OH278693   1.168   4.359  11.545  0.2599  0.1747 -0.4601
19093TIP3    H178694   1.107   4.424  11.580  1.5400  0.4510  1.3235
19093TIP3    H278695   1.115   4.280  11.533 -1.2632  1.4742 -2.4881
19094TIP3   OH278696   0.350   2.359  15.606 -0.4914  0.4015  0.2103
19094TIP3    H178697   0.305   2.414  15.543 -2.1651  0.2663  1.2417
19094TIP3    H278698   0.350   2.410  15.687 -0.4186 -0.3485  0.6932
19095TIP3   OH278699   5.254   1.932  14.856 -0.7384 -0.5459  0.8748
19095TIP3    H178700   5.311   1.864  14.892  0.9244 -0.4295 -1.4583
19095TIP3    H278701   5.308   2.012  14.860 -1.0121 -0.2835 -0.6642
19096TIP3   OH278702   5.414   3.025  15.405  0.7222 -0.3003 -0.1635
19096TIP3    H178703   5.449   2.965  15.471  0.2121 -1.2770 -0.7677
19096TIP3    H278704   5.492   3.060  15.361  1.0305 -0.4635  0.2474
19097TIP3   OH278705   3.989   3.651  12.528 -0.3203 -0.0484 -0.1325
19097TIP3    H178706   3.979   3.608  12.443 -1.4941  0.9212 -0.5146
19097TIP3    H278707   3.899   3.674  12.553  0.2416  1.9723  0.1395
19098TIP3   OH278708   6.501   6.776   4.297 -0.1536 -0.0956 -0.1205
19098TIP3    H178709   6.589   6.776   4.259  0.0148  0.0214  0.2671
19098TIP3    H278710   6.499   6.699   4.354  0.0100  0.4089  0.5776
19099TIP3   OH278711   3.387   0.830  10.628  0.3639  0.3922  0.4307
19099TIP3    H178712   3.435   0.797  10.704 -0.0879  1.2547  1.0908
19099TIP3    H278713   3.311   0.772  10.620 -0.3522  1.1710  1.5023
19100TIP3   OH278714   3.098   5.112   3.036  0.1660  0.5560 -0.4726
19100TIP3    H178715   3.059   5.113   3.123  1.4277  0.6734  0.1015
19100TIP3    H278716   3.031   5.073   2.980 -0.2377 -0.5666  0.7559
19101TIP3   OH278717   1.390   6.031  14.993 -0.1146 -0.1531 -0.1142
19101TIP3    H178718   1.481   6.006  14.976 -0.4029  0.5097 -2.7740
19101TIP3    H278719   1.363   6.080  14.916 -1.5100  3.2014  2.3659
19102TIP3   OH278720   2.607   4.103   4.061  0.2679 -0.6762  0.3925
19102TIP3    H178721   2.665   4.166   4.102 -0.3220  0.0301  0.1572
19102TIP3    H278722   2.519   4.136   4.078  0.0176  1.3883 -4.0931
19103TIP3   OH278723   6.331   5.451  12.294  0.5401 -0.0235  0.6245
19103TIP3    H178724   6.358   5.535  12.330  1.5979 -0.8261  1.7416
19103TIP3    H278725   6.393   5.388  12.331 -0.6670 -1.3966  0.3626
19104TIP3   OH278726   0.912   4.983   0.286 -0.1675  0.1203  0.1863
19104TIP3    H178727   0.997   4.979   0.241  0.4702  0.5861  1.3297
19104TIP3    H278728   0.848   4.972   0.216  0.7953  1.1491 -0.8933
19105TIP3   OH278729   3.601   3.447   4.467  0.3441 -0.2700 -0.4982
19105TIP3    H178730   3.613   3.539   4.487 -0.9968 -0.3030  0.4848
19105TIP3    H278731   3.685   3.406   4.489  0.8023  0.6301 -0.5526
19106TIP3   OH278732   3.972   2.584   3.410  0.2256  0.8367 -0.0788
19106TIP3    H178733   3.960   2.490   3.419 -0.5378  0.7141 -2.2623
19106TIP3    H278734   3.905   2.623   3.466 -1.4700  0.0901 -1.5657
19107TIP3   OH278735   1.846   5.565  11.239 -0.2600 -0.6297  0.2298
19107TIP3    H178736   1.830   5.526  11.325  0.1064 -0.1136  0.5368
19107TIP3    H278737   1.928   5.613  11.249 -1.0563  0.8109  0.0685
19108TIP3   OH278738   1.811   2.332  16.469 -0.0601 -0.1598  0.1965
19108TIP3    H178739   1.875   2.373  16.411  2.2462 -2.7528  0.7985
19108TIP3    H278740   1.751   2.286  16.410  1.0878 -1.1394 -0.2041
19109TIP3   OH278741   3.755   3.944   1.499  0.5092  0.4177  0.2848
19109TIP3    H178742   3.762   3.850   1.484  1.7255  0.3929  0.9468
19109TIP3    H278743   3.761   3.953   1.595 -0.5712  1.0838  0.2959
19110TIP3   OH278744   3.317   4.150  15.445  0.0592  0.3827  0.1963
19110TIP3    H178745   3.381   4.181  15.380 -0.5485 -0.2452 -0.7245
19110TIP3    H278746   3.265   4.227  15.467  0.6557  0.7332  0.3938
19111TIP3   OH278747   6.297   4.035   1.602  0.1267 -0.5967 -0.0303
19111TIP3    H178748   6.355   4.095   1.649 -2.1119  0.2348  1.7487
19111TIP3    H278749   6.230   4.011   1.666 -2.8499  0.3145 -2.6831
19112TIP3   OH278750   3.368   0.167   2.805  1.1310  0.2622 -0.3714
19112TIP3    H178751   3.429   0.097   2.830 -0.6925 -0.2973  2.7559
19112TIP3    H278752   3.353   0.216   2.886 -1.7426  1.0447 -1.3301
19113TIP3   OH278753   3.119   1.247   5.411  0.2308  0.2260  0.5267
19113TIP3    H178754   3.153   1.192   5.482  1.1005 -1.0722 -0.8567
19113TIP3    H278755   3.159   1.210   5.332 -0.3399  1.9596 -0.5795
19114TIP3   OH278756   5.025   0.328  10.844 -0.2751  0.5250  0.1676
19114TIP3    H178757   5.113   0.353  10.872 -0.8413  0.8856  1.6721
19114TIP3    H278758   5.005   0.248  10.893 -1.4736  1.4428  1.2142
19115TIP3   OH278759   2.229   4.964  12.755 -0.8169  1.1240 -0.2563
19115TIP3    H178760   2.270   4.979  12.840  1.5837 -1.4857 -0.8570
19115TIP3    H278761   2.222   5.051  12.716  2.7151  1.8782  0.5906
19116TIP3   OH278762   0.826   2.906   5.668  0.5190  0.2891 -0.9551
19116TIP3    H178763   0.760   2.892   5.600 -0.3792  0.8384 -0.1977
19116TIP3    H278764   0.846   2.818   5.700 -0.6532  0.2000 -0.4326
19117TIP3   OH278765   5.045   2.490  12.338  0.1298 -0.4450 -0.2608
19117TIP3    H178766   5.038   2.432  12.262 -1.4212 -0.1319 -0.3859
19117TIP3    H278767   5.051   2.578  12.300  1.6470 -0.4518 -0.0555
19118TIP3   OH278768   4.472   1.806   5.693 -0.3115 -0.0586  0.2684
19118TIP3    H178769   4.429   1.886   5.724 -0.0724 -0.2307  1.0476
19118TIP3    H278770   4.451   1.740   5.759  0.7039 -0.2776  0.3848
19119TIP3   OH278771   4.371   5.740   2.512 -0.0547 -0.0518  0.3394
19119TIP3    H178772   4.427   5.719   2.438 -0.6990  0.2944 -0.2535
19119TIP3    H278773   4.377   5.664   2.569 -1.8693 -1.6151 -1.4788
19120TIP3   OH278774   6.549   6.029  12.311  0.5731  0.3261 -0.0172
19120TIP3    H178775   6.628   5.975  12.306  0.9791  0.9631 -0.6757
19120TIP3    H278776   6.478   5.968  12.293  1.0485  0.0435 -1.0183
19121TIP3   OH278777   1.381   0.753   3.692 -0.2461  0.3436  0.0980
19121TIP3    H178778   1.463   0.793   3.721  0.2706 -0.2535 -0.5250
19121TIP3    H278779   1.318   0.825   3.691  0.7951  1.2613 -1.4878
19122TIP3   OH278780   1.861   1.077   5.442  0.1920  0.0149 -0.0532
19122TIP3    H178781   1.842   1.047   5.353  1.1453 -2.9134  0.7076
19122TIP3    H278782   1.876   1.171   5.432  1.0883 -0.3935 -3.1214
19123TIP3   OH278783   6.343   3.824   2.211 -0.4318 -0.2085  0.1550
19123TIP3    H178784   6.357   3.763   2.284  0.9320  0.9723  0.8914
19123TIP3    H278785   6.267   3.875   2.237 -1.2178 -1.1726 -0.1979
19124TIP3   OH278786   0.524   1.819   1.465  0.4367  0.6221 -0.4065
19124TIP3    H178787   0.542   1.774   1.548 -0.5680 -0.2105 -0.6259
19124TIP3    H278788   0.540   1.753   1.398 -0.7784  0.6509 -0.7478
19125TIP3   OH278789   4.032   3.170   6.536 -0.7669  0.0408  0.3886
19125TIP3    H178790   3.944   3.172   6.497 -1.1635  0.7905  1.2831
19125TIP3    H278791   4.087   3.214   6.471 -1.6392  2.3619  1.1438
19126TIP3   OH278792   3.798   6.761   3.471 -0.7650 -0.3615  0.3021
19126TIP3    H178793   3.849   6.838   3.496 -2.5502  1.1988 -0.7208
19126TIP3    H278794   3.809   6.754   3.376  0.5697 -2.2792  0.5574
19127TIP3   OH278795   4.245   5.421  16.633  0.5254  0.3590 -0.1348
19127TIP3    H178796   4.191   5.469  16.695 -0.6549  0.1898 -1.0107
19127TIP3    H278797   4.224   5.459  16.548  0.2588 -1.0483 -0.7269
19128TIP3   OH278798   2.474   3.313  13.487  0.5554  0.4508  0.1350
19128TIP3    H178799   2.546   3.346  13.434 -0.7000  1.5465 -0.9473
19128TIP3    H278800   2.471   3.371  13.563  0.4919  0.7161 -0.0703
19129TIP3   OH278801   2.178   3.336  13.950 -0.3524 -0.1783 -0.4117
19129TIP3    H178802   2.256   3.345  14.005  0.2450  0.0143 -1.2703
19129TIP3    H278803   2.115   3.288  14.004  0.2620 -0.0865  0.3909
19130TIP3   OH278804   3.603   5.617  17.011 -0.3739  0.4608  0.2994
19130TIP3    H178805   3.673   5.567  16.969 -0.1770  0.3462  0.7693
19130TIP3    H278806   3.534   5.553  17.026  0.9823 -0.3117  3.5123
19131TIP3   OH278807   1.501   5.652   4.290 -0.1574  0.0586  0.2647
19131TIP3    H178808   1.569   5.605   4.242  2.8825  2.0828  2.3935
19131TIP3    H278809   1.491   5.735   4.242 -0.4162  0.1736  0.5156
19132TIP3   OH278810   3.280   0.563   4.003  0.4889  0.1517 -0.1020
19132TIP3    H178811   3.331   0.595   4.076 -0.5012  0.4694  0.4564
19132TIP3    H278812   3.225   0.637   3.977  1.3885  0.2916 -1.6679
19133TIP3   OH278813   1.100   4.973   4.933  0.0501 -0.2714  0.4279
19133TIP3    H178814   1.128   5.048   4.880 -0.1383 -0.6509 -0.2173
19133TIP3    H278815   1.112   5.001   5.024 -0.3352  0.6631  0.1954
19134TIP3   OH278816   0.610   4.204   3.016  0.0494  0.1056  0.0249
19134TIP3    H178817   0.703   4.192   2.994  0.1655 -0.2330  0.6873
19134TIP3    H278818   0.609   4.206   3.111 -0.4931  1.1870 -0.0030
19135TIP3   OH278819   4.652   0.879  15.876 -0.0271  0.0544 -0.3038
19135TIP3    H178820   4.560   0.857  15.866 -0.5280  2.8687 -2.7150
19135TIP3    H278821   4.696   0.833  15.805  0.1822 -0.0512 -0.1049
19136TIP3   OH278822   2.237   0.870   2.375 -0.1342 -0.0933 -0.2681
19136TIP3    H178823   2.285   0.793   2.404  1.0800 -0.4877 -3.1668
19136TIP3    H278824   2.146   0.841   2.369 -0.2648 -0.2518  2.1511
19137TIP3   OH278825   0.020   0.126  13.483  0.8951  0.3843  0.1090
19137TIP3    H178826  -0.070   0.092  13.484  1.0704 -0.0875 -0.2474
19137TIP3    H278827   0.039   0.141  13.391  2.1249 -2.0451 -0.0820
19138TIP3   OH278828   1.087   4.108   2.753 -0.1719 -0.6480  0.1729
19138TIP3    H178829   1.086   4.132   2.660 -2.7469  1.5123  0.7033
19138TIP3    H278830   1.131   4.182   2.795 -0.3123 -0.9602  0.8611
19139TIP3   OH278831   4.704   0.001   1.777 -0.2366  0.1335  0.0826
19139TIP3    H178832   4.756  -0.028   1.702  0.1491  1.1681 -0.0593
19139TIP3    H278833   4.759   0.066   1.821  0.7372 -2.4856  2.9137
19140TIP3   OH278834   0.007   2.431  11.860 -0.1946  0.0125  0.3824
19140TIP3    H178835  -0.043   2.351  11.843 -0.8523  0.4656  0.1693
19140TIP3    H278836   0.077   2.403  11.919  0.2843 -0.9503 -0.6255
19141TIP3   OH278837   1.188   5.104   2.947 -0.0748 -0.1319  0.2421
19141TIP3    H178838   1.205   5.169   3.015 -0.5422  0.9804 -0.6767
19141TIP3    H278839   1.273   5.092   2.904 -0.1978  0.6292 -0.2267
19142TIP3   OH278840   6.183   3.319   6.192 -0.2351  0.3861 -0.1443
19142TIP3    H178841   6.142   3.265   6.260  1.1576  1.0077  1.2070
19142TIP3    H278842   6.133   3.401   6.194  0.9160  1.0764  1.3851
19143TIP3   OH278843   0.723   6.720   3.386 -0.2552  0.1461 -0.1773
19143TIP3    H178844   0.701   6.649   3.326 -2.3977  1.3279 -0.8536
19143TIP3    H278845   0.652   6.720   3.450  0.4649  0.7929  0.6402
19144TIP3   OH278846   4.078   2.384   1.378 -0.7272 -0.1343 -0.1574
19144TIP3    H178847   4.052   2.408   1.467 -2.7114  2.2973 -1.3299
19144TIP3    H278848   4.163   2.426   1.365 -2.1199  2.6443 -0.6328
19145TIP3   OH278849   4.766   4.131   5.902 -0.4083 -0.3381 -0.4966
19145TIP3    H178850   4.819   4.114   5.979  0.8813  2.1881 -0.7717
19145TIP3    H278851   4.676   4.134   5.934 -0.0887 -1.4950  0.5160
19146TIP3   OH278852   3.594   1.727  16.569  0.3664 -0.5106 -0.7600
19146TIP3    H178853   3.565   1.636  16.563 -0.7473 -0.1850 -0.6231
19146TIP3    H278854   3.516   1.777  16.544  1.0254  0.3934 -0.9983
19147TIP3   OH278855   2.147   4.737  14.422  0.5437  0.0267  0.4048
19147TIP3    H178856   2.209   4.744  14.350  0.2784  1.1681  0.2764
19147TIP3    H278857   2.079   4.677  14.389  1.2267 -0.7039  0.3079
19148TIP3   OH278858   1.337   4.574  12.818  0.6679 -0.2457 -0.1899
19148TIP3    H178859   1.248   4.540  12.813  0.7751 -0.7657  1.3531
19148TIP3    H278860   1.384   4.528  12.748 -0.1993 -0.1426 -0.8580
19149TIP3   OH278861   5.990   3.682  13.698  0.3398  0.4475 -0.4706
19149TIP3    H178862   6.047   3.701  13.624  0.3749  0.0396 -0.5455
19149TIP3    H278863   5.919   3.747  13.691 -0.4744 -0.5536 -1.7219
19150TIP3   OH278864   2.287   2.421   5.967 -0.5408  0.5230  0.2947
19150TIP3    H178865   2.306   2.330   5.992  0.2049  0.9779  1.4369
19150TIP3    H278866   2.373   2.463   5.964 -0.6388  0.6113 -2.6745
19151TIP3   OH278867   3.038   0.046   3.891 -0.4147  0.4284  0.3451
19151TIP3    H178868   2.981  -0.030   3.888  0.8026 -0.4637 -0.3324
19151TIP3    H278869   3.010   0.100   3.817  0.5371 -0.6846 -0.8531
19152TIP3   OH278870   5.834   2.900   4.047  0.2426  0.5928 -0.5541
19152TIP3    H178871   5.861   2.863   4.131 -2.4934  0.5895  0.3827
19152TIP3    H278872   5.915   2.913   3.999  2.0206  2.0296  2.6815
19153TIP3   OH278873   4.940   5.060   3.963 -0.3507  0.4876  0.3577
19153TIP3    H178874   4.865   5.071   4.021 -0.3361  2.2203  0.0999
19153TIP3    H278875   5.012   5.033   4.020 -1.1285 -1.0333  0.6273
19154TIP3   OH278876   0.086   1.238  15.605 -0.2389  0.2766  0.4939
19154TIP3    H178877   0.086   1.319  15.656 -0.7264  0.0509  0.8467
19154TIP3    H278878   0.012   1.188  15.638  1.7109 -1.5588  2.2148
19155TIP3   OH278879   5.568   2.069  14.996  0.1610  0.5072 -0.6306
19155TIP3    H178880   5.576   1.974  14.992  0.8832  0.5966 -1.5047
19155TIP3    H278881   5.570   2.098  14.905 -2.3438  1.1915 -0.4958
19156TIP3   OH278882   0.868   4.384   4.420 -0.1681  0.2672 -0.2885
19156TIP3    H178883   0.780   4.378   4.458  1.1880  0.0697  2.9793
19156TIP3    H278884   0.867   4.320   4.349 -2.3782 -0.4263  0.3076
19157TIP3   OH278885   1.088   4.198  14.712  0.4359 -0.0594 -0.5545
19157TIP3    H178886   1.026   4.133  14.679  2.1497 -0.4001 -3.2092
19157TIP3    H278887   1.075   4.275  14.657  1.2636  0.4414 -0.0669
19158TIP3   OH278888   2.198   5.128   2.560  0.2990  0.3379  0.2928
19158TIP3    H178889   2.124   5.087   2.515  0.2555  0.8584 -0.1120
19158TIP3    H278890   2.165   5.146   2.649 -0.1819  0.8988  0.0067
19159TIP3   OH278891   4.666   1.948   5.403  0.1610  0.2453  0.1044
19159TIP3    H178892   4.747   1.948   5.453 -0.4366 -2.1120  1.1459
19159TIP3    H278893   4.621   1.868   5.430 -2.7087  1.7027 -0.1357
19160TIP3   OH278894   4.726   1.929   1.109 -0.3097  0.4809 -0.0228
19160TIP3    H178895   4.781   1.925   1.031 -0.7359  0.3493 -0.3150
19160TIP3    H278896   4.676   1.847   1.108 -2.2752  1.6566 -1.0489
19161TIP3   OH278897   3.444   1.994   0.531 -0.4110 -0.5306 -0.5283
19161TIP3    H178898   3.414   1.981   0.441 -0.9426  0.8370 -0.5589
19161TIP3    H278899   3.511   2.061   0.525 -1.2529  0.3979  0.2166
19162TIP3   OH278900   2.167   1.850   1.491  0.1109 -0.3843  0.6619
19162TIP3    H178901   2.239   1.913   1.488  0.4770 -0.8855 -1.3431
19162TIP3    H278902   2.175   1.800   1.410 -1.3078 -1.7691  1.3542
19163TIP3   OH278903   5.554   1.292   0.597  0.1788 -0.0616 -0.0777
19163TIP3    H178904   5.502   1.350   0.541  1.4070 -0.4178 -1.6438
19163TIP3    H278905   5.595   1.231   0.536  3.3773  0.9490  0.9441
19164TIP3   OH278906   2.730   0.323  15.911  0.0131 -0.0821 -0.0234
19164TIP3    H178907   2.813   0.324  15.863 -0.6619 -0.7589 -1.2359
19164TIP3    H278908   2.701   0.414  15.909  1.9475  0.6521  2.6251
19165TIP3   OH278909   2.392   5.060  14.654 -0.5373 -0.0830  0.9652
19165TIP3    H178910   2.346   5.131  14.609 -0.1331  0.6025  1.6389
19165TIP3    H278911   2.322   5.004  14.688 -0.9218  1.5175  2.8934
19166TIP3   OH278912   5.767   3.793  14.767  0.1585  0.0233 -0.1438
19166TIP3    H178913   5.838   3.763  14.824 -0.3205  0.9507  0.9583
19166TIP3    H278914   5.809   3.859  14.711  0.8534 -1.5746 -1.5459
19167TIP3   OH278915   1.075   6.180   3.453 -0.1057  0.2499  0.0475
19167TIP3    H178916   0.987   6.170   3.417 -0.2348  2.4778 -0.3058
19167TIP3    H278917   1.089   6.274   3.458  2.0486 -0.0647  0.6314
19168TIP3   OH278918   0.310   5.326  16.849  0.5740 -0.3501 -0.0246
19168TIP3    H178919   0.289   5.387  16.919  1.0419 -1.0466  0.7278
19168TIP3    H278920   0.227   5.283  16.828 -0.3368  2.4024 -2.3901
19169TIP3   OH278921   5.022   5.475  12.599 -0.3913  0.1881  0.1304
19169TIP3    H178922   4.976   5.394  12.620  0.3013  0.2575  2.0199
19169TIP3    H278923   5.060   5.460  12.513 -1.3991 -0.9955 -0.1109
19170TIP3   OH278924   2.175   6.172  14.128  0.5132  0.3456 -0.5287
19170TIP3    H178925   2.099   6.164  14.071  0.7557  0.4563 -0.8648
19170TIP3    H278926   2.214   6.084  14.128  0.5672  0.3698 -0.6074
19171TIP3   OH278927   3.905   1.294   4.482 -0.4697 -0.2226 -0.0033
19171TIP3    H178928   3.881   1.280   4.574  0.7075  0.1395  0.3714
19171TIP3    H278929   3.840   1.355   4.449  0.0039  0.8724  1.0368
19172TIP3   OH278930   3.121   2.428   5.580 -0.3363  0.1926 -0.1987
19172TIP3    H178931   3.092   2.488   5.649 -0.1057 -1.6799  1.5995
19172TIP3    H278932   3.067   2.449   5.505 -3.1291 -0.1052  1.6724
19173TIP3   OH278933   2.459   2.303   1.634  0.0236 -0.1972 -0.3994
19173TIP3    H178934   2.379   2.356   1.639  0.3078  0.0604  2.3792
19173TIP3    H278935   2.428   2.213   1.630 -0.4386 -0.0656  0.0642
19174TIP3   OH278936   5.057   3.629  13.455 -0.1897  0.3394  0.2649
19174TIP3    H178937   5.029   3.619  13.364 -1.4454 -0.8666  0.7687
19174TIP3    H278938   4.996   3.693  13.492 -0.1242  0.2886  0.4590
19175TIP3   OH278939   2.330   1.266  11.259 -0.1100  0.4130  0.1737
19175TIP3    H178940   2.361   1.240  11.173 -2.1192  0.5894 -0.6267
19175TIP3    H278941   2.331   1.362  11.257  1.7164  0.4294  1.0591
19176TIP3   OH278942   3.739   2.995  15.010  0.9903 -0.0513 -0.1307
19176TIP3    H178943   3.683   3.018  14.936  0.5876 -0.5164  0.0273
19176TIP3    H278944   3.748   2.900  15.005  0.7756 -0.1122  0.5455
19177TIP3   OH278945   1.437   0.399   1.169  0.1413  0.5263 -0.2366
19177TIP3    H178946   1.372   0.328   1.175  1.9658 -1.0296  1.7966
19177TIP3    H278947   1.385   0.477   1.150 -2.0319 -1.1324 -1.4157
19178TIP3   OH278948   6.594   0.435  15.609 -0.1328 -0.3079  0.7977
19178TIP3    H178949   6.558   0.365  15.555 -0.6071  1.1340 -0.7967
19178TIP3    H278950   6.648   0.390  15.674  0.6121 -2.0542 -0.9976
19179TIP3   OH278951   5.256   5.927   3.063  0.0937 -0.3930 -0.2724
19179TIP3    H178952   5.350   5.912   3.061  0.1585 -0.2961  1.1677
19179TIP3    H278953   5.247   6.011   3.108 -0.7880 -1.6940  2.0593
19180TIP3   OH278954   4.052   4.047   6.610 -0.6535  0.0821  0.5420
19180TIP3    H178955   3.965   4.071   6.577 -0.3230 -0.4317 -0.7252
19180TIP3    H278956   4.113   4.091   6.551 -0.0549 -1.4541 -0.0143
19181TIP3   OH278957   5.015   5.560  15.752  0.0323  0.3274  0.5522
19181TIP3    H178958   4.927   5.597  15.736 -0.0470 -0.2725 -0.4362
19181TIP3    H278959   4.998   5.470  15.778  0.4277 -0.3549 -1.4691
19182TIP3   OH278960   1.259   3.820   3.756  0.1467  0.9173 -0.5750
19182TIP3    H178961   1.228   3.730   3.744  1.2953  0.5852 -1.1827
19182TIP3    H278962   1.256   3.858   3.668 -0.0497  1.3809 -0.3694
19183TIP3   OH278963   1.123   1.157  12.622  0.0323  0.1628  0.0643
19183TIP3    H178964   1.089   1.150  12.712 -2.5999  0.9771 -0.8244
19183TIP3    H278965   1.050   1.128  12.567  1.2520  0.7317 -1.8692
19184TIP3   OH278966   4.313   2.160   2.665 -0.1124  0.2415  0.2795
19184TIP3    H178967   4.258   2.107   2.723 -0.0746  1.1678  1.1758
19184TIP3    H278968   4.399   2.121   2.671 -0.9156 -2.0576 -2.1746
19185TIP3   OH278969   0.947   1.087   2.594  0.7012  0.4830  0.7150
19185TIP3    H178970   0.997   1.012   2.625 -0.6172 -1.2862 -1.2724
19185TIP3    H278971   0.924   1.135   2.674  1.8013 -1.0648  2.0006
19186TIP3   OH278972   2.317   6.751  12.418  0.1727  0.3537  0.3858
19186TIP3    H178973   2.343   6.834  12.458  1.2697 -0.2741  1.0020
19186TIP3    H278974   2.249   6.717  12.476  1.9317 -0.6774  1.9254
19187TIP3   OH278975   4.648   3.299   2.903 -0.2439 -0.9018 -0.8884
19187TIP3    H178976   4.682   3.214   2.931  0.5555  0.1587  1.4581
19187TIP3    H278977   4.725   3.356   2.901 -1.2507  0.5601  0.7260
19188TIP3   OH278978   2.117   2.993  15.633 -0.0318 -0.1759 -0.2751
19188TIP3    H178979   2.094   2.975  15.542 -1.3194  0.4902 -0.0950
19188TIP3    H278980   2.039   2.968  15.682  0.3899  0.1587  0.5687
19189TIP3   OH278981   3.965   5.069  14.757 -0.1732 -0.0627 -0.1436
19189TIP3    H178982   4.040   5.012  14.741  0.2638  0.5767 -0.4196
19189TIP3    H278983   3.907   5.019  14.814 -0.5898 -1.4406 -1.7409
19190TIP3   OH278984   1.155   6.358   0.966  0.6408 -0.0986 -0.4486
19190TIP3    H178985   1.231   6.343   0.910  0.1225 -0.3357 -1.0891
19190TIP3    H278986   1.145   6.277   1.015 -1.2761 -1.3924 -2.8559
19191TIP3   OH278987   4.237   3.886  14.083  0.0582  0.1280  0.1849
19191TIP3    H178988   4.204   3.920  14.167 -1.7207  0.0905 -0.4792
19191TIP3    H278989   4.260   3.965  14.033  1.6261  0.1374  0.8788
19192TIP3   OH278990   6.345   2.318  16.442 -0.1608  0.5513 -0.3988
19192TIP3    H178991   6.271   2.380  16.444 -0.1059  0.5939  0.4028
19192TIP3    H278992   6.312   2.244  16.391 -1.2696 -0.0483  1.1227
19193TIP3   OH278993   6.764   1.114  11.836  0.1389  0.4155 -0.1089
19193TIP3    H178994   6.825   1.044  11.862 -0.4709 -0.1509 -0.1877
19193TIP3    H278995   6.698   1.069  11.783 -0.7245  0.9001  0.5456
19194TIP3   OH278996   5.581   1.100   5.867 -0.1752 -0.4602  0.4924
19194TIP3    H178997   5.521   1.096   5.942 -0.0614  0.4329  0.6342
19194TIP3    H278998   5.549   1.174   5.814  0.0654 -0.7505 -0.0637
19195TIP3   OH278999   2.973   5.982   1.714 -0.3909  0.1795  0.3294
19195TIP3    H179000   2.956   5.964   1.806  1.2630 -2.3526  0.2076
19195TIP3    H279001   2.918   5.918   1.667 -0.5807  0.8838 -0.4160
19196TIP3   OH279002   5.537   6.287  11.761 -0.3417 -0.1413  0.2682
19196TIP3    H179003   5.553   6.268  11.669  2.0761  0.3567  0.5606
19196TIP3    H279004   5.512   6.203  11.799  0.3957 -0.6960 -0.4714
19197TIP3   OH279005   5.994   0.750   0.508 -0.1450 -0.1244 -0.4590
19197TIP3    H179006   5.902   0.759   0.481 -1.3442  0.1074  3.3500
19197TIP3    H279007   6.040   0.819   0.460 -1.9627 -0.2789 -2.4821
19198TIP3   OH279008   6.130   6.660  10.450  0.2755 -0.4720 -0.2448
19198TIP3    H179009   6.140   6.745  10.493  0.3089  1.2534 -3.5337
19198TIP3    H279010   6.176   6.599  10.508 -0.4372  1.5673  2.5943
19199TIP3   OH279011   4.974   0.229  11.579  0.0255  0.5698 -0.0057
19199TIP3    H179012   4.978   0.315  11.537  1.1322  1.5198  1.9759
19199TIP3    H279013   5.032   0.174  11.526  0.1802  1.3349 -0.6404
19200TIP3   OH279014   2.890   6.353  14.306 -0.0953  0.8501 -0.2868
19200TIP3    H179015   2.809   6.381  14.264 -0.7118 -1.0249 -0.4026
19200TIP3    H279016   2.865   6.335  14.397  0.4159  1.2505 -0.0634
19201TIP3   OH279017   4.144   2.204  15.622  0.5211 -0.1440  0.4343
19201TIP3    H179018   4.088   2.150  15.566  0.3774 -0.7855  1.1983
19201TIP3    H279019   4.227   2.210  15.575  0.2483 -0.2831 -0.0714
19202TIP3   OH279020   2.700   5.701  16.008  0.2106 -0.1679 -0.2251
19202TIP3    H179021   2.783   5.720  15.964  0.3902  1.7697  0.9325
19202TIP3    H279022   2.636   5.701  15.937  0.8698  0.4830 -0.8373
19203TIP3   OH279023   2.826   0.036   3.434  0.0036 -0.7001  0.3106
19203TIP3    H179024   2.771  -0.020   3.378  1.4359 -0.1293 -1.7384
19203TIP3    H279025   2.903   0.054   3.380  0.8783  0.8686  2.0586
19204TIP3   OH279026   1.565   4.997  14.779  0.3360 -0.0065 -0.2801
19204TIP3    H179027   1.606   4.926  14.729  0.1837 -0.5026  0.2963
19204TIP3    H279028   1.585   5.076  14.729 -1.4183 -0.7066 -2.1361
19205TIP3   OH279029   6.329   0.059   1.111  0.2740 -0.3012 -0.0531
19205TIP3    H179030   6.408   0.024   1.151  1.5489  0.9316 -1.4342
19205TIP3    H279031   6.276   0.091   1.185  1.1822 -0.8799  0.8559
19206TIP3   OH279032   3.641   4.757   3.543  0.2675 -0.0282  0.4159
19206TIP3    H179033   3.597   4.823   3.596 -0.5515 -0.8983  0.8511
19206TIP3    H279034   3.588   4.750   3.464 -0.3161 -0.9802  0.8804
19207TIP3   OH279035   0.696   0.088  17.203 -0.2174 -0.0466 -0.4040
19207TIP3    H179036   0.666   0.014  17.149 -1.5857 -0.4236  0.8157
19207TIP3    H279037   0.652   0.164  17.165  0.1197 -0.0626 -0.8298
19208TIP3   OH279038   0.802   4.199  13.386  0.2275 -0.1710 -0.0763
19208TIP3    H179039   0.761   4.255  13.319 -0.1982  0.2143  0.4911
19208TIP3    H279040   0.825   4.119  13.340 -1.6444 -0.6053 -0.3259
19209TIP3   OH279041   3.060   2.089  15.019 -0.2274 -0.0083  0.0077
19209TIP3    H179042   3.128   2.136  15.068 -0.6981 -0.5442  1.1827
19209TIP3    H279043   3.049   2.141  14.939  0.0252  1.2868  0.7950
19210TIP3   OH279044   5.429   6.367   1.081 -0.3878 -0.4034 -0.7067
19210TIP3    H179045   5.512   6.365   1.033  1.2541  0.1918  1.9924
19210TIP3    H279046   5.439   6.299   1.148 -2.2680 -0.6305 -0.6431
19211TIP3   OH279047   5.600   4.142  15.500  0.2616  0.1326 -0.7703
19211TIP3    H179048   5.618   4.048  15.508  0.7516  0.1781 -1.2653
19211TIP3    H279049   5.622   4.163  15.409  2.2356  1.1706 -0.0795
19212TIP3   OH279050   1.971   6.030  10.769 -0.0412 -0.5321  0.2402
19212TIP3    H179051   2.024   5.955  10.793 -2.3683 -1.6315  2.1696
19212TIP3    H279052   1.962   6.025  10.674  0.8015 -2.0107  0.2361
19213TIP3   OH279053   1.520   1.832  16.102  0.0240  0.0459  0.4316
19213TIP3    H179054   1.538   1.797  16.189 -0.7279 -2.3203 -0.3365
19213TIP3    H279055   1.464   1.767  16.061 -2.3498  2.6960 -0.6679
19214TIP3   OH279056   6.299   6.161  15.428  0.2987 -0.5840  0.0343
19214TIP3    H179057   6.302   6.192  15.338  0.0281 -0.8463 -0.0643
19214TIP3    H279058   6.303   6.241  15.481  1.5774 -0.4791 -0.1910
19215TIP3   OH279059   0.038   3.126  14.773 -0.4592 -0.5166  0.1758
19215TIP3    H179060   0.037   3.101  14.681  1.3588 -0.0350  0.0094
19215TIP3    H279061   0.074   3.050  14.818 -0.3802 -0.3731  0.3565
19216TIP3   OH279062   4.110   1.614   0.808  0.3630 -0.3769  0.2657
19216TIP3    H179063   4.022   1.652   0.812  0.1484 -0.9636  1.6698
19216TIP3    H279064   4.134   1.601   0.900  2.5921  1.2893 -0.0396
19217TIP3   OH279065   5.023   1.922  10.820 -0.0226  0.2854 -0.0998
19217TIP3    H179066   4.994   1.945  10.909 -0.2073 -1.7733  0.3833
19217TIP3    H279067   5.110   1.886  10.831 -0.4886 -1.0300 -0.6047
19218TIP3   OH279068   4.842   1.478  16.885 -0.5324 -0.2579 -0.1288
19218TIP3    H179069   4.813   1.403  16.833 -2.0184 -0.9703  1.6367
19218TIP3    H279070   4.937   1.482  16.872 -0.3206 -2.9443  0.3453
19219TIP3   OH279071   0.673   2.706   0.820 -0.6671 -0.3754 -0.2111
19219TIP3    H179072   0.755   2.724   0.866 -1.1021  1.2266 -0.0179
19219TIP3    H279073   0.654   2.614   0.839 -0.4460  0.0570  2.1899
19220TIP3   OH279074   3.205   1.889  11.439 -0.4788  0.2540 -0.6132
19220TIP3    H179075   3.111   1.871  11.436 -0.4313 -0.2441  0.6000
19220TIP3    H279076   3.246   1.816  11.393 -0.5171 -1.0045  1.2799
19221TIP3   OH279077   5.951   6.170   2.412  0.2043 -0.4149 -0.1611
19221TIP3    H179078   6.032   6.178   2.361  0.2363 -0.5863 -0.1347
19221TIP3    H279079   5.890   6.124   2.354 -0.4725  1.3531 -0.8887
19222TIP3   OH279080   3.375   5.266   1.043 -0.3274  0.5808 -0.5529
19222TIP3    H179081   3.335   5.193   1.089  0.3164 -0.1889 -1.1974
19222TIP3    H279082   3.330   5.344   1.077  1.4974  0.2365  2.7991
19223TIP3   OH279083   3.538   0.429  13.170 -0.1717 -0.3286  0.1554
19223TIP3    H179084   3.449   0.421  13.205 -0.0301  2.7841  1.3238
19223TIP3    H279085   3.564   0.339  13.151 -2.9013 -1.4478  1.4542
19224TIP3   OH279086   1.781   4.848  15.494  0.0369 -0.0015 -0.1616
19224TIP3    H179087   1.703   4.802  15.526  0.7319 -1.2195 -0.2043
19224TIP3    H279088   1.840   4.849  15.569 -0.3355  1.6892  0.1411
19225TIP3   OH279089   4.107   0.092   4.415  0.4331 -0.2316  0.1110
19225TIP3    H179090   4.062   0.139   4.486  0.8975 -0.3960  0.5132
19225TIP3    H279091   4.198   0.087   4.443  0.9492  1.1634 -1.2640
19226TIP3   OH279092   0.176   6.162  12.420  0.0135 -0.1026  0.2003
19226TIP3    H179093   0.159   6.075  12.455 -0.6404 -0.0252  0.0784
19226TIP3    H279094   0.134   6.162  12.334  1.4960 -0.2520 -0.5443
19227TIP3   OH279095   2.461   4.322  14.430  0.2512  0.2693  0.7902
19227TIP3    H179096   2.447   4.283  14.516 -1.3797  1.8539  1.2640
19227TIP3    H279097   2.554   4.346  14.429  0.7998 -1.7043  1.2551
19228TIP3   OH279098   0.201   0.602   5.467  0.1388 -0.5250 -0.4385
19228TIP3    H179099   0.123   0.655   5.450 -0.5759 -0.9254  1.3900
19228TIP3    H279100   0.259   0.660   5.516  0.0604 -0.9033  0.1078
19229TIP3   OH279101   5.182   5.381  13.074 -0.2959  0.2994  0.4782
19229TIP3    H179102   5.162   5.308  13.133  0.2470 -0.8563 -0.7497
19229TIP3    H279103   5.224   5.340  12.998 -0.7682  1.7944 -0.6106
19230TIP3   OH279104   0.221   2.565   1.888 -0.0792  0.1540 -0.3619
19230TIP3    H179105   0.281   2.502   1.849 -0.4900 -1.1982  1.1286
19230TIP3    H279106   0.198   2.624   1.816  0.3091 -1.3954 -1.7861
19231TIP3   OH279107   1.392   2.407   5.579 -0.1388 -0.0709 -0.0497
19231TIP3    H179108   1.482   2.438   5.571  1.0224 -2.8553  1.5263
19231TIP3    H279109   1.380   2.349   5.504 -0.7057  0.5179 -0.4113
19232TIP3   OH279110   2.849   4.055   3.832 -0.0699  0.1919  0.2632
19232TIP3    H179111   2.844   4.045   3.927  0.7083  1.0310  0.3994
19232TIP3    H279112   2.761   4.085   3.807  0.6133  3.0745  1.1324
19233TIP3   OH279113   2.855   3.583   1.200 -0.0887  0.2041  0.0494
19233TIP3    H179114   2.885   3.495   1.223 -2.3652 -1.6139 -3.4538
19233TIP3    H279115   2.830   3.623   1.283 -0.4966 -3.0769  1.5480
19234TIP3   OH279116   2.056   3.254  13.713 -0.2286  0.1745  0.4087
19234TIP3    H179117   2.074   3.331  13.661  0.2241 -0.0211  0.2768
19234TIP3    H279118   2.089   3.276  13.801 -1.7064  0.8069  0.8249
19235TIP3   OH279119   2.728   1.689  14.640  0.2100 -0.2119  0.5736
19235TIP3    H179120   2.776   1.671  14.721 -1.8725 -1.9359  1.4742
19235TIP3    H279121   2.796   1.714  14.577  1.8993  0.8856  2.7409
19236TIP3   OH279122   0.737   2.306  15.058 -0.2101  0.4989  0.0896
19236TIP3    H179123   0.818   2.287  15.106  0.8522  0.7290 -1.5755
19236TIP3    H279124   0.712   2.222  15.020 -2.0319 -0.0846  2.4341
19237TIP3   OH279125   0.330   3.617   2.314  0.5845  0.2984  0.1416
19237TIP3    H179126   0.283   3.699   2.333 -0.6273 -0.0792 -1.2024
19237TIP3    H279127   0.275   3.549   2.352  0.9593 -0.0117  0.1295
19238TIP3   OH279128   1.012   0.526   0.819 -0.7857  0.2914 -0.3812
19238TIP3    H179129   1.104   0.522   0.845 -1.2174 -0.1151  1.1598
19238TIP3    H279130   1.011   0.583   0.742  0.8411 -0.3003 -0.8708
19239TIP3   OH279131   3.988   3.773  15.524 -0.6651 -0.5065  0.7745
19239TIP3    H179132   3.919   3.709  15.506  0.4178 -1.0654 -1.7238
19239TIP3    H279133   4.068   3.720  15.532  0.1400  0.4486 -0.7157
19240TIP3   OH279134   2.873   3.518   4.808  0.2310  0.3698 -0.6548
19240TIP3    H179135   2.914   3.441   4.847  0.8834  1.1266  0.1679
19240TIP3    H279136   2.824   3.484   4.733  1.4385 -0.6961 -0.9712
19241TIP3   OH279137   4.053   3.513   5.761 -0.0353 -0.4630  0.4524
19241TIP3    H179138   3.983   3.543   5.703  0.8154 -0.3260 -0.5105
19241TIP3    H279139   4.011   3.447   5.817 -0.9554 -0.3140 -0.0513
19242TIP3   OH279140   5.559   3.534  17.201  0.4848  0.0848  0.0374
19242TIP3    H179141   5.599   3.589  17.134  0.9245 -0.9086 -0.5164
19242TIP3    H279142   5.502   3.474  17.153  1.0411 -0.8365  0.5069
19243TIP3   OH279143   5.004   5.845  13.429  0.1105  0.2791  0.3990
19243TIP3    H179144   5.037   5.769  13.382 -3.9919 -1.2846 -0.1722
19243TIP3    H279145   5.009   5.917  13.366 -2.3193 -1.0915 -1.4410
19244TIP3   OH279146   0.828   5.025   3.436  0.3257 -0.3435  0.8563
19244TIP3    H179147   0.843   4.948   3.382  2.7156  2.9532 -3.4981
19244TIP3    H279148   0.734   5.039   3.433  0.0672 -2.1105  0.3304
19245TIP3   OH279149   5.683   0.786  12.237 -0.1474 -0.3906 -0.2248
19245TIP3    H179150   5.752   0.843  12.272 -0.8696 -0.3525  1.1891
19245TIP3    H279151   5.728   0.704  12.216  0.4571 -0.1235  0.0249
19246TIP3   OH279152   2.970   5.611   1.330 -0.3428 -0.1829  0.4277
19246TIP3    H179153   2.935   5.615   1.241  0.3685  2.5545  0.2224
19246TIP3    H279154   2.979   5.703   1.357 -0.4252 -0.9649  3.2855
19247TIP3   OH279155   5.157   6.034  13.193  0.2282  0.7778 -0.2749
19247TIP3    H179156   5.068   6.057  13.219  0.6587  2.3690 -0.1510
19247TIP3    H279157   5.208   6.115  13.206  2.0651 -0.5837  1.3709
19248TIP3   OH279158   0.717   6.507   1.378  0.2358  0.0125 -0.0979
19248TIP3    H179159   0.753   6.440   1.320  0.7156  0.0962  0.0938
19248TIP3    H279160   0.623   6.493   1.377  0.4725 -1.8101  1.3697
19249TIP3   OH279161   6.479   6.372   1.328  0.1163  0.0511  0.5834
19249TIP3    H179162   6.520   6.376   1.414  1.4132 -2.4187  0.1321
19249TIP3    H279163   6.552   6.359   1.267 -1.1646 -3.5423 -0.3240
19250TIP3   OH279164   4.522   3.829  14.381 -0.0755  0.3064  0.5723
19250TIP3    H179165   4.431   3.853  14.361  0.7187  2.1262 -0.9989
19250TIP3    H279166   4.548   3.772  14.308 -0.2857 -1.1921  1.6258
19251TIP3   OH279167   2.275   5.166  11.033 -0.0075  0.1213 -0.1976
19251TIP3    H179168   2.364   5.141  11.009  0.3719 -0.1413  1.4554
19251TIP3    H279169   2.219   5.102  10.988  0.7527 -1.1341  0.6135
19252TIP3   OH279170   0.593   1.965   4.096 -0.0017 -0.0132 -0.4452
19252TIP3    H179171   0.591   1.957   4.191  2.8355 -1.6540 -0.4680
19252TIP3    H279172   0.501   1.963   4.070 -0.8020  0.0744  2.2226
19253TIP3   OH279173   5.162   4.909  14.950  0.0160 -0.0916 -0.4536
19253TIP3    H179174   5.217   4.942  15.021  1.4876  0.2745 -1.7223
19253TIP3    H279175   5.110   4.984  14.922  1.9531  0.6877 -2.0468
19254TIP3   OH279176   3.796   3.837   4.086  0.6664 -0.2396  0.2020
19254TIP3    H179177   3.778   3.903   4.020  0.0204  2.2934  2.8298
19254TIP3    H279178   3.736   3.765   4.066  0.4824  0.4790 -1.9185
19255TIP3   OH279179   0.462   4.501  11.930  0.8062 -0.4402  0.1641
19255TIP3    H179180   0.428   4.555  12.002  0.1537  0.1742 -0.6116
19255TIP3    H279181   0.385   4.462  11.890  1.2919 -2.2416  0.9231
19256TIP3   OH279182   4.696   6.710  16.460  0.2004  0.6331 -0.4354
19256TIP3    H179183   4.779   6.665  16.444  0.1333  1.2363 -2.5988
19256TIP3    H279184   4.714   6.767  16.535  0.8436 -1.4784  1.0716
19257TIP3   OH279185   3.889   2.921  11.362  0.2236  0.0175  0.0656
19257TIP3    H179186   3.903   3.003  11.314  1.5551  1.5793  3.0098
19257TIP3    H279187   3.972   2.874  11.354  0.6396  0.5344  1.2834
19258TIP3   OH279188   1.326   3.406  13.812  0.2639 -0.7254 -0.2222
19258TIP3    H179189   1.394   3.415  13.745 -0.3338 -2.1281 -1.0207
19258TIP3    H279190   1.359   3.338  13.870 -0.0698 -0.7997 -0.1201
19259TIP3   OH279191   5.017   0.031   0.666  0.0652 -0.1634 -0.1847
19259TIP3    H179192   4.968  -0.039   0.624 -0.1203 -0.0344 -0.1858
19259TIP3    H279193   5.099  -0.010   0.694  0.2194 -0.2285 -0.7348
19260TIP3   OH279194   0.173   6.254  16.778  0.1910 -0.2408 -0.4579
19260TIP3    H179195   0.100   6.240  16.837 -0.2448 -1.2570 -1.2209
19260TIP3    H279196   0.239   6.190  16.805  0.5902  0.3098 -0.1176
19261TIP3   OH279197   4.191   3.379  16.289  0.5297  0.2687  0.1085
19261TIP3    H179198   4.175   3.284  16.292 -0.0677  0.2698 -2.0820
19261TIP3    H279199   4.106   3.416  16.265  1.1767  1.1995 -0.7874
19262TIP3   OH279200   0.958   6.180   5.690  0.3541 -0.1493  0.1305
19262TIP3    H179201   0.866   6.200   5.710 -0.0098  2.4765 -3.6599
19262TIP3    H279202   1.005   6.261   5.710  1.6993 -1.1639  1.1156
19263TIP3   OH279203   2.217   3.822  14.890  0.2151 -0.3169 -0.0216
19263TIP3    H179204   2.146   3.818  14.954 -1.1729  0.7057 -1.4628
19263TIP3    H279205   2.173   3.834  14.806  2.1443  2.5387 -0.7050
19264TIP3   OH279206   2.580   0.578   2.245 -0.3193  0.1255  0.4340
19264TIP3    H179207   2.668   0.617   2.236 -0.7357  1.6140  2.5511
19264TIP3    H279208   2.555   0.558   2.155  0.8372  2.7808 -0.5597
19265TIP3   OH279209   2.193   0.915  15.029 -0.4427  0.3234  0.0173
19265TIP3    H179210   2.159   1.005  15.021  0.3422  0.6316  0.0515
19265TIP3    H279211   2.244   0.903  14.949  0.8704  0.5323  0.8037
19266TIP3   OH279212   3.173   2.580  16.917  0.9811 -0.0637 -0.3928
19266TIP3    H179213   3.095   2.571  16.971  2.2444 -0.0852  1.4850
19266TIP3    H279214   3.192   2.491  16.886  1.7675 -0.5018  1.3255
19267TIP3   OH279215   4.958   4.451   5.297 -0.7336 -0.0441  0.1787
19267TIP3    H179216   4.938   4.394   5.371 -1.8351 -0.3672 -0.3383
19267TIP3    H279217   5.035   4.500   5.323 -0.6988 -0.6640  1.2550
19268TIP3   OH279218   3.783   3.866   6.576 -0.9204  0.6697 -0.0278
19268TIP3    H179219   3.865   3.831   6.611 -1.5741 -0.9859 -0.1136
19268TIP3    H279220   3.727   3.789   6.564 -1.5949  1.4806 -2.3581
19269TIP3   OH279221   2.078   6.582  16.620 -0.2079  0.3902 -0.0316
19269TIP3    H179222   2.168   6.583  16.587 -1.2250  0.0501 -2.8778
19269TIP3    H279223   2.051   6.674  16.616 -0.4570  0.2957 -0.4841
19270TIP3   OH279224   5.426   3.017   5.548  0.3329  0.1709  0.2733
19270TIP3    H179225   5.488   3.090   5.551  0.9730 -0.4074  1.9990
19270TIP3    H279226   5.346   3.053   5.584 -0.3855  0.9325 -2.0019
19271TIP3   OH279227   1.505   4.402   0.782  0.0858  0.1174  0.1326
19271TIP3    H179228   1.466   4.353   0.855  2.7430 -0.2791  1.3256
19271TIP3    H279229   1.471   4.491   0.793 -0.2929 -0.1532  1.2986
19272TIP3   OH279230   3.094   2.948   4.194 -0.3419 -0.0131  0.1049
19272TIP3    H179231   3.000   2.963   4.185 -1.0019 -1.8096  3.4234
19272TIP3    H279232   3.127   3.025   4.240 -0.6924 -0.6553  1.4447
19273TIP3   OH279233   5.193   5.084   0.053 -0.3229 -0.5431  0.0425
19273TIP3    H179234   5.215   5.071   0.145  1.0176  0.6883 -0.0946
19273TIP3    H279235   5.219   5.174   0.034 -1.3798 -0.5047 -1.3238
19274TIP3   OH279236   6.320   4.019  16.189 -0.2006 -0.7967  0.1742
19274TIP3    H179237   6.314   4.004  16.095  1.3756 -1.5771  0.1829
19274TIP3    H279238   6.254   4.086  16.207  0.0225 -0.0628 -1.6216
19275TIP3   OH279239   0.366   4.387  16.463  0.0998 -0.6976  0.1049
19275TIP3    H179240   0.287   4.437  16.440 -0.2135 -1.1336  0.2156
19275TIP3    H279241   0.438   4.436  16.425 -0.2025 -0.1264  0.2751
19276TIP3   OH279242   6.323   6.100   2.538 -0.3224 -0.8634 -0.3818
19276TIP3    H179243   6.244   6.048   2.548 -0.5881 -0.2372  0.8439
19276TIP3    H279244   6.338   6.102   2.443 -2.2188 -0.3102 -0.6949
19277TIP3   OH279245   2.468   5.389   4.833  0.3507  0.2040  0.5084
19277TIP3    H179246   2.440   5.472   4.793  1.6418 -0.0305 -0.9132
19277TIP3    H279247   2.389   5.356   4.875 -0.4597  1.6190  0.1500
19278TIP3   OH279248   6.179   0.267  15.058  0.0790  0.5631 -0.3097
19278TIP3    H179249   6.137   0.182  15.074  1.1291  0.0944  0.0206
19278TIP3    H279250   6.114   0.318  15.011 -0.8615 -0.1515  0.2035
19279TIP3   OH279251   3.861   5.174  11.411  0.0614 -0.0622 -0.4825
19279TIP3    H179252   3.949   5.153  11.380  0.3932  1.0637 -0.3225
19279TIP3    H279253   3.821   5.088  11.429  0.4758 -0.6660 -2.3011
19280TIP3   OH279254   5.340   5.164   1.364 -0.1513 -0.0041  0.0494
19280TIP3    H179255   5.346   5.227   1.435  1.2199  0.7586 -0.7147
19280TIP3    H279256   5.342   5.078   1.407  0.5101  0.4537  0.9344
19281TIP3   OH279257   1.015   3.346   4.133 -0.3563  0.5287 -0.1490
19281TIP3    H179258   1.079   3.381   4.194  1.5531  0.4098 -2.0217
19281TIP3    H279259   0.984   3.422   4.084 -0.5565  0.3759 -0.2602
19282TIP3   OH279260   5.637   4.762   0.902  0.3131  0.1196  0.1987
19282TIP3    H179261   5.615   4.688   0.845 -0.5214  1.2091 -0.8999
19282TIP3    H279262   5.555   4.785   0.944  1.0790 -1.2677  2.6302
19283TIP3   OH279263   1.134   3.540  11.835  0.5013 -0.3818 -0.0942
19283TIP3    H179264   1.208   3.569  11.783  1.0094  0.4639  1.0683
19283TIP3    H279265   1.057   3.573  11.789  0.9611  0.6846 -0.0929
19284TIP3   OH279266   6.009   6.617   5.082  0.1342 -0.4265 -0.3540
19284TIP3    H179267   5.999   6.565   5.003 -1.6899  0.5957 -0.8127
19284TIP3    H279268   5.954   6.694   5.068  0.5651  0.2564  1.4917
19285TIP3   OH279269   3.847   3.291   1.851 -0.2468  0.2264 -0.6447
19285TIP3    H179270   3.787   3.274   1.923  0.5354  0.2398  0.0109
19285TIP3    H279271   3.870   3.203   1.818  1.9336  0.0382  1.2215
19286TIP3   OH279272   6.641   4.606   2.090 -0.0195 -0.2490 -0.1801
19286TIP3    H179273   6.714   4.567   2.042  0.7182  2.7963 -1.6628
19286TIP3    H279274   6.683   4.650   2.165 -0.5851 -0.3911  0.2250
19287TIP3   OH279275   2.817   1.278  15.591 -0.2851 -0.0744  0.1578
19287TIP3    H179276   2.781   1.197  15.555 -1.2162 -0.0523  1.0181
19287TIP3    H279277   2.831   1.334  15.515 -0.5922 -0.6596 -0.3413
19288TIP3   OH279278   0.165   4.710   3.913 -0.5815 -0.3375  0.5770
19288TIP3    H179279   0.100   4.780   3.916 -2.1549 -1.6981 -1.2255
19288TIP3    H279280   0.229   4.735   3.980 -0.0783  3.8314 -1.2485
19289TIP3   OH279281   5.182   3.634  11.526  0.5104 -0.0778 -0.5949
19289TIP3    H179282   5.096   3.603  11.500 -0.1237  1.0274  0.1254
19289TIP3    H279283   5.196   3.598  11.613  0.6405 -0.0124 -0.5871
19290TIP3   OH279284   2.795   0.888   4.747  0.2975  0.0984 -0.2332
19290TIP3    H179285   2.844   0.807   4.761  1.1251  0.7197  0.5509
19290TIP3    H279286   2.741   0.871   4.670  1.2033 -0.8526 -0.6586
19291TIP3   OH279287   6.632   1.082   2.127  0.0419  0.1956 -0.7974
19291TIP3    H179288   6.570   1.010   2.123 -0.4705  0.6436 -1.0236
19291TIP3    H279289   6.582   1.155   2.163  0.6887  0.3032 -0.1124
19292TIP3   OH279290   2.013   1.874   3.285  0.4044 -0.0804  0.0453
19292TIP3    H179291   2.039   1.807   3.348 -1.8656  0.5429  1.7132
19292TIP3    H279292   2.059   1.851   3.205  1.4677 -2.2858  1.2474
19293TIP3   OH279293   5.388   6.478   6.348 -0.4065  0.3055 -0.0664
19293TIP3    H179294   5.457   6.418   6.319  0.9064  1.6772  0.1596
19293TIP3    H279295   5.310   6.423   6.353  0.7484 -1.3838  0.1184
19294TIP3   OH279296   0.483   5.139  16.959 -0.4381 -1.0038 -0.5211
19294TIP3    H179297   0.445   5.181  16.882  1.2397  1.7765  0.0641
19294TIP3    H279298   0.426   5.165  17.031  1.3253  1.5129  0.0496
19295TIP3   OH279299   2.347   0.366  10.565  0.0839 -0.7599  0.4671
19295TIP3    H179300   2.366   0.459  10.558 -1.7971 -0.2900  1.3389
19295TIP3    H279301   2.432   0.323  10.555  1.0729  1.0834  0.8298
19296TIP3   OH279302   5.739   3.578  11.528  0.1497  0.5793 -0.4133
19296TIP3    H179303   5.711   3.496  11.569 -1.1288  1.9283  1.5070
19296TIP3    H279304   5.821   3.600  11.571 -1.1049  1.9056  1.3875
19297TIP3   OH279305   2.740   2.260  15.658  0.4016 -0.4733  0.7102
19297TIP3    H179306   2.670   2.217  15.707  0.4742  0.3362  1.5383
19297TIP3    H279307   2.730   2.353  15.678  0.5195 -0.1468 -0.7132
19298TIP3   OH279308   3.426   0.871  13.575 -0.0184 -0.3374 -0.5751
19298TIP3    H179309   3.406   0.960  13.545 -0.0040 -0.9273 -2.3585
19298TIP3    H279310   3.495   0.841  13.516  0.1057 -1.4679  0.1397
19299TIP3   OH279311   6.311   5.543  16.817  0.0796  0.5031 -0.3414
19299TIP3    H179312   6.264   5.464  16.788  0.9705 -0.6795  1.3938
19299TIP3    H279313   6.304   5.603  16.742 -1.1989 -0.9468 -1.4272
19300TIP3   OH279314   1.384   4.958  16.028 -0.5751  0.5085 -0.5480
19300TIP3    H179315   1.315   4.892  16.018 -0.5498  0.1304  1.5382
19300TIP3    H279316   1.352   5.034  15.980 -1.7153 -0.2179 -0.9498
19301TIP3   OH279317   4.245   5.316   0.971 -0.4262 -0.7654  0.5869
19301TIP3    H179318   4.225   5.408   0.984  1.4924 -0.0633 -1.1355
19301TIP3    H279319   4.167   5.269   1.001 -0.4997  1.2637  3.7223
19302TIP3   OH279320   0.676   4.890   4.485 -0.1906  0.4279 -0.2424
19302TIP3    H179321   0.652   4.962   4.544  0.0769  0.4917 -0.2079
19302TIP3    H279322   0.681   4.931   4.399  0.7452  0.6240 -0.1034
19303TIP3   OH279323   5.680   2.635   6.018  0.0082 -0.0202  0.2507
19303TIP3    H179324   5.635   2.581   6.083  0.5785 -0.6637  0.1196
19303TIP3    H279325   5.772   2.634   6.045  0.1144  0.4164 -0.0766
19304TIP3   OH279326   2.492   3.718  17.116 -0.9208 -0.0717  0.7094
19304TIP3    H179327   2.539   3.684  17.192 -0.2830 -0.0517  0.3248
19304TIP3    H279328   2.459   3.639  17.072 -3.3639 -0.0179  2.3038
19305TIP3   OH279329   1.418   6.384  14.205  0.4916  0.7582 -0.2462
19305TIP3    H179330   1.355   6.402  14.136  1.3509  0.2751 -1.1697
19305TIP3    H279331   1.469   6.465  14.214  1.2239  0.3860 -1.0715
19306TIP3   OH279332   2.773   4.240   3.094  0.1853 -0.2375  0.1199
19306TIP3    H179333   2.766   4.286   3.010 -3.6751 -1.0680 -0.0870
19306TIP3    H279334   2.799   4.308   3.156 -0.0220  1.0659 -1.1901
19307TIP3   OH279335   3.316   5.999   4.118  0.3235 -0.1420 -0.0781
19307TIP3    H179336   3.308   5.905   4.103 -0.4729 -0.1163  0.1863
19307TIP3    H279337   3.410   6.016   4.110  0.4080 -0.8586 -0.7064
19308TIP3   OH279338   5.663   3.283  12.647  0.6166 -0.1030  0.3027
19308TIP3    H179339   5.583   3.301  12.696  1.3090  0.6562  1.1664
19308TIP3    H279340   5.655   3.337  12.568 -0.4479 -1.2409 -0.3702
19309TIP3   OH279341   2.603   0.750  13.159 -0.9466 -0.4915  0.3205
19309TIP3    H179342   2.529   0.809  13.171 -1.3134 -0.6096 -1.2786
19309TIP3    H279343   2.680   0.802  13.181 -1.2583  0.6254 -1.1657
19310TIP3   OH279344   1.652   3.773   3.818  0.5683  0.5118 -0.1980
19310TIP3    H179345   1.657   3.837   3.889  0.9122 -0.1077  0.3506
19310TIP3    H279346   1.603   3.699   3.856  2.4318 -0.6370  0.0481
19311TIP3   OH279347   5.365   0.341   0.115 -0.1397  0.4514  0.0186
19311TIP3    H179348   5.286   0.388   0.142 -1.0235  0.0513 -1.7898
19311TIP3    H279349   5.337   0.250   0.108  1.1193 -0.0994  1.7478
19312TIP3   OH279350   0.222   5.938   5.438 -0.1526 -0.3601  0.1282
19312TIP3    H179351   0.204   6.025   5.474 -3.2628 -1.0626  0.3841
19312TIP3    H279352   0.193   5.944   5.347  0.6183 -0.8327 -0.1480
19313TIP3   OH279353   5.421   4.362   4.055  0.3604  0.0007 -0.7128
19313TIP3    H179354   5.342   4.336   4.006 -0.3893  0.5275  0.2025
19313TIP3    H279355   5.397   4.445   4.097  1.0182 -0.4096  0.4969
19314TIP3   OH279356   3.491   4.568   4.300  0.0487 -0.9452  0.1104
19314TIP3    H179357   3.396   4.579   4.291  0.1840  0.9734  0.6972
19314TIP3    H279358   3.512   4.492   4.246 -1.6534 -0.6536 -1.0036
19315TIP3   OH279359   5.149   2.467   2.364  0.5164 -0.0082  0.0610
19315TIP3    H179360   5.075   2.425   2.321 -0.0168 -0.9469  1.8325
19315TIP3    H279361   5.110   2.521   2.433  1.4249  0.1475  0.4753
19316TIP3   OH279362   1.984   0.946  14.720  0.1808 -0.0518  1.1895
19316TIP3    H179363   2.072   0.911  14.702 -0.0894 -0.4967  0.7088
19316TIP3    H279364   1.950   0.890  14.789 -0.6766 -1.4719 -0.3336
19317TIP3   OH279365   1.539   5.853   3.913  0.0626 -0.5926 -0.3513
19317TIP3    H179366   1.572   5.767   3.887 -0.2324 -0.3134 -1.6625
19317TIP3    H279367   1.610   5.913   3.892 -0.0119 -0.4229 -0.1091
19318TIP3   OH279368   0.079   0.408   5.333  0.4229 -0.1493 -0.0761
19318TIP3    H179369   0.022   0.459   5.275  1.4037 -0.8372 -1.6783
19318TIP3    H279370   0.126   0.474   5.384 -0.1371  0.4753 -0.3552
19319TIP3   OH279371   2.461   5.166  12.234  0.0688  0.2833 -0.0922
19319TIP3    H179372   2.542   5.116  12.238 -0.2925 -0.4816 -1.6869
19319TIP3    H279373   2.418   5.136  12.154 -0.6824  2.3630 -0.5240
19320TIP3   OH279374   5.544   0.389  15.970  0.0398 -0.1271 -0.3148
19320TIP3    H179375   5.488   0.336  15.914  3.0591 -1.4611 -2.2513
19320TIP3    H279376   5.578   0.326  16.035 -1.7648  0.9583  1.7340
19321TIP3   OH279377   0.013   6.334  13.775 -0.0326  0.1937  0.4943
19321TIP3    H179378   0.028   6.376  13.690 -1.2132  0.4880  0.4198
19321TIP3    H279379   0.057   6.391  13.838 -1.3055  1.3664  0.3491
19322TIP3   OH279380   5.132   1.687  11.743  0.1405 -0.1658 -0.3327
19322TIP3    H179381   5.052   1.720  11.785  0.6563 -0.9747  1.3183
19322TIP3    H279382   5.199   1.751  11.766  0.5713 -0.9645  0.6418
19323TIP3   OH279383   2.469   6.269   1.064 -0.1129  0.2330 -0.1765
19323TIP3    H179384   2.440   6.275   1.155  1.3492  0.9039  0.2656
19323TIP3    H279385   2.479   6.175   1.048  0.1559  0.1361  0.5431
19324TIP3   OH279386   3.904   6.728   4.215 -0.0086 -0.3908 -0.3836
19324TIP3    H179387   3.986   6.731   4.265  0.5608 -1.7042 -1.2224
19324TIP3    H279388   3.873   6.819   4.216  1.0062 -0.0338  0.6707
19325TIP3   OH279389   3.445   1.334   1.579 -0.0369 -0.6234 -0.4362
19325TIP3    H179390   3.488   1.417   1.561 -0.1741 -0.3883  0.3198
19325TIP3    H279391   3.357   1.344   1.542 -0.3522 -0.1059  0.4556
19326TIP3   OH279392   5.488   0.478   6.073 -0.0703  0.0066 -0.1308
19326TIP3    H179393   5.461   0.489   6.165  0.0730 -0.7528  0.0038
19326TIP3    H279394   5.564   0.421   6.077 -0.8868 -1.1558 -0.8163
19327TIP3   OH279395   5.230   0.027  13.763  0.0670  0.2538  0.1861
19327TIP3    H179396   5.282  -0.050  13.789 -2.8117 -1.1898  1.9511
19327TIP3    H279397   5.142  -0.007  13.752 -0.9684  3.0722 -0.5301
19328TIP3   OH279398   1.709   0.356  15.389  0.1613 -0.4370 -0.2877
19328TIP3    H179399   1.757   0.334  15.310  0.7827 -3.7935  0.9281
19328TIP3    H279400   1.756   0.311  15.459 -2.7383 -0.9713  1.4109
19329TIP3   OH279401   3.066   4.645  16.599 -0.0719  0.1656 -0.5943
19329TIP3    H179402   3.130   4.688  16.541 -1.2569  0.7984 -1.4598
19329TIP3    H279403   3.070   4.696  16.680  2.5654 -1.5476  0.3874
19330TIP3   OH279404   6.671   5.680   0.082 -0.0108  0.5159 -0.0014
19330TIP3    H179405   6.685   5.640  -0.004 -1.4716 -1.8875  0.8004
19330TIP3    H279406   6.579   5.705   0.083  0.0327  0.6777  0.7988
19331TIP3   OH279407   5.268   3.998   5.080  0.0674 -0.1155  0.7896
19331TIP3    H179408   5.189   4.049   5.095  0.4738  0.0661  2.3335
19331TIP3    H279409   5.255   3.958   4.994 -0.4587  2.1804 -0.2212
19332TIP3   OH279410   2.555   0.836  14.425 -0.4970  0.2649 -0.2431
19332TIP3    H179411   2.616   0.865  14.493  0.1613  0.6824 -1.0118
19332TIP3    H279412   2.611   0.799  14.357 -1.0069  1.7625 -1.4973
19333TIP3   OH279413   0.288   0.768   0.230  0.0489  0.1079  0.0929
19333TIP3    H179414   0.377   0.737   0.216 -0.0310  0.3302 -0.9924
19333TIP3    H279415   0.263   0.734   0.316  1.2079  0.1200  0.4338
19334TIP3   OH279416   4.355   5.815   5.013  0.0011  0.0001  0.2908
19334TIP3    H179417   4.325   5.905   5.023 -2.6283 -0.7594 -0.4568
19334TIP3    H279418   4.346   5.797   4.920  2.8501 -0.3031  0.0071
19335TIP3   OH279419   5.741   3.790  11.784 -0.3284 -0.0981  0.2125
19335TIP3    H179420   5.746   3.819  11.875  1.0922 -1.5186  0.6126
19335TIP3    H279421   5.832   3.788  11.754 -0.7383 -0.1201 -1.0957
19336TIP3   OH279422   3.669   1.676   5.733 -0.3948 -0.1408 -0.2637
19336TIP3    H179423   3.626   1.750   5.777 -0.2071 -0.6449  0.7776
19336TIP3    H279424   3.620   1.600   5.761  1.1989 -0.7370  0.9905
19337TIP3   OH279425   1.660   3.447   0.697 -0.1236  0.8981 -0.1786
19337TIP3    H179426   1.638   3.520   0.640 -0.2965 -0.0890 -1.3867
19337TIP3    H279427   1.749   3.422   0.670 -0.4391  0.0435 -0.4192
19338TIP3   OH279428   5.419   5.905   6.283 -0.1912  0.0525  0.0086
19338TIP3    H179429   5.459   5.909   6.370 -0.5577 -0.4150  0.1979
19338TIP3    H279430   5.488   5.936   6.224  0.6258 -1.2208  0.2751
19339TIP3   OH279431   5.232   2.902   4.988 -0.1479 -0.8486  0.4794
19339TIP3    H179432   5.222   2.817   4.946 -1.5865 -0.3773 -0.1579
19339TIP3    H279433   5.203   2.965   4.922  0.1847  0.0893  1.2116
19340TIP3   OH279434   1.332   6.596   5.315  0.6055  0.6745  0.2431
19340TIP3    H179435   1.288   6.630   5.236 -2.7511 -0.8903  1.3371
19340TIP3    H279436   1.320   6.666   5.380 -0.7223  0.0681  0.6689
19341TIP3   OH279437   5.544   5.309  11.422  0.6906 -0.1531 -0.0113
19341TIP3    H179438   5.624   5.317  11.369  0.1508 -3.0682 -1.3502
19341TIP3    H279439   5.483   5.260  11.367 -0.7337 -1.2106  2.4073
19342TIP3   OH279440   2.670   5.071  12.694  0.1632 -0.2304  0.4858
19342TIP3    H179441   2.732   5.135  12.658 -0.1377  0.0068  0.3869
19342TIP3    H279442   2.590   5.085  12.643 -0.4732  0.5581  1.6888
19343TIP3   OH279443   2.918   3.445  16.291  0.1816 -0.4566 -0.0438
19343TIP3    H179444   2.883   3.402  16.212 -1.2384  0.7838 -0.1196
19343TIP3    H279445   2.911   3.378  16.359  0.1826 -1.1150 -0.6794
19344TIP3   OH279446   0.686   3.322   3.571 -0.0122 -0.0228 -0.7550
19344TIP3    H179447   0.604   3.279   3.550 -0.1008 -0.3297  0.2248
19344TIP3    H279448   0.754   3.258   3.549 -0.1955 -1.1708  1.9105
19345TIP3   OH279449   6.413   3.478  16.467 -0.3267  0.4658 -0.3157
19345TIP3    H179450   6.477   3.421  16.424  0.1361  0.9323 -0.2493
19345TIP3    H279451   6.386   3.540  16.399  2.7169  3.1937  0.8123
19346TIP3   OH279452   2.322   0.671   2.017  0.4225 -0.1502  0.2255
19346TIP3    H179453   2.366   0.590   1.993 -0.7749 -1.4290  2.2372
19346TIP3    H279454   2.322   0.723   1.937  3.8463 -0.9018 -0.3305
19347TIP3   OH279455   3.354   4.193   4.165  0.1432 -0.0850  0.2035
19347TIP3    H179456   3.433   4.160   4.122 -0.0248 -0.4447  0.1690
19347TIP3    H279457   3.325   4.120   4.219 -0.6710 -0.2657 -0.4718
19348TIP3   OH279458   4.131   5.882   2.522  0.1052 -0.3428  0.2544
19348TIP3    H179459   4.201   5.818   2.535  0.4807  0.1124  0.5301
19348TIP3    H279460   4.119   5.887   2.428 -0.8920 -1.8365  0.2888
19349TIP3   OH279461   3.151   6.284   3.216  0.0039 -0.1200  0.0736
19349TIP3    H179462   3.094   6.353   3.180  0.7528 -0.0308 -0.9768
19349TIP3    H279463   3.173   6.314   3.304  0.4358  1.0626 -0.4234
19350TIP3   OH279464   2.368   5.000   0.210 -0.3935  0.2628 -0.2222
19350TIP3    H179465   2.360   5.063   0.138 -1.8865  0.9047  0.4707
19350TIP3    H279466   2.331   4.919   0.176  1.1738 -0.1590 -0.9862
19351TIP3   OH279467   3.152   1.160  11.882 -0.0515 -0.3221  0.1504
19351TIP3    H179468   3.156   1.252  11.907  1.9725 -0.0688 -1.0384
19351TIP3    H279469   3.165   1.112  11.964  1.5801  0.4733  0.3644
19352TIP3   OH279470   3.197   3.219  12.141 -0.1035  0.2215  0.7171
19352TIP3    H179471   3.169   3.137  12.100 -1.3489  0.5974  0.7768
19352TIP3    H279472   3.276   3.196  12.189  0.1223 -0.7203 -0.0868
19353TIP3   OH279473   2.747   3.208   0.657 -0.4059 -0.4372 -0.4624
19353TIP3    H179474   2.716   3.208   0.567 -0.1801 -0.3208 -0.5411
19353TIP3    H279475   2.799   3.127   0.663  0.3155  0.0014 -0.6950
19354TIP3   OH279476   1.719   3.593   4.701 -0.5047 -0.3141  0.2449
19354TIP3    H179477   1.648   3.654   4.720 -0.7117 -0.4508 -0.0995
19354TIP3    H279478   1.795   3.649   4.685 -0.9858 -0.0916 -1.3489
19355TIP3   OH279479   3.525   5.618   2.255  0.3863  0.7719 -0.1460
19355TIP3    H179480   3.498   5.615   2.347 -0.8993  1.4396 -0.4902
19355TIP3    H279481   3.525   5.711   2.233 -0.5056  0.5376 -1.1663
19356TIP3   OH279482   4.976   0.405  14.228  0.1243  0.0791  0.0078
19356TIP3    H179483   4.915   0.468  14.189 -2.0229 -1.3617  0.9377
19356TIP3    H279484   4.964   0.325  14.177  1.4241 -0.1614  0.0593
19357TIP3   OH279485   1.956   1.187   2.387 -0.0022  0.0677 -0.1725
19357TIP3    H179486   1.980   1.208   2.297 -0.5714  0.4293 -0.2415
19357TIP3    H279487   1.886   1.249   2.409  0.4782  0.3215  0.6890
19358TIP3   OH279488   6.560   0.600   4.287 -0.1217 -0.0220  0.1788
19358TIP3    H179489   6.589   0.647   4.365 -1.5655  0.9279  0.1748
19358TIP3    H279490   6.466   0.618   4.283  0.1667  1.0552 -2.5154
19359TIP3   OH279491   5.115   3.546   3.743 -0.0605  0.0410 -0.3595
19359TIP3    H179492   5.127   3.457   3.778  0.0088 -0.3255 -1.3075
19359TIP3    H279493   5.048   3.585   3.800 -0.2250 -0.6806 -0.0494
19360TIP3   OH279494   4.014   2.995  16.516  0.0295 -0.2427  0.0046
19360TIP3    H179495   3.985   2.970  16.603 -0.0477  0.0820  0.0721
19360TIP3    H279496   3.991   3.088  16.508  1.0674  0.0258  0.0659
19361TIP3   OH279497   0.736   6.368  15.469  0.2376 -0.0560 -0.2035
19361TIP3    H179498   0.802   6.437  15.478  1.2932 -1.0085 -0.5540
19361TIP3    H279499   0.714   6.344  15.559  1.6240 -0.9142 -0.0825
19362TIP3   OH279500   1.612   2.870   2.865  1.0416  0.4548 -0.1086
19362TIP3    H179501   1.669   2.802   2.900  0.1208 -0.3271 -0.0967
19362TIP3    H279502   1.670   2.928   2.817  1.7172 -0.9202 -1.0076
19363TIP3   OH279503   6.546   5.387  15.228  0.1197 -0.2197  0.0970
19363TIP3    H179504   6.553   5.325  15.155  0.2008  0.4348 -0.4625
19363TIP3    H279505   6.559   5.334  15.306 -1.6958 -1.2266 -0.2739
19364TIP3   OH279506   1.320   2.698  14.584  0.6309  0.0616  0.0882
19364TIP3    H179507   1.412   2.673  14.594  1.2201  0.3537 -3.6858
19364TIP3    H279508   1.284   2.633  14.523 -1.1812  1.0411  0.0688
19365TIP3   OH279509   5.617   6.562  10.448  1.0613  0.1467  0.3187
19365TIP3    H179510   5.577   6.476  10.446 -0.4873  0.8590 -0.9923
19365TIP3    H279511   5.707   6.548  10.417  0.5582 -0.8643 -0.7010
19366TIP3   OH279512   3.833   2.182   6.136 -0.5710 -0.0198 -0.4995
19366TIP3    H179513   3.814   2.266   6.094 -1.6429 -0.4223 -0.8525
19366TIP3    H279514   3.751   2.159   6.180 -0.7799 -1.6486 -1.7380
19367TIP3   OH279515   3.403   1.785   4.599  0.1774  0.1727 -0.4050
19367TIP3    H179516   3.470   1.728   4.560  0.9344  1.1947 -0.6221
19367TIP3    H279517   3.339   1.798   4.529 -0.1740 -0.6894 -0.2448
19368TIP3   OH279518   4.785   5.247  14.622  0.3178  0.0482 -0.0210
19368TIP3    H179519   4.843   5.235  14.547  0.5267 -1.1340  0.3197
19368TIP3    H279520   4.700   5.215  14.592 -0.2073  1.8715 -0.5521
19369TIP3   OH279521   3.616   1.147   4.815  0.1754 -0.0471  0.0108
19369TIP3    H179522   3.707   1.135   4.789 -0.0100 -0.1566 -0.5991
19369TIP3    H279523   3.613   1.115   4.905  0.8573  0.4845  0.2305
19370TIP3   OH279524   4.814   3.299  16.391  0.0778 -0.3898  1.1413
19370TIP3    H179525   4.841   3.357  16.320 -0.6653 -1.9014 -0.3964
19370TIP3    H279526   4.878   3.315  16.460  1.3505  0.4505 -0.2063
19371TIP3   OH279527   5.893   5.213  15.435 -0.5709 -0.0482  0.2025
19371TIP3    H179528   5.912   5.303  15.412 -1.0778  0.0863  0.3033
19371TIP3    H279529   5.801   5.200  15.411 -0.0975 -0.9738 -1.1734
19372TIP3   OH279530   5.101   2.247  11.404  0.1899  0.5109 -0.0149
19372TIP3    H179531   5.090   2.161  11.444  1.2762  0.9736  1.2905
19372TIP3    H279532   5.050   2.242  11.323  0.2619 -1.3594  0.0401
19373TIP3   OH279533   3.072   6.253  13.045  0.0304 -0.7657 -0.0804
19373TIP3    H179534   3.017   6.188  13.089  0.5096 -1.6410 -0.7625
19373TIP3    H279535   3.138   6.201  12.999  0.6085  0.2214 -0.3694
19374TIP3   OH279536   5.206   5.801  16.592 -0.1430 -0.1205 -0.3461
19374TIP3    H179537   5.291   5.778  16.630  0.2416  1.1910 -0.4005
19374TIP3    H279538   5.225   5.872  16.531 -1.2958  0.2829 -0.2538
19375TIP3   OH279539   4.091   3.689  13.367  0.1359 -0.7271  0.0101
19375TIP3    H179540   4.007   3.729  13.344  0.1635 -0.7626 -0.1469
19375TIP3    H279541   4.124   3.652  13.285 -0.4960 -2.2121  0.4071
19376TIP3   OH279542   2.451   6.262   0.392  0.8479  0.4959 -0.8042
19376TIP3    H179543   2.419   6.192   0.450 -0.2145  0.1521 -1.7796
19376TIP3    H279544   2.380   6.327   0.392  0.1285 -0.2375 -2.9302
19377TIP3   OH279545   4.442   4.488   3.947 -0.8112  0.3804 -0.5175
19377TIP3    H179546   4.466   4.564   3.894 -0.9259  0.9982  0.3038
19377TIP3    H279547   4.382   4.523   4.013  0.7103 -0.0236  1.1218
19378TIP3   OH279548   4.047   2.412   5.810  0.1389  0.8302 -0.4519
19378TIP3    H179549   4.070   2.351   5.739  1.8036  0.5109  0.3332
19378TIP3    H279550   4.046   2.498   5.768  0.7827  0.6059 -0.9421
19379TIP3   OH279551   5.607   1.167   1.941  0.2974  0.0186 -0.0128
19379TIP3    H179552   5.673   1.218   1.989  0.2613  1.5986 -1.5572
19379TIP3    H279553   5.655   1.127   1.869 -0.3716  1.1198 -1.1068
19380TIP3   OH279554   0.533   5.977  14.351 -0.2762 -0.2593  0.4652
19380TIP3    H179555   0.489   5.913  14.407  0.2342 -0.4165  0.6922
19380TIP3    H279556   0.622   5.982  14.386  0.0087 -0.2589 -0.2453
19381TIP3   OH279557   4.680   3.468   0.693  0.2738 -0.2155  0.2210
19381TIP3    H179558   4.764   3.498   0.658  1.1952 -2.9300 -0.0437
19381TIP3    H279559   4.621   3.466   0.617  0.7510 -0.8990 -0.1391
19382TIP3   OH279560   4.584   3.622  13.031  0.2289 -0.0456 -0.4188
19382TIP3    H179561   4.557   3.555  13.093 -1.4099  1.1226  0.1762
19382TIP3    H279562   4.521   3.616  12.960 -0.9025  1.8566  0.3670
19383TIP3   OH279563   3.619   3.038  12.721  0.1223 -1.3117 -0.2272
19383TIP3    H179564   3.544   3.038  12.782  0.1815 -1.9780 -0.1541
19383TIP3    H279565   3.695   3.022  12.777  0.4175  0.1138 -0.1947
19384TIP3   OH279566   3.181   3.003   0.146 -0.2606  0.4956 -0.3783
19384TIP3    H179567   3.168   3.069   0.078  0.1435  1.3459  0.3572
19384TIP3    H279568   3.129   3.035   0.220  1.6031  1.0740  0.6977
19385TIP3   OH279569   2.442   0.220   4.873 -0.1812  0.2936  0.1613
19385TIP3    H179570   2.398   0.143   4.910  0.1774  0.1040  0.1912
19385TIP3    H279571   2.426   0.289   4.937 -1.6234  0.5878 -0.4879
19386TIP3   OH279572   1.343   4.043   1.281 -0.1150  0.4467  0.2119
19386TIP3    H179573   1.284   3.967   1.278 -1.8585  1.7797  0.3822
19386TIP3    H279574   1.354   4.060   1.375 -0.1348  0.7414  0.1594
19387TIP3   OH279575   0.299   2.509   0.489  0.4043  0.3188  0.2271
19387TIP3    H179576   0.304   2.584   0.430  2.1257  1.0177  1.2225
19387TIP3    H279577   0.390   2.483   0.502 -0.1866 -2.2303 -0.4361
19388TIP3   OH279578   0.344   0.005  11.632 -0.3014  0.4469  0.1495
19388TIP3    H179579   0.425  -0.017  11.679 -0.8725 -2.1812 -0.0334
19388TIP3    H279580   0.368   0.080  11.577  3.0334 -2.4517 -2.5395
19389TIP3   OH279581   6.530   2.227   0.100  0.6602  0.2528 -0.5603
19389TIP3    H179582   6.479   2.151   0.129  0.5671  0.5817  0.1648
19389TIP3    H279583   6.530   2.222   0.005  1.4288 -1.1682 -0.4957
19390TIP3   OH279584   3.040   0.330   3.174  0.4847 -0.1344  0.0443
19390TIP3    H179585   3.061   0.373   3.256  0.1106 -3.2291  1.8220
19390TIP3    H279586   2.944   0.326   3.171  0.5144 -1.2153  0.1320
19391TIP3   OH279587   5.069   4.649  13.815  0.1947 -0.3641  0.5107
19391TIP3    H179588   5.014   4.597  13.758  0.0807 -0.4777  0.7216
19391TIP3    H279589   5.051   4.615  13.903  0.3608 -0.1870  0.6134
19392TIP3   OH279590   6.513   0.938  15.095 -0.1810 -0.5828 -0.1300
19392TIP3    H179591   6.595   0.938  15.144 -1.7169 -0.5241  2.5825
19392TIP3    H279592   6.520   0.866  15.034  1.7425 -0.8043  0.3376
19393TIP3   OH279593   1.660   6.599  15.983 -0.0832  0.4725  0.0629
19393TIP3    H179594   1.665   6.562  15.895 -0.8655 -1.1970  0.7073
19393TIP3    H279595   1.684   6.527  16.041 -0.9756  1.1614  1.3157
19394TIP3   OH279596   4.375   3.868   5.235  0.1892  0.4753  0.5937
19394TIP3    H179597   4.407   3.827   5.315  1.8668  1.7302  0.6112
19394TIP3    H279598   4.355   3.958   5.261 -2.1607  0.0649  0.2706
19395TIP3   OH279599   4.773   5.980   2.874 -0.0025 -0.5816 -0.0376
19395TIP3    H179600   4.865   5.956   2.863 -0.1309 -0.6893 -0.9215
19395TIP3    H279601   4.749   5.948   2.961  0.4825 -1.5411 -0.2575
19396TIP3   OH279602   4.541   3.931  13.730 -0.1361 -0.2448  0.1869
19396TIP3    H179603   4.498   3.993  13.671 -0.9522 -2.6665 -1.7928
19396TIP3    H279604   4.622   3.907  13.685  1.5580  1.4123  2.2039
19397TIP3   OH279605   5.675   0.597   4.762  0.3010  0.1985 -0.0929
19397TIP3    H179606   5.587   0.562   4.777  0.3675  0.8498  1.9526
19397TIP3    H279607   5.721   0.584   4.846  2.4552 -0.9490 -1.3834
19398TIP3   OH279608   6.320   0.633  12.561 -0.0375  0.5233  0.2574
19398TIP3    H179609   6.305   0.550  12.514 -0.2807  0.3399  0.6520
19398TIP3    H279610   6.410   0.656  12.541 -0.5995  1.2453 -1.5349
19399TIP3   OH279611   4.234   3.996  16.975  0.4045 -0.1048 -0.5793
19399TIP3    H179612   4.283   4.029  17.051  0.0210 -0.0545 -0.3517
19399TIP3    H279613   4.285   4.025  16.900  1.3821 -1.1183 -0.3144
19400TIP3   OH279614   4.361   5.935   0.671  0.3504  0.0940 -0.1510
19400TIP3    H179615   4.272   5.901   0.679 -0.0119  0.7329 -1.3878
19400TIP3    H279616   4.410   5.866   0.626  0.1497  0.3127 -0.7012
19401TIP3   OH279617   3.305   4.549  11.443 -0.4596  0.1185 -0.2259
19401TIP3    H179618   3.324   4.456  11.435 -2.2635 -0.2619 -0.3100
19401TIP3    H279619   3.237   4.565  11.376  0.3470  1.6320 -0.7020
19402TIP3   OH279620   5.613   2.725  14.683  0.5149  0.0112  0.0770
19402TIP3    H179621   5.585   2.637  14.708 -1.2439  0.4336 -0.3691
19402TIP3    H279622   5.655   2.714  14.598  0.1473 -0.3757 -0.0568
19403TIP3   OH279623   3.103   5.225   1.624  0.0598 -0.2915  0.2412
19403TIP3    H179624   3.181   5.247   1.573 -0.3484 -0.3951 -0.4447
19403TIP3    H279625   3.123   5.253   1.713  0.3518  0.9381 -0.2068
19404TIP3   OH279626   3.248   6.670   2.974 -0.7059 -0.4826 -0.1258
19404TIP3    H179627   3.292   6.629   2.900 -1.1593  1.7788 -1.7038
19404TIP3    H279628   3.161   6.693   2.941 -0.7529  0.9764  0.9258
19405TIP3   OH279629   3.092   3.422  14.390 -0.7708  0.0039  0.3429
19405TIP3    H179630   3.136   3.410  14.474 -0.5453  1.2711  0.4074
19405TIP3    H279631   3.058   3.335  14.369 -0.0427 -0.5236  1.2986
19406TIP3   OH279632   4.790   3.634  13.567 -0.3623 -0.8014  0.2414
19406TIP3    H179633   4.716   3.623  13.507  0.7963  0.6244 -1.5170
19406TIP3    H279634   4.842   3.555  13.555  0.0801 -0.3365 -0.9713
19407TIP3   OH279635   1.449   4.945   1.534 -0.2180  0.3478  0.5199
19407TIP3    H179636   1.535   4.944   1.492 -0.4683 -0.5063  0.0117
19407TIP3    H279637   1.387   4.936   1.461 -0.8008  2.2619  0.7462
19408TIP3   OH279638   2.180   1.645  12.600  0.5300  0.1273 -0.2104
19408TIP3    H179639   2.181   1.716  12.665 -3.8222  1.0825 -1.0376
19408TIP3    H279640   2.205   1.687  12.518  0.3398  0.1719 -0.2459
19409TIP3   OH279641   0.630   2.568  13.606  0.6115 -0.2088  0.3368
19409TIP3    H179642   0.673   2.578  13.691 -0.1403 -1.3719  0.8637
19409TIP3    H279643   0.660   2.483  13.575 -0.3689 -0.4883  0.1598
19410TIP3   OH279644   2.425   0.491  13.619  0.1880  0.5359 -0.1690
19410TIP3    H179645   2.397   0.492  13.711  2.2150 -1.5855  0.5131
19410TIP3    H279646   2.497   0.554  13.616  0.3113  0.3904 -0.2410
19411TIP3   OH279647   1.492   3.749   4.801  0.3012 -0.0904 -0.1887
19411TIP3    H179648   1.437   3.782   4.873  0.2404  1.1246 -0.7914
19411TIP3    H279649   1.444   3.674   4.767 -2.0639  2.2518 -2.1126
19412TIP3   OH279650   5.564   4.016  14.296 -0.1881 -0.1295  0.4369
19412TIP3    H179651   5.642   4.071  14.286 -0.7364  0.4973 -0.4070
19412TIP3    H279652   5.562   3.963  14.217 -1.8700  1.4556 -0.6062
19413TIP3   OH279653   1.466   0.606   4.267 -0.4938 -0.1808  0.0506
19413TIP3    H179654   1.446   0.659   4.190 -0.3235 -0.3127 -0.0824
19413TIP3    H279655   1.561   0.599   4.267 -0.4608  0.2035  0.5264
19414TIP3   OH279656   5.198   6.368   1.219 -0.1323 -0.2170 -0.0778
19414TIP3    H179657   5.106   6.394   1.209 -0.3929 -0.9860  0.2193
19414TIP3    H279658   5.237   6.385   1.134 -0.4317  0.5943 -0.0517
19415TIP3   OH279659   5.725   4.943  16.676  0.1813  0.1183 -0.4242
19415TIP3    H179660   5.765   4.861  16.704 -2.7980 -1.1431  0.3679
19415TIP3    H279661   5.646   4.916  16.628 -0.2760  2.4851 -1.0808
19416TIP3   OH279662   0.735   4.002   4.519 -0.1389  0.2495  0.3876
19416TIP3    H179663   0.661   3.953   4.482  0.8734 -0.7088 -0.3970
19416TIP3    H279664   0.696   4.053   4.590 -1.8111  0.8437 -0.9120
19417TIP3   OH279665   3.716   4.495   0.058 -0.3162 -0.2925  0.3840
19417TIP3    H179666   3.803   4.488   0.018 -0.8187  0.8233 -0.9325
19417TIP3    H279667   3.655   4.477  -0.013 -1.1877  0.1600  1.0047
19418TIP3   OH279668   5.133   2.072  17.072 -0.3546 -0.4657 -0.0288
19418TIP3    H179669   5.191   2.022  17.129 -0.9492 -2.7718 -1.3956
19418TIP3    H279670   5.185   2.089  16.994 -1.5614 -2.8098 -1.3910
19419TIP3   OH279671   5.519   3.317  11.950 -0.0513 -0.3834  0.2137
19419TIP3    H179672   5.431   3.354  11.955 -0.7461 -2.0271  0.1640
19419TIP3    H279673   5.508   3.224  11.968  1.5070 -0.8310 -0.9949
19420TIP3   OH279674   4.280   3.877  16.412 -0.6167 -0.2283 -0.3257
19420TIP3    H179675   4.375   3.869  16.418 -0.2460  1.0733 -3.2770
19420TIP3    H279676   4.248   3.787  16.413  0.6413 -0.6719  0.7127
19421TIP3   OH279677   2.794   0.344   2.758 -0.1380 -0.0118 -0.2312
19421TIP3    H179678   2.737   0.366   2.832 -2.0518 -2.1159 -1.0239
19421TIP3    H279679   2.877   0.320   2.798 -1.1196 -1.0253  1.2402
19422TIP3   OH279680   0.911   0.669   3.596  0.0901  0.3826  0.1773
19422TIP3    H179681   0.938   0.638   3.683 -1.5551 -1.3598  0.1004
19422TIP3    H279682   0.939   0.601   3.536 -0.0272  0.9282 -0.5048
19423TIP3   OH279683   5.850   3.531   1.300  0.3090 -0.2208  0.5257
19423TIP3    H179684   5.808   3.523   1.386 -0.6605  0.0601  0.0925
19423TIP3    H279685   5.793   3.590   1.252 -0.3500 -2.0602 -1.0312
19424TIP3   OH279686   0.795   2.256  12.734 -0.1631  0.5723  0.3591
19424TIP3    H179687   0.888   2.240  12.746  0.0572  1.0498 -0.5878
19424TIP3    H279688   0.791   2.344  12.696 -0.8695 -0.1528 -1.3265
19425TIP3   OH279689   1.373   3.180  13.382  0.5388  0.2563  0.0245
19425TIP3    H179690   1.357   3.096  13.426  2.0937 -0.3355 -0.4954
19425TIP3    H279691   1.425   3.230  13.445 -1.2782  1.2510  0.7597
19426TIP3   OH279692   2.311   5.976   1.022 -0.0779  0.0409  0.1966
19426TIP3    H179693   2.279   5.933   0.942  0.8012 -0.3016  0.0234
19426TIP3    H279694   2.311   5.907   1.088  1.7343 -0.3537 -0.1871
19427TIP3   OH279695   3.755   3.536  10.901 -0.2835 -0.1097  0.1533
19427TIP3    H179696   3.749   3.509  10.810 -0.9598 -0.2555  0.2392
19427TIP3    H279697   3.665   3.533  10.933 -0.0956  0.2682  0.7302
19428TIP3   OH279698   3.435   1.804   5.082  0.8408  0.3532  0.0378
19428TIP3    H179699   3.374   1.785   5.153  0.2708  3.2072  0.3698
19428TIP3    H279700   3.398   1.758   5.006 -0.6183  0.4031  0.7033
19429TIP3   OH279701   0.746   5.966  12.861  0.3438  0.1901  0.6784
19429TIP3    H179702   0.654   5.939  12.869  0.1283  1.3736  2.5940
19429TIP3    H279703   0.795   5.895  12.902  0.0958  0.6950  1.8587
19430TIP3   OH279704   5.249   2.149  14.591  0.2404 -0.7396  0.2234
19430TIP3    H179705   5.287   2.172  14.675  1.0026 -1.2702  0.0321
19430TIP3    H279706   5.288   2.212  14.529 -0.4313 -0.2545  0.2891
19431TIP3   OH279707   2.366   5.245  16.198  0.0945 -0.1651  0.0125
19431TIP3    H179708   2.458   5.267  16.180 -0.2992  0.0328 -1.7624
19431TIP3    H279709   2.344   5.297  16.276  1.3940  0.0226  0.2661
19432TIP3   OH279710   3.076   3.709   1.391  0.1161 -0.2530 -0.2188
19432TIP3    H179711   3.106   3.759   1.315 -2.3640  1.2291 -0.2965
19432TIP3    H279712   3.016   3.768   1.437 -1.6129 -2.5433  0.6102
19433TIP3   OH279713   3.644   3.793  13.104 -0.3672 -0.1828 -0.4150
19433TIP3    H179714   3.632   3.815  13.011  0.3411 -0.1356 -0.5049
19433TIP3    H279715   3.575   3.841  13.149  0.4395  1.3234 -0.7283
19434TIP3   OH279716   4.753   3.379   5.988  0.7073  0.0823  0.3252
19434TIP3    H179717   4.836   3.409   5.950 -0.0936  0.4653 -1.1693
19434TIP3    H279718   4.693   3.452   5.973 -0.4937 -1.0921 -0.6837
19435TIP3   OH279719   3.367   5.528  17.191  0.0205 -0.3485  0.4896
19435TIP3    H179720   3.287   5.483  17.162  0.8539 -0.9338 -0.9393
19435TIP3    H279721   3.363   5.613  17.145  0.1610 -0.3263  0.5204
19436TIP3   OH279722   2.744   6.408  12.248  0.0063  0.7172 -0.0424
19436TIP3    H179723   2.789   6.449  12.174 -0.3908 -0.6250 -1.0443
19436TIP3    H279724   2.715   6.323  12.215 -2.2425  1.0669  0.9337
19437TIP3   OH279725   0.927   3.765   4.543  0.1777 -0.3114 -0.0995
19437TIP3    H179726   0.850   3.819   4.528  0.2985 -0.3063 -0.7302
19437TIP3    H279727   0.944   3.723   4.458  0.1015 -1.3157  0.3676
19438TIP3   OH279728   0.641   1.669  16.828 -0.0267 -0.9636 -0.0935
19438TIP3    H179729   0.547   1.658  16.814 -0.0568  0.2957 -0.9775
19438TIP3    H279730   0.652   1.659  16.923 -1.5552  2.1203  0.4859
19439TIP3   OH279731   3.488   5.521  15.036  0.4735  0.1386  0.5955
19439TIP3    H179732   3.412   5.578  15.047  1.6279  1.5530  1.4021
19439TIP3    H279733   3.563   5.577  15.055  1.7609 -1.0927 -0.7567
19440TIP3   OH279734   1.287   1.102   5.170  0.1628  0.2457 -0.5626
19440TIP3    H179735   1.303   1.062   5.084  1.1549 -0.4641 -0.0623
19440TIP3    H279736   1.203   1.066   5.198  0.5625 -0.7146 -0.5707
19441TIP3   OH279737   1.658   4.173  16.286 -0.0331  0.0382  0.4208
19441TIP3    H179738   1.592   4.230  16.326 -0.6308  1.5154 -2.5449
19441TIP3    H279739   1.607   4.110  16.236  0.6568 -2.6812  2.9654
19442TIP3   OH279740   2.723   2.917   1.444 -0.2113  0.2519 -0.0585
19442TIP3    H179741   2.680   2.989   1.398 -0.6090  0.0618  0.0162
19442TIP3    H279742   2.671   2.904   1.523  0.4525  0.5547  0.4383
19443TIP3   OH279743   1.878   0.303  11.230  0.2089 -0.8815 -0.0530
19443TIP3    H179744   1.829   0.223  11.213  0.8696 -1.2190 -0.3930
19443TIP3    H279745   1.837   0.341  11.308 -0.6327 -1.1193 -0.3742
19444TIP3   OH279746   3.157   2.713   4.295  0.4916 -0.1064 -0.2785
19444TIP3    H179747   3.247   2.692   4.322  0.4591 -0.6793 -0.6116
19444TIP3    H279748   3.156   2.808   4.287  1.2255 -0.1369 -0.8195
19445TIP3   OH279749   3.043   0.547  13.041 -0.3595  0.0883 -0.1868
19445TIP3    H179750   3.028   0.576  13.131  0.0234 -0.4335  0.0469
19445TIP3    H279751   3.100   0.614  13.003  0.9128 -0.5816  0.4956
19446TIP3   OH279752   4.332   1.992  12.537  0.1782  0.1098  0.6072
19446TIP3    H179753   4.271   1.987  12.611 -0.3473  1.9272  0.3246
19446TIP3    H279754   4.397   2.057  12.565  2.1561 -1.9669  0.9982
19447TIP3   OH279755   2.635   4.248  13.106 -0.1015  0.0194  0.3148
19447TIP3    H179756   2.589   4.326  13.137 -1.3411 -1.1766  1.5697
19447TIP3    H279757   2.725   4.259  13.139 -0.5343  0.4284  1.3883
19448TIP3   OH279758   1.739   2.123  10.695 -0.0488 -0.0390  0.1906
19448TIP3    H179759   1.824   2.114  10.738  0.6427 -1.1353 -1.3995
19448TIP3    H279760   1.724   2.039  10.652 -0.9667  0.8656 -1.2917
19449TIP3   OH279761   6.006   2.009   2.139 -0.0721 -0.1935  0.5504
19449TIP3    H179762   5.994   2.033   2.231  1.0568 -2.5283  1.3324
19449TIP3    H279763   6.043   1.921   2.142  1.8335  0.4576 -2.0964
19450TIP3   OH279764   1.605   1.906  14.427 -0.3382  0.2314  0.0558
19450TIP3    H179765   1.686   1.942  14.391 -0.7965  1.3380  0.1062
19450TIP3    H279766   1.546   1.899  14.352 -0.1258 -0.8193 -0.0294
19451TIP3   OH279767   6.012   2.421   1.367  0.4391  0.1240  0.0299
19451TIP3    H179768   5.919   2.412   1.345  0.4773 -0.6868  0.1887
19451TIP3    H279769   6.051   2.337   1.341  1.2428  0.6840 -0.5981
19452TIP3   OH279770   3.137   2.285   3.154  0.0023  0.1413 -0.2499
19452TIP3    H179771   3.065   2.223   3.160  0.9741 -0.8208  2.2113
19452TIP3    H279772   3.191   2.251   3.082 -0.6221 -0.6195 -0.3734
19453TIP3   OH279773   2.852   3.716  16.492  0.0240 -0.5186 -0.4515
19453TIP3    H179774   2.902   3.768  16.554 -1.3308 -1.4481  1.4582
19453TIP3    H279775   2.917   3.680  16.432  1.6448 -1.4679  1.8076
19454TIP3   OH279776   5.032   1.867  12.326  0.5190 -0.2157  0.4617
19454TIP3    H179777   5.092   1.908  12.388  1.4779 -1.0041  0.0754
19454TIP3    H279778   5.050   1.773  12.334  0.1389 -0.3712 -0.4809
19455TIP3   OH279779   4.833   2.100   4.676 -0.0974 -0.1043  0.0198
19455TIP3    H179780   4.804   2.013   4.647  0.7794  0.0889 -1.4959
19455TIP3    H279781   4.927   2.100   4.660  0.1738  0.5512  1.5464
19456TIP3   OH279782   1.528   3.038  11.470 -0.1958  0.6320 -0.3433
19456TIP3    H179783   1.467   3.078  11.532 -1.1804 -1.9475  0.4015
19456TIP3    H279784   1.528   2.945  11.493  1.9728  0.1736 -2.0800
19457TIP3   OH279785   0.721   2.727   1.145  0.1705 -0.3871  0.3306
19457TIP3    H179786   0.794   2.788   1.158  0.5384 -0.1661 -2.4470
19457TIP3    H279787   0.645   2.783   1.132  0.2446 -0.5205 -0.7494
19458TIP3   OH279788   4.147   6.368   1.809  0.2185  0.3043 -0.0953
19458TIP3    H179789   4.195   6.287   1.829 -0.2498 -0.3476 -1.5487
19458TIP3    H279790   4.211   6.438   1.824  1.9947 -0.5970 -2.9502
19459TIP3   OH279791   3.455   4.775   4.968 -0.0816  0.3796  0.5581
19459TIP3    H179792   3.359   4.766   4.966 -0.0222 -0.4294  0.8759
19459TIP3    H279793   3.479   4.796   4.878 -0.6552  1.6709  0.6970
19460TIP3   OH279794   0.945   1.508   1.685 -0.2762  0.4897  0.3233
19460TIP3    H179795   0.914   1.575   1.745 -0.4312  0.5335  0.1925
19460TIP3    H279796   1.039   1.499   1.705 -0.6093 -0.4489  1.4828
19461TIP3   OH279797   1.474   1.836   4.094 -0.2799 -0.0651 -0.2038
19461TIP3    H179798   1.519   1.862   4.014  1.4543 -0.1531  0.7234
19461TIP3    H279799   1.533   1.862   4.165 -0.8399 -1.8455  0.9606
19462TIP3   OH279800   6.551   2.267  12.597  0.4919  0.3903  0.3359
19462TIP3    H179801   6.523   2.227  12.514  0.0307 -0.0326  0.6917
19462TIP3    H279802   6.576   2.192  12.652 -0.4790  0.5872  1.0503
19463TIP3   OH279803   0.384   1.181  14.727 -0.1806 -0.5174  0.1726
19463TIP3    H179804   0.293   1.201  14.746  0.0315 -0.4183  1.0778
19463TIP3    H279805   0.400   1.097  14.769  0.7616  0.4986  1.9239
19464TIP3   OH279806   5.594   2.551   2.754 -0.4728  0.6282  0.2737
19464TIP3    H179807   5.575   2.560   2.847 -1.0167  1.4932  0.0847
19464TIP3    H279808   5.528   2.605   2.711  0.4392  1.0991 -0.5566
19465TIP3   OH279809   0.658   5.571  14.790 -0.5304  0.4617 -0.0966
19465TIP3    H179810   0.689   5.598  14.704 -2.0111 -0.5118 -0.9759
19465TIP3    H279811   0.705   5.489  14.808  1.0263  1.5240  0.7988
19466TIP3   OH279812   4.263   2.040   5.149  0.4334 -0.0346  0.1349
19466TIP3    H179813   4.280   1.948   5.169  0.1388 -0.2456 -0.5711
19466TIP3    H279814   4.205   2.069   5.218  0.5310 -0.3793  0.3654
19467TIP3   OH279815   0.709   6.239   2.799  0.1699  0.7103 -0.7930
19467TIP3    H179816   0.701   6.265   2.891 -2.6482  0.9475 -1.0659
19467TIP3    H279817   0.794   6.196   2.794 -0.1150 -0.3081  2.1709
19468TIP3   OH279818   0.347   1.718   1.732  0.1665  0.3571  0.2753
19468TIP3    H179819   0.272   1.737   1.789 -0.6875  2.0574 -1.3391
19468TIP3    H279820   0.330   1.631   1.697 -0.8860  0.5855  0.2016
19469TIP3   OH279821   5.852   4.754   2.198  0.0417 -0.0189  0.1351
19469TIP3    H179822   5.875   4.734   2.289  1.0900 -0.6812 -0.2760
19469TIP3    H279823   5.834   4.849   2.199  0.1229 -0.0036  1.0060
19470TIP3   OH279824   0.108   6.385  13.509  0.5337  0.0191 -0.0591
19470TIP3    H179825   0.168   6.450  13.474  1.5510 -0.9605 -0.1758
19470TIP3    H279826   0.155   6.302  13.501  0.1100 -0.4685  2.0355
19471TIP3   OH279827   3.936   4.777   2.664 -0.0696 -0.0849  0.2660
19471TIP3    H179828   3.931   4.701   2.606  1.3693  0.3977 -0.5169
19471TIP3    H279829   3.868   4.836   2.634  2.8021  1.6547 -3.1487
19472TIP3   OH279830   4.822   5.758   4.621 -0.1004  0.4563  0.2923
19472TIP3    H179831   4.773   5.763   4.703 -1.2751 -0.6048 -0.3403
19472TIP3    H279832   4.794   5.834   4.571 -0.2813  0.4586  0.3958
19473TIP3   OH279833   0.621   4.372  15.231 -0.3639  0.2326 -0.0860
19473TIP3    H179834   0.621   4.460  15.194 -1.0653 -1.0808 -3.3477
19473TIP3    H279835   0.701   4.331  15.197 -0.3367 -0.5908  0.9379
19474TIP3   OH279836   3.826   1.282   1.617 -0.4153  0.0762 -0.2632
19474TIP3    H179837   3.873   1.333   1.683  2.2146 -0.5342 -1.5795
19474TIP3    H279838   3.806   1.345   1.547 -0.7369  0.1378 -0.1170
19475TIP3   OH279839   2.336   4.694  11.384 -0.1649  0.0429  0.4075
19475TIP3    H179840   2.391   4.618  11.363 -1.6103 -0.9152  0.0278
19475TIP3    H279841   2.399   4.763  11.408  1.3046 -0.3179 -2.2520
19476TIP3   OH279842   3.942   0.349  14.283  0.0802 -0.5064 -0.0278
19476TIP3    H179843   3.992   0.352  14.365 -1.5924  1.9145  0.9801
19476TIP3    H279844   3.851   0.339  14.311 -0.3236 -1.6766 -1.6971
19477TIP3   OH279845   5.708   0.326  14.257 -0.2892  0.1083 -0.2908
19477TIP3    H179846   5.619   0.329  14.223  0.1386 -0.4394 -1.4813
19477TIP3    H279847   5.761   0.370  14.190  0.4504 -0.2804  0.0310
19478TIP3   OH279848   1.118   4.357  13.753 -0.4210 -0.4867  0.2130
19478TIP3    H179849   1.096   4.299  13.681 -0.3864  1.0400 -1.0524
19478TIP3    H279850   1.046   4.348  13.815 -0.4555 -1.7986 -0.0142
19479TIP3   OH279851   6.605   4.933   6.025  0.2856 -0.2914  0.0302
19479TIP3    H179852   6.687   4.970   5.993  0.9895 -1.4595  0.4589
19479TIP3    H279853   6.603   4.958   6.118  1.6067 -2.7677  0.7535
19480TIP3   OH279854   0.018   1.284  14.122  0.7361  0.1911  0.1796
19480TIP3    H179855   0.101   1.248  14.153  1.0505 -0.1246 -0.9831
19480TIP3    H279856   0.033   1.303  14.029 -1.1471 -1.9750 -0.6476
19481TIP3   OH279857   4.243   1.863   5.444 -0.0366  0.4790 -0.8538
19481TIP3    H179858   4.294   1.931   5.488  0.3062 -0.7853  0.7702
19481TIP3    H279859   4.153   1.881   5.468  0.3190 -1.3364  2.0546
19482TIP3   OH279860   6.581   6.452   0.759  0.1606 -0.1092 -0.6006
19482TIP3    H179861   6.501   6.483   0.804 -0.2193 -0.7830 -0.8113
19482TIP3    H279862   6.624   6.396   0.823  1.8771  2.4003  0.5141
19483TIP3   OH279863   0.362   0.316   2.046 -0.1184 -0.0017 -0.2818
19483TIP3    H179864   0.329   0.324   2.135 -2.2235  1.1675 -1.1211
19483TIP3    H279865   0.318   0.386   1.998  1.0188 -0.5867 -2.2196
19484TIP3   OH279866   2.422   2.805  12.927  0.1882 -0.2200 -0.1206
19484TIP3    H179867   2.350   2.752  12.892 -0.1179 -0.7687  1.3444
19484TIP3    H279868   2.435   2.773  13.016  0.9884  1.1696  0.2710
19485TIP3   OH279869   1.959   2.022  14.388 -0.0043 -0.3631 -0.4854
19485TIP3    H179870   1.974   1.928  14.383  1.1089 -0.1990 -0.4334
19485TIP3    H279871   1.907   2.034  14.468 -0.8683 -1.0163 -0.9553
19486TIP3   OH279872   2.958   1.099   5.091 -0.3145  0.1203 -0.2288
19486TIP3    H179873   2.924   1.048   5.164 -1.7750  3.5961  1.6235
19486TIP3    H279874   2.918   1.059   5.014 -0.3998 -2.2861  0.9950
19487TIP3   OH279875   0.115   0.616   1.504  0.2719  0.3211  0.0451
19487TIP3    H179876   0.177   0.687   1.485 -0.3171  1.0546  0.8365
19487TIP3    H279877   0.136   0.590   1.594 -0.0710  0.0519  0.0467
19488TIP3   OH279878   5.967   2.980   2.435 -0.5269  0.5385  0.6146
19488TIP3    H179879   5.994   3.065   2.470 -2.3531  1.5937 -0.4425
19488TIP3    H279880   5.908   2.944   2.501  0.6614 -0.1487  1.3026
19489TIP3   OH279881   0.185   5.595  12.426  0.0510  0.1191 -0.3786
19489TIP3    H179882   0.120   5.530  12.454 -0.1787  1.1648  1.6344
19489TIP3    H279883   0.256   5.543  12.388 -1.2432 -1.1369 -1.1279
19490TIP3   OH279884   2.524   0.246  14.034 -0.1639  0.0770 -0.0166
19490TIP3    H179885   2.570   0.213  13.957 -0.1511 -0.9875  0.4415
19490TIP3    H279886   2.555   0.191  14.106 -2.2518 -0.7452  0.2882
19491TIP3   OH279887   1.653   5.747  15.069 -0.4717  0.0089  0.1375
19491TIP3    H179888   1.710   5.811  15.113 -0.5527 -0.7501  1.3681
19491TIP3    H279889   1.693   5.662  15.087 -0.0586 -0.2605 -1.9660
19492TIP3   OH279890   2.509   4.912  11.182 -0.0089 -0.6002 -0.5128
19492TIP3    H179891   2.597   4.915  11.147 -0.9857  4.0118 -2.9263
19492TIP3    H279892   2.464   4.845  11.130  1.7477 -2.3341  0.1395
19493TIP3   OH279893   5.143   6.286   3.529 -0.2156 -0.0536 -0.1200
19493TIP3    H179894   5.138   6.210   3.471  0.1499 -1.5554  1.7746
19493TIP3    H279895   5.207   6.261   3.596 -1.8755  0.9559  1.8929
19494TIP3   OH279896   4.296   1.770   5.183  0.4533 -0.4590  0.5259
19494TIP3    H179897   4.262   1.766   5.272  0.1656 -0.6489  0.4066
19494TIP3    H279898   4.376   1.719   5.185  1.1278  0.6071  0.9905
19495TIP3   OH279899   0.967   6.575   1.033 -0.0569  0.7811  0.8087
19495TIP3    H179900   1.027   6.500   1.030  0.9417  1.5371  1.4083
19495TIP3    H279901   0.908   6.562   0.959  0.2492 -0.4754  0.7734
19496TIP3   OH279902   4.222   3.779  10.940  0.6496 -0.2230 -0.2315
19496TIP3    H179903   4.213   3.693  10.900  0.7713 -0.5691  0.4721
19496TIP3    H279904   4.132   3.813  10.944  0.5292 -0.5765  0.0550
19497TIP3   OH279905   3.489   3.016   3.207 -0.0471  0.2108  0.3045
19497TIP3    H179906   3.463   3.023   3.115  0.4754 -2.1317 -0.0353
19497TIP3    H279907   3.420   3.064   3.254 -1.3168 -0.1395 -1.1286
19498TIP3   OH279908   1.606   1.161   2.633 -0.0573 -0.3896  0.0921
19498TIP3    H179909   1.578   1.153   2.541  0.0921 -0.0485  0.0172
19498TIP3    H279910   1.538   1.216   2.673 -0.5720 -1.2230  0.3841
19499TIP3   OH279911   3.285   2.886  15.960  0.0165  0.8448 -0.3769
19499TIP3    H179912   3.232   2.876  16.039  0.5755 -0.4002 -0.1617
19499TIP3    H279913   3.266   2.976  15.931  1.6367  2.1777  2.4688
19500TIP3   OH279914   2.669   6.621   2.624  0.0091 -0.1315  0.3889
19500TIP3    H179915   2.653   6.608   2.530  0.5092  0.9106  0.1434
19500TIP3    H279916   2.765   6.623   2.631 -0.0325  0.3116  0.8453
19501TIP3   OH279917   4.030   0.287  12.409 -0.1920 -0.1635 -0.7232
19501TIP3    H179918   3.947   0.291  12.361  0.3679 -0.4527 -1.7455
19501TIP3    H279919   4.069   0.204  12.380  0.1428 -0.3533  0.2720
19502TIP3   OH279920   0.426   1.378   2.113  0.6009  0.0080 -0.3821
19502TIP3    H179921   0.430   1.368   2.018 -1.3775  0.4325 -0.5336
19502TIP3    H279922   0.370   1.454   2.126  1.9697  0.7835  1.1135
19503TIP3   OH279923   5.550   1.687  13.849 -0.0279 -0.9392  0.5477
19503TIP3    H179924   5.551   1.659  13.758 -0.9057 -0.8931  0.5154
19503TIP3    H279925   5.459   1.710  13.866  0.3255  0.0944  1.1215
19504TIP3   OH279926   6.523   0.714  14.887 -0.1289  0.0355 -0.0286
19504TIP3    H179927   6.517   0.675  14.974 -1.7595 -2.2736 -1.1398
19504TIP3    H279928   6.434   0.712  14.853  0.3155  1.8414 -1.3844
19505TIP3   OH279929   3.076   4.878  16.166  0.1799  0.8682  0.4043
19505TIP3    H179930   3.019   4.830  16.227  1.3314  0.4490  1.1661
19505TIP3    H279931   3.128   4.810  16.123 -0.9642  1.1184 -1.4249
19506TIP3   OH279932   4.857   3.927   4.774 -0.3635  0.3366  0.4605
19506TIP3    H179933   4.915   3.981   4.720 -0.3644  0.8419  0.9687
19506TIP3    H279934   4.916   3.881   4.834 -0.5472  1.3528  1.4209
19507TIP3   OH279935   1.594   4.099  11.450 -1.0992  0.0288  0.6273
19507TIP3    H179936   1.607   4.032  11.518 -0.4725  1.9305  2.4349
19507TIP3    H279937   1.499   4.105  11.440 -1.1502 -1.5090  0.0356
19508TIP3   OH279938   0.508   4.923  15.827 -0.0604  0.2751 -0.1244
19508TIP3    H179939   0.603   4.914  15.814  0.1433  2.5964 -0.4411
19508TIP3    H279940   0.477   4.967  15.748 -1.5608 -1.1937 -0.3817
19509TIP3   OH279941   4.584   6.453  12.639  0.0057 -0.0026  0.2102
19509TIP3    H179942   4.579   6.487  12.550 -0.0374 -0.2356  0.1236
19509TIP3    H279943   4.594   6.358  12.628  2.0283  0.1712  0.4245
19510TIP3   OH279944   1.865   3.073   4.992 -0.3691 -0.6008  0.1006
19510TIP3    H179945   1.807   3.025   4.934  1.4877 -2.3013 -0.4200
19510TIP3    H279946   1.834   3.164   4.988 -2.2452 -1.2687 -1.0146
19511TIP3   OH279947   1.283   2.200   5.404  0.0504  0.0342 -0.2206
19511TIP3    H179948   1.202   2.249   5.396  0.2663  0.4980  0.4680
19511TIP3    H279949   1.273   2.127   5.343  0.6243  2.1580 -2.9795
19512TIP3   OH279950   2.835   0.576  15.603  0.5249 -0.3747  0.3752
19512TIP3    H179951   2.915   0.614  15.640  0.0521  1.3614 -0.3540
19512TIP3    H279952   2.765   0.604  15.662  0.5301 -2.5499  1.4596
19513TIP3   OH279953   5.963   2.432   1.673  0.7096 -0.2200  0.3939
19513TIP3    H179954   6.050   2.416   1.636  0.4853  0.7593 -0.5690
19513TIP3    H279955   5.905   2.439   1.597 -0.3727 -1.7270  1.0562
19514TIP3   OH279956   5.869   0.356   1.362  0.7576  0.2866  0.2827
19514TIP3    H179957   5.902   0.282   1.413  0.2139 -0.0364  0.1785
19514TIP3    H279958   5.780   0.370   1.396  0.2389 -0.1912 -0.8422
19515TIP3   OH279959   3.374   3.074  15.073  0.4203  0.3905  0.2973
19515TIP3    H179960   3.435   3.079  15.146  0.8715  1.1205 -0.1232
19515TIP3    H279961   3.426   3.097  14.996 -0.0554 -0.3388 -0.2568
19516TIP3   OH279962   1.222   2.923   5.089  0.3712  0.3444 -0.0337
19516TIP3    H179963   1.240   2.906   5.182  1.6218 -0.6941 -0.4481
19516TIP3    H279964   1.224   3.018   5.081  1.5606  0.4039  0.7679
19517TIP3   OH279965   4.160   4.151   3.044  0.3414 -0.4579  0.5936
19517TIP3    H179966   4.131   4.084   2.983 -0.5608 -0.1100  0.6238
19517TIP3    H279967   4.255   4.144   3.046  0.3163 -0.9956 -0.2402
19518TIP3   OH279968   6.649   3.059  14.189  0.4148  0.1043 -0.5359
19518TIP3    H179969   6.713   3.118  14.150  1.7854  0.2081  1.7581
19518TIP3    H279970   6.683   2.972  14.171  2.3519  0.1769  2.3664
19519TIP3   OH279971   3.632   4.122   6.740  0.1959 -0.2463 -0.1011
19519TIP3    H179972   3.683   4.043   6.722 -0.6174 -0.5042 -1.3620
19519TIP3    H279973   3.557   4.116   6.680 -0.9505  0.4693  1.2186
19520TIP3   OH279974   5.129   3.239  16.258 -0.2948 -0.6034 -0.6019
19520TIP3    H179975   5.108   3.154  16.296  0.7470 -1.1568 -1.2475
19520TIP3    H279976   5.121   3.226  16.163 -1.4881  0.3943 -0.6600
19521TIP3   OH279977   2.557   0.475   0.122  0.3056 -0.0661  0.2321
19521TIP3    H179978   2.572   0.474   0.028  1.0324 -0.5618  0.3425
19521TIP3    H279979   2.548   0.382   0.145  1.0885 -0.0153  0.7823
19522TIP3   OH279980   5.046   6.342  13.991 -0.2773  0.4415  0.2598
19522TIP3    H179981   5.121   6.322  14.047  0.2040  0.9490 -0.1964
19522TIP3    H279982   4.989   6.395  14.046  0.1419  0.8432  0.3112
19523TIP3   OH279983   5.702   4.769  14.907  0.3456 -0.0274 -0.2014
19523TIP3    H179984   5.754   4.714  14.848 -0.2063 -0.6438 -0.1200
19523TIP3    H279985   5.761   4.841  14.930  0.9057 -0.3130 -0.7100
19524TIP3   OH279986   5.406   6.182   4.573 -0.3436 -0.1972 -0.0816
19524TIP3    H179987   5.448   6.205   4.490 -0.6282  0.8859  0.0542
19524TIP3    H279988   5.440   6.247   4.635  0.0309 -1.1279  0.7053
19525TIP3   OH279989   0.521   2.710   1.866  0.1514 -0.2789  0.7200
19525TIP3    H179990   0.458   2.778   1.891  1.1157 -0.6056  4.4346
19525TIP3    H279991   0.503   2.638   1.926  1.2218 -2.1093 -1.0965
19526TIP3   OH279992   6.346   5.636  15.723  0.3033  0.7240  0.3581
19526TIP3    H179993   6.311   5.662  15.638 -0.5660  0.1182  0.5179
19526TIP3    H279994   6.348   5.717  15.774 -1.3885  0.6765  0.5173
19527TIP3   OH279995   1.822   0.926  14.975  0.1816 -0.4980 -0.0837
19527TIP3    H179996   1.738   0.897  15.010  0.6766  0.4453  1.9725
19527TIP3    H279997   1.887   0.897  15.040  1.2368  0.3886 -0.7114
19528TIP3   OH279998   0.549   3.062   5.264 -0.0643 -0.0735  0.3115
19528TIP3    H179999   0.618   3.021   5.211 -1.8650 -1.6893 -0.8608
19528TIP3    H280000   0.502   3.118   5.203 -0.2978  0.3931  0.9129
19529TIP3   OH280001   4.161   5.089   1.845 -0.5118 -0.2363 -0.4122
19529TIP3    H180002   4.206   5.108   1.927  0.3731 -0.4918 -0.8392
19529TIP3    H280003   4.068   5.096   1.867 -0.2691  0.3587  0.4526
19530TIP3   OH280004   4.453   5.592  12.657  0.1485 -0.3187  0.2458
19530TIP3    H180005   4.548   5.601  12.662  0.0186  0.5389  1.2601
19530TIP3    H280006   4.436   5.569  12.565  1.4567 -2.0972  0.4339
19531TIP3   OH280007   0.987   5.039   4.000 -0.3780 -0.2766 -0.1995
19531TIP3    H180008   1.071   5.056   4.043 -0.7520  1.1674 -0.0012
19531TIP3    H280009   0.941   4.981   4.060 -0.2723  0.4664  0.6198
19532TIP3   OH280010   6.715   0.848  12.065  0.0010  0.4351 -0.3591
19532TIP3    H180011   6.628   0.808  12.066 -0.1427  0.7316 -0.7913
19532TIP3    H280012   6.721   0.894  12.148  0.2815 -0.7229  0.2716
19533TIP3   OH280013   6.528   0.925   5.966  0.1175 -0.8748  0.1548
19533TIP3    H180014   6.460   0.909   6.031 -0.2260 -0.6426 -0.1498
19533TIP3    H280015   6.569   1.008   5.994 -1.4451  0.3638 -1.1268
19534TIP3   OH280016   5.092   4.647   2.372  0.3862  0.2621  0.7885
19534TIP3    H180017   5.015   4.592   2.389  1.1850 -1.0211  0.4046
19534TIP3    H280018   5.154   4.624   2.442  0.2407  1.6423  1.3765
19535TIP3   OH280019   1.897   3.481   5.191 -0.0976 -0.1065  0.0869
19535TIP3    H180020   1.929   3.404   5.144  0.6635  0.5851 -0.5400
19535TIP3    H280021   1.926   3.555   5.138  0.9874  0.6990  1.7808
19536TIP3   OH280022   2.635   5.392  16.159  0.1196  0.1063 -0.3680
19536TIP3    H180023   2.623   5.436  16.075 -1.7391 -0.9249 -0.6641
19536TIP3    H280024   2.729   5.400  16.177  0.4601  0.7483 -2.3135
19537TIP3   OH280025   6.053   4.996  13.202  0.4823  0.0069  0.3587
19537TIP3    H180026   6.127   5.038  13.156 -0.0187  0.9791  0.4236
19537TIP3    H280027   5.976   5.034  13.160  0.0079 -1.8133 -0.4441
19538TIP3   OH280028   1.962   0.389   0.155 -0.5030 -0.7298  0.2584
19538TIP3    H180029   1.957   0.302   0.196 -0.4231 -0.7978  0.1264
19538TIP3    H280030   2.030   0.435   0.204  0.5941 -1.3007 -0.6904
19539TIP3   OH280031   2.192   5.737  15.670 -0.0186 -0.0542 -0.8658
19539TIP3    H180032   2.230   5.811  15.622 -1.8683 -0.0480 -2.4285
19539TIP3    H280033   2.215   5.660  15.618  1.5715 -0.5542  0.5475
19540TIP3   OH280034   1.257   1.587  17.096 -0.2958 -0.3149  0.3478
19540TIP3    H180035   1.218   1.634  17.022 -1.5433 -2.0316 -0.1498
19540TIP3    H280036   1.338   1.550  17.061 -0.7680 -0.9312 -0.1267
19541TIP3   OH280037   0.986   2.232  11.923 -0.1290  0.4427 -0.1780
19541TIP3    H180038   0.934   2.312  11.913 -1.8936 -0.7135 -0.2704
19541TIP3    H280039   0.923   2.164  11.946  1.3800 -0.9190  0.0238
19542TIP3   OH280040   0.873   2.794  16.847  0.3108  0.1616 -0.0036
19542TIP3    H180041   0.824   2.813  16.767  0.3336 -0.0615 -0.0702
19542TIP3    H280042   0.883   2.699  16.847  0.1935  0.1476  0.3357
19543TIP3   OH280043   4.583   5.487  13.131 -0.8479 -0.1700  0.3424
19543TIP3    H180044   4.563   5.448  13.046 -1.2411  1.0227 -0.1267
19543TIP3    H280045   4.498   5.496  13.174 -0.6564 -0.7171  0.8390
19544TIP3   OH280046   2.881   1.763  15.864 -0.8665 -0.1998  0.4030
19544TIP3    H180047   2.939   1.707  15.915 -1.2313 -0.4157  0.5866
19544TIP3    H280048   2.801   1.770  15.917 -0.0948  2.1355  1.3382
19545TIP3   OH280049   5.662   6.004  16.564 -0.0912 -0.4915 -0.2131
19545TIP3    H180050   5.740   5.978  16.515  0.2479  0.2017 -0.0485
19545TIP3    H280051   5.599   6.033  16.498  1.2983  2.9526 -0.1358
19546TIP3   OH280052   3.275   0.186   3.840  0.1404 -0.3628  0.3099
19546TIP3    H180053   3.269   0.242   3.917  2.3205 -0.5461  0.6622
19546TIP3    H280054   3.211   0.117   3.855 -0.4299  0.3735  1.3031
19547TIP3   OH280055   1.341   6.640   4.989  0.9038  0.0402  0.1201
19547TIP3    H180056   1.415   6.606   5.039  0.9319 -3.4835 -2.0924
19547TIP3    H280057   1.376   6.655   4.901  0.2727  3.6939  0.4196
19548TIP3   OH280058   0.982   4.952   0.869 -0.0596  0.3513  0.5618
19548TIP3    H180059   0.962   5.021   0.806 -0.5393  1.0635  1.4811
19548TIP3    H280060   1.075   4.962   0.887  0.2121 -0.2320 -0.4707
19549TIP3   OH280061   3.126   0.069  11.781  0.4832 -0.5237  0.1108
19549TIP3    H180062   3.142   0.153  11.823  0.6689 -0.4304 -0.1437
19549TIP3    H280063   3.203   0.016  11.802  1.4484  0.1326 -1.6310
19550TIP3   OH280064   1.037   4.535   5.586  0.0364  0.0662  0.0240
19550TIP3    H180065   0.992   4.568   5.509 -2.6368 -1.4094  0.8950
19550TIP3    H280066   1.111   4.485   5.551 -0.3744  0.5271 -1.5295
19551TIP3   OH280067   4.238   1.669  11.518 -0.4252  0.3861 -0.0123
19551TIP3    H180068   4.253   1.575  11.518 -0.0438  0.4398  0.2295
19551TIP3    H280069   4.158   1.682  11.467  0.2275  0.0467 -1.1422
19552TIP3   OH280070   6.568   4.773  16.853  0.2221 -0.3944  0.0621
19552TIP3    H180071   6.570   4.852  16.906  1.8381  1.5591 -2.7616
19552TIP3    H280072   6.480   4.770  16.816  0.8761  1.4422 -1.7091
19553TIP3   OH280073   5.692   6.531  13.841  0.0546  0.6094 -0.0032
19553TIP3    H180074   5.759   6.522  13.773 -1.2167  0.4278 -1.2490
19553TIP3    H280075   5.714   6.612  13.886 -0.1790  1.7159 -1.8493
19554TIP3   OH280076   6.030   4.567   0.436  0.7205  0.3114  0.0091
19554TIP3    H180077   5.967   4.558   0.507  0.0915 -1.2716 -0.7283
19554TIP3    H280078   5.979   4.556   0.356  1.8010 -0.2712 -0.6177
19555TIP3   OH280079   4.830   2.347  16.095  0.1647 -1.0455  0.0016
19555TIP3    H180080   4.815   2.437  16.123  0.1430 -1.7449  2.3577
19555TIP3    H280081   4.924   2.343  16.077 -0.1175 -0.1272 -1.8317
19556TIP3   OH280082   3.631   5.989  10.225 -0.1859  0.1386  0.2751
19556TIP3    H180083   3.616   5.959  10.314 -1.1494 -1.8816 -0.5499
19556TIP3    H280084   3.722   5.964  10.206 -0.6519 -1.3793 -0.0382
19557TIP3   OH280085   1.846   6.283   0.146 -0.2662  0.2180 -0.2270
19557TIP3    H180086   1.775   6.246   0.199  0.2674 -1.5285 -0.6789
19557TIP3    H280087   1.809   6.289   0.058 -0.1322  0.1329 -0.2886
19558TIP3   OH280088   6.721   6.518  12.741 -0.1308 -0.0048  0.3317
19558TIP3    H180089   6.638   6.558  12.718  0.3558  1.4087  0.9567
19558TIP3    H280090   6.725   6.438  12.689 -1.4035  0.4487 -0.4727
19559TIP3   OH280091   0.625   0.252  14.485 -0.7161 -0.2927  0.8752
19559TIP3    H180092   0.602   0.251  14.578 -1.8043 -1.9852  0.6214
19559TIP3    H280093   0.720   0.252  14.483 -0.6853  0.5691  1.9885
19560TIP3   OH280094   0.233   2.341  11.138  0.3718 -0.4540 -0.4313
19560TIP3    H180095   0.226   2.403  11.065 -1.1522 -0.7979 -0.5800
19560TIP3    H280096   0.216   2.255  11.099 -0.7296 -0.6095  0.3731
19561TIP3   OH280097   5.011   4.463   3.179 -0.1493 -0.6953 -0.8720
19561TIP3    H180098   4.935   4.516   3.202  0.3648  0.3179 -1.4604
19561TIP3    H280099   5.007   4.455   3.084 -0.0294 -1.4167 -0.8196
19562TIP3   OH280100   2.998   3.365   4.160  0.2210  0.0922 -0.2679
19562TIP3    H180101   3.075   3.310   4.142  1.4522  1.8472 -0.4684
19562TIP3    H280102   3.020   3.411   4.240 -0.1587  1.4169 -0.9131
19563TIP3   OH280103   4.023   0.908  15.328  0.3207 -0.4255 -0.9341
19563TIP3    H180104   3.968   0.841  15.368  2.4896 -2.3168 -1.0536
19563TIP3    H280105   4.033   0.879  15.238  2.2621 -0.5815 -0.6716
19564TIP3   OH280106   1.083   3.579  14.984  0.8768  0.4826  0.7059
19564TIP3    H180107   1.170   3.618  14.969  0.9673 -0.0517 -0.2014
19564TIP3    H280108   1.055   3.549  14.897 -0.1326  0.4665  1.0308
19565TIP3   OH280109   0.626   0.117   2.194  0.5084 -0.0719 -0.4879
19565TIP3    H180110   0.556   0.092   2.134  0.8917  0.5641 -1.2160
19565TIP3    H280111   0.640   0.210   2.177  0.3170  0.2291  0.9161
19566TIP3   OH280112   4.838   4.379   1.897 -0.0491 -0.0286 -0.3880
19566TIP3    H180113   4.885   4.309   1.942 -0.4676  0.0331  0.1599
19566TIP3    H280114   4.899   4.412   1.832  0.4513 -0.3424 -0.0791
19567TIP3   OH280115   1.019   4.606   5.322  0.5985  0.7127 -0.7169
19567TIP3    H180116   1.049   4.696   5.330 -0.1809  0.9690 -0.6297
19567TIP3    H280117   1.064   4.571   5.245 -0.9746  1.9437 -2.2409
19568TIP3   OH280118   1.749   0.904  15.273  0.1849  0.3600 -0.2056
19568TIP3    H180119   1.790   0.988  15.291 -0.6610  1.0294 -1.3025
19568TIP3    H280120   1.821   0.841  15.270  0.8863  1.1571 -0.0260
19569TIP3   OH280121   1.582   0.964   1.104  0.1841 -0.4839  0.2370
19569TIP3    H180122   1.529   1.044   1.101 -1.7080 -1.7213 -0.4895
19569TIP3    H280123   1.635   0.967   1.024  1.4865  0.9326  1.1359
19570TIP3   OH280124   2.090   0.071  10.956  0.3280 -0.1612 -0.1820
19570TIP3    H180125   2.146   0.120  10.897  2.0465 -1.3265  0.4536
19570TIP3    H280126   2.119   0.096  11.044 -1.1345  0.3387  0.1753
19571TIP3   OH280127   1.242   4.815  13.598  0.1988  0.0421 -0.1024
19571TIP3    H180128   1.335   4.791  13.593  0.5279  1.2147  0.2029
19571TIP3    H280129   1.240   4.891  13.656 -1.1526 -0.9208  1.1291
19572TIP3   OH280130   1.195   0.744  11.364 -0.3480  0.4038 -0.4735
19572TIP3    H180131   1.282   0.720  11.330  0.4260 -1.8827  2.8265
19572TIP3    H280132   1.144   0.664  11.359 -0.3631  0.0957  3.0426
19573TIP3   OH280133   4.299   2.125  12.293  0.6036  0.1245  0.1448
19573TIP3    H180134   4.387   2.089  12.308  0.4219 -0.6572 -0.6141
19573TIP3    H280135   4.247   2.093  12.367  0.6516 -0.4898 -0.0823
19574TIP3   OH280136   1.267   4.037  15.848  0.3161 -0.6268 -0.7222
19574TIP3    H180137   1.272   4.010  15.940 -0.6269  0.5258 -0.3195
19574TIP3    H280138   1.272   3.955  15.798 -1.1629 -1.4304  0.4131
19575TIP3   OH280139   2.912   0.749   1.910 -0.4313  0.6668 -0.9527
19575TIP3    H180140   2.836   0.737   1.853  0.2966  1.1361 -2.0420
19575TIP3    H280141   2.948   0.834   1.884  0.7276  0.2468 -0.7525
19576TIP3   OH280142   2.274   2.406  14.845  0.0639 -0.1780  0.3029
19576TIP3    H180143   2.283   2.486  14.898  0.3853  0.1342 -0.2219
19576TIP3    H280144   2.193   2.366  14.877 -0.3376  0.5850  0.2783
19577TIP3   OH280145   4.672   0.223  11.319  0.3458  0.4908 -0.0754
19577TIP3    H180146   4.605   0.178  11.267  1.2335 -0.7443 -0.1728
19577TIP3    H280147   4.725   0.270  11.254  0.0303  0.8656 -0.0637
19578TIP3   OH280148   0.720   1.921  13.077 -0.0699 -0.4970 -0.8766
19578TIP3    H180149   0.708   1.971  13.157 -2.7708  0.2076 -1.6836
19578TIP3    H280150   0.635   1.879  13.062  0.9138 -1.9864 -2.4630
19579TIP3   OH280151   6.565   4.378  13.757  0.0221  0.4109  0.0460
19579TIP3    H180152   6.541   4.462  13.719 -0.1477  0.4520  0.2461
19579TIP3    H280153   6.494   4.318  13.733  0.2475  0.2730 -0.2782
19580TIP3   OH280154   1.733   2.885   4.837  0.1406 -0.1307  0.3195
19580TIP3    H180155   1.642   2.915   4.835  0.4854  0.8970 -0.3783
19580TIP3    H280156   1.727   2.792   4.859 -1.2387 -0.6637 -2.1402
19581TIP3   OH280157   6.443   2.483  12.132  0.3626 -0.2745  0.0118
19581TIP3    H180158   6.359   2.506  12.173  1.2713  0.9389  1.2339
19581TIP3    H280159   6.422   2.470  12.040 -1.2702 -0.4915  0.4027
19582TIP3   OH280160   0.514   2.181   0.688  0.1977  0.5675 -0.4934
19582TIP3    H180161   0.459   2.108   0.717  1.2213 -1.0398 -2.4944
19582TIP3    H280162   0.568   2.201   0.764  0.6252 -1.4500 -0.2355
19583TIP3   OH280163   3.234   4.696   4.824  0.0622  0.0805  0.1251
19583TIP3    H180164   3.265   4.675   4.736  0.4181 -0.7754  0.4482
19583TIP3    H280165   3.172   4.626   4.845 -1.0945  1.0598  0.0059
19584TIP3   OH280166   2.947   2.524   0.187 -0.0021 -0.6114  0.3097
19584TIP3    H180167   2.864   2.560   0.219  0.5713  1.1267 -0.1470
19584TIP3    H280168   2.991   2.597   0.145  1.6415 -1.6023  0.2615
19585TIP3   OH280169   3.636   2.420   3.692  0.3423  0.3954  0.2813
19585TIP3    H180170   3.566   2.453   3.636 -0.0424 -0.2341  0.3905
19585TIP3    H280171   3.679   2.353   3.638 -0.0188 -0.2007  0.7381
19586TIP3   OH280172   6.392   1.837   1.662 -0.3456  0.0506 -0.2753
19586TIP3    H180173   6.308   1.804   1.693 -0.3545 -0.1398 -0.4942
19586TIP3    H280174   6.454   1.817   1.732 -0.7282  1.3865  0.4488
19587TIP3   OH280175   1.473   1.144   1.713 -0.8291 -0.8686  0.4562
19587TIP3    H180176   1.566   1.166   1.713 -0.6075 -1.7829  0.2648
19587TIP3    H280177   1.434   1.204   1.777  0.0446 -1.1283  1.2438
19588TIP3   OH280178   3.809   2.107  13.779  0.1601  0.2121 -0.2197
19588TIP3    H180179   3.805   2.097  13.874  1.8686  1.0201 -0.0428
19588TIP3    H280180   3.815   2.202  13.765 -3.4749  0.3669 -1.3078
19589TIP3   OH280181   4.299   6.470  15.429 -0.0804 -0.3064 -0.0719
19589TIP3    H180182   4.205   6.478  15.445  0.1944  2.2425  0.4467
19589TIP3    H280183   4.338   6.544  15.475  2.0447 -0.3687 -1.6790
19590TIP3   OH280184   1.798   4.556   2.226 -0.1935  0.0313 -0.3339
19590TIP3    H180185   1.817   4.555   2.319 -0.2491 -0.0477 -0.3232
19590TIP3    H280186   1.874   4.598   2.186 -1.4643  2.8148  0.0571
19591TIP3   OH280187   5.313   6.580  10.812 -0.4651 -0.2267  0.3303
19591TIP3    H180188   5.328   6.589  10.906  2.9016  0.5149 -0.2179
19591TIP3    H280189   5.279   6.666  10.785 -0.1198  0.0128  0.6516
19592TIP3   OH280190   5.762   4.888   3.220 -0.6132  0.3365 -0.3315
19592TIP3    H180191   5.782   4.812   3.275  3.1270  0.6895 -1.1198
19592TIP3    H280192   5.743   4.958   3.282  2.6913  0.4946  0.5747
19593TIP3   OH280193   4.553   2.260  16.671  0.6098  0.5468 -0.3758
19593TIP3    H180194   4.577   2.314  16.595 -2.9549  0.3377 -1.7421
19593TIP3    H280195   4.565   2.170  16.640  1.9445  0.4701  0.3201
19594TIP3   OH280196   0.186   0.093  16.603 -0.3432 -0.3181  0.5839
19594TIP3    H180197   0.180  -0.002  16.591 -0.7619 -0.3858  1.3473
19594TIP3    H280198   0.096   0.124  16.592 -0.2292 -0.0223  0.4882
19595TIP3   OH280199   3.623   1.082   0.562 -0.8705 -0.3722  0.1511
19595TIP3    H180200   3.621   1.102   0.656  0.1234 -1.5201  0.4304
19595TIP3    H280201   3.695   1.135   0.528 -0.5127 -0.8041  0.2390
19596TIP3   OH280202   4.809   1.123   2.663  0.0867 -0.2704  0.1225
19596TIP3    H180203   4.848   1.156   2.582  1.1791 -2.0288 -0.0974
19596TIP3    H280204   4.741   1.062   2.633 -1.2158  0.9573  0.5272
19597TIP3   OH280205   0.019   0.347   1.044 -0.4447 -0.3735 -0.8142
19597TIP3    H180206   0.095   0.378   0.996  0.6728 -2.1978 -0.2690
19597TIP3    H280207  -0.040   0.313   0.977  0.6470 -1.9412 -0.9893
19598TIP3   OH280208   6.150   5.184   0.189 -0.2878 -0.3591  0.1113
19598TIP3    H180209   6.161   5.091   0.173 -0.6355 -0.1635 -1.3319
19598TIP3    H280210   6.059   5.202   0.163  0.0221  0.5254 -0.3906
19599TIP3   OH280211   0.130   4.001   5.185 -0.0902 -0.0633  0.1616
19599TIP3    H180212   0.072   4.077   5.177  0.4624  0.4625  1.1073
19599TIP3    H280213   0.189   4.008   5.109 -0.1025  0.4006  0.1901
19600TIP3   OH280214   0.274   1.164  15.274 -0.8428 -0.7145 -0.2030
19600TIP3    H180215   0.255   1.185  15.182 -0.0613  0.2490 -0.1474
19600TIP3    H280216   0.358   1.205  15.291 -1.3415 -0.2361  1.1819
19601TIP3   OH280217   4.642   5.206   2.933 -0.1325 -0.0658  0.1653
19601TIP3    H180218   4.690   5.123   2.932  1.3526  0.7606  0.8143
19601TIP3    H280219   4.709   5.272   2.954 -0.9743  1.4823 -1.7684
19602TIP3   OH280220   0.876   2.414   2.376  0.2586 -0.4838  0.1110
19602TIP3    H180221   0.945   2.428   2.311 -0.2798  1.3821 -0.0861
19602TIP3    H280222   0.921   2.369   2.448  1.6540  0.5712 -0.0736
19603TIP3   OH280223   4.424   0.992  11.966  0.8713 -0.2404 -0.1956
19603TIP3    H180224   4.340   0.955  11.990  0.7623 -0.8969 -1.5310
19603TIP3    H280225   4.463   1.020  12.049 -0.7180  0.2214  0.4213
19604TIP3   OH280226   4.599   6.233  12.401 -0.3754 -0.6720 -0.0682
19604TIP3    H180227   4.602   6.138  12.398 -0.4879 -0.7195  1.4053
19604TIP3    H280228   4.690   6.260  12.394 -0.4928 -0.8002 -2.7324
19605TIP3   OH280229   2.353   5.156   1.448  0.2775  0.0784 -0.2338
19605TIP3    H180230   2.374   5.198   1.532  1.6762 -2.9477  1.0008
19605TIP3    H280231   2.438   5.146   1.404  0.0426 -1.9065 -0.2593
19606TIP3   OH280232   4.792   6.254   0.104 -0.0242  0.5364  0.1430
19606TIP3    H180233   4.732   6.243   0.177  0.8027 -0.2455  0.7263
19606TIP3    H280234   4.864   6.193   0.123  0.0911  0.1449 -1.4334
19607TIP3   OH280235   0.785   2.697  11.511 -0.8003  0.0879  0.1627
19607TIP3    H180236   0.846   2.630  11.480 -0.9050 -0.4989  1.2024
19607TIP3    H280237   0.841   2.766  11.546 -0.7071  0.3222 -0.4285
19608TIP3   OH280238   2.712   3.364   5.407 -0.5539 -0.2260 -0.0570
19608TIP3    H180239   2.766   3.381   5.485  1.3556 -0.5064 -1.2804
19608TIP3    H280240   2.654   3.440   5.401 -0.5360 -0.0763  1.4784
19609TIP3   OH280241   2.800   1.717   6.027 -1.0415  0.4739  0.0975
19609TIP3    H180242   2.711   1.744   6.007 -1.2702 -0.6520 -0.4817
19609TIP3    H280243   2.792   1.663   6.106 -0.9480 -0.0325 -0.2339
19610TIP3   OH280244   0.428   5.815  13.409  0.1129  0.3115  0.6344
19610TIP3    H180245   0.523   5.812  13.399  0.0577  0.0212  0.1933
19610TIP3    H280246   0.395   5.845  13.325 -0.3065 -1.5968  0.0804
19611TIP3   OH280247   6.568   4.110   1.822 -0.7509  0.5903  0.0605
19611TIP3    H180248   6.549   4.026   1.863 -0.3931  0.5067  0.0508
19611TIP3    H280249   6.643   4.144   1.870  0.2294  0.0905 -1.1020
19612TIP3   OH280250   2.815   0.088   4.833 -0.2444  0.2648 -0.2335
19612TIP3    H180251   2.855   0.010   4.871  0.2172 -1.2998 -3.7011
19612TIP3    H280252   2.724   0.062   4.816 -0.3760  0.8435 -0.4360
19613TIP3   OH280253   3.133   6.686  13.588  0.3678  0.3080 -0.1917
19613TIP3    H180254   3.078   6.753  13.548  0.1863  1.0585  1.2890
19613TIP3    H280255   3.077   6.608  13.592  0.9633 -0.3379 -3.0266
19614TIP3   OH280256   5.491   4.417  12.390 -0.2082 -0.4555  0.3658
19614TIP3    H180257   5.499   4.369  12.472  1.1889 -3.2202 -1.3003
19614TIP3    H280258   5.579   4.450  12.373 -0.3363 -0.4525 -0.3136
19615TIP3   OH280259   3.513   4.466  13.682 -0.0545 -0.0573  0.1576
19615TIP3    H180260   3.568   4.480  13.759  0.6249  0.9021 -0.4825
19615TIP3    H280261   3.478   4.553  13.661  0.8581 -0.0279 -1.3957
19616TIP3   OH280262   0.031   2.694   0.501  0.2356 -0.2179 -0.2039
19616TIP3    H180263   0.034   2.601   0.525  0.2572 -0.8685 -2.4992
19616TIP3    H280264   0.060   2.741   0.579 -0.8442 -2.0785  1.3431
19617TIP3   OH280265   2.470   4.644  15.948  0.2665 -0.4648 -0.2935
19617TIP3    H180266   2.483   4.731  15.911 -0.5748 -0.8708 -1.5799
19617TIP3    H280267   2.551   4.597  15.927 -0.2237 -0.7071 -1.7053
19618TIP3   OH280268   6.696   3.453  12.513  0.0512  0.3444 -0.0731
19618TIP3    H180269   6.653   3.481  12.433 -0.6390  1.5363  0.6942
19618TIP3    H280270   6.786   3.484  12.505 -0.0663  0.6213 -0.3016
19619TIP3   OH280271   0.432   0.593  11.653 -0.0063  0.6168 -0.0671
19619TIP3    H180272   0.517   0.588  11.609 -0.6817  1.5222 -1.5291
19619TIP3    H280273   0.402   0.683  11.637 -0.5533  0.7705  1.7341
19620TIP3   OH280274   6.286   4.986   1.368  0.1101  0.0163  0.0636
19620TIP3    H180275   6.340   4.921   1.322 -0.0035 -0.0330  0.0019
19620TIP3    H280276   6.339   5.065   1.369  0.0833  0.0373 -0.2128
19621TIP3   OH280277   5.458   0.600   4.470  0.4000  0.5341 -0.1149
19621TIP3    H180278   5.474   0.652   4.392  1.0147 -0.6867 -0.8158
19621TIP3    H280279   5.457   0.509   4.439  1.1159  0.0039  1.3547
19622TIP3   OH280280   5.189   3.337  15.863  0.2104 -0.4199  1.2285
19622TIP3    H180281   5.256   3.401  15.887 -0.9960  0.6862  1.7222
19622TIP3    H280282   5.207   3.315  15.772  2.1791 -1.3144  1.8203
19623TIP3   OH280283   0.181   2.315  14.214  0.2379  0.1170 -0.2441
19623TIP3    H180284   0.146   2.306  14.302  0.3790 -1.6687 -0.3566
19623TIP3    H280285   0.132   2.251  14.162  2.2753 -1.0187 -0.8080
19624TIP3   OH280286   1.209   5.732   3.743 -0.5696 -0.1924 -0.3459
19624TIP3    H180287   1.132   5.732   3.799  0.0849  1.5408  0.6044
19624TIP3    H280288   1.179   5.773   3.661 -0.7135  0.2973 -0.0482
19625TIP3   OH280289   5.062   5.677   2.035  0.5007  0.3114 -0.4680
19625TIP3    H180290   5.133   5.682   2.099  0.0809 -0.0558  0.0350
19625TIP3    H280291   5.056   5.584   2.013  0.5947  0.4263 -0.9886
19626TIP3   OH280292   2.826   6.580  15.277 -0.3903 -0.0873  0.1675
19626TIP3    H180293   2.867   6.586  15.191 -0.1531  1.4317  0.3678
19626TIP3    H280294   2.811   6.487  15.290  0.2373 -0.3949 -1.2067
19627TIP3   OH280295   0.648   5.262   3.060  0.7033 -0.0045 -0.6072
19627TIP3    H180296   0.682   5.352   3.051  3.0149 -0.9763 -2.1349
19627TIP3    H280297   0.725   5.209   3.076 -0.1389 -2.1918 -3.3001
19628TIP3   OH280298   6.672   3.529  14.370 -0.3326  0.0526 -0.3976
19628TIP3    H180299   6.593   3.494  14.410  1.0982 -0.8050  1.7662
19628TIP3    H280300   6.734   3.455  14.371  1.4387  1.4969  0.6110
19629TIP3   OH280301   1.997   3.907   0.860 -0.1973  1.1869  0.4132
19629TIP3    H180302   1.923   3.898   0.801 -0.2387  0.8471  0.5164
19629TIP3    H280303   1.969   3.971   0.925 -0.9429 -0.0066  1.2897
19630TIP3   OH280304   3.767   5.765   5.750 -0.2578  0.4337 -0.4409
19630TIP3    H180305   3.731   5.697   5.693 -1.4169 -0.0682  0.8601
19630TIP3    H280306   3.812   5.825   5.690 -1.4819 -0.0565 -1.8913
19631TIP3   OH280307   5.327   3.328   2.908 -0.1424  0.5644 -0.0989
19631TIP3    H180308   5.308   3.276   2.830 -0.2986 -0.4622  0.6239
19631TIP3    H280309   5.397   3.387   2.881  0.9080 -0.8792 -0.5469
19632TIP3   OH280310   3.601   3.654   4.023  0.0849  0.1138 -0.0401
19632TIP3    H180311   3.551   3.578   4.054  0.9459 -0.6058 -0.4004
19632TIP3    H280312   3.563   3.675   3.938  0.8481 -0.8665 -0.6297
19633TIP3   OH280313   2.753   1.583   3.767  0.5364  0.2175 -0.4968
19633TIP3    H180314   2.727   1.514   3.707 -0.1128 -1.3596  1.5659
19633TIP3    H280315   2.787   1.653   3.710 -0.8554 -0.8787 -2.7177
19634TIP3   OH280316   0.791   4.538   0.882  0.3280  0.5234  0.9595
19634TIP3    H180317   0.743   4.472   0.831  0.1234  0.8858  0.6855
19634TIP3    H280318   0.880   4.535   0.847  0.2458  0.6058  0.7434
19635TIP3   OH280319   5.548   6.609   3.386 -0.6094  0.0627  0.3436
19635TIP3    H180320   5.613   6.589   3.319 -0.7684 -1.0408  0.5084
19635TIP3    H280321   5.502   6.686   3.353  2.8395  2.8363  1.6704
19636TIP3   OH280322   4.171   4.102  15.864 -0.8417  0.9000 -0.3818
19636TIP3    H180323   4.141   4.018  15.828  0.1142  0.8245 -1.0148
19636TIP3    H280324   4.104   4.126  15.928 -0.1347 -1.3481  1.2952
19637TIP3   OH280325   6.274   6.120   3.736 -0.2431  0.1339 -0.9837
19637TIP3    H180326   6.237   6.189   3.682  0.6179 -0.3173 -2.1896
19637TIP3    H280327   6.354   6.158   3.773  1.2175 -0.7592 -3.1087
19638TIP3   OH280328   5.114   3.978  12.641 -0.2776 -0.4478 -0.0556
19638TIP3    H180329   5.195   3.944  12.602  0.0361 -2.0937  1.9163
19638TIP3    H280330   5.050   3.908  12.625 -1.0575  0.4038 -0.6955
19639TIP3   OH280331   0.340   0.432   4.813  0.8766  1.2330 -0.4798
19639TIP3    H180332   0.267   0.387   4.771  1.7398  0.1696 -0.8451
19639TIP3    H280333   0.368   0.374   4.883 -0.1246  2.7036  1.1809
19640TIP3   OH280334   4.053   1.472  15.517 -1.3695 -0.2869 -0.1802
19640TIP3    H180335   4.033   1.418  15.593 -1.0086 -0.3310 -0.1152
19640TIP3    H280336   4.135   1.437  15.483 -0.7457  0.6759  0.2925
19641TIP3   OH280337   1.302   2.877   3.054 -0.5368  0.1058  0.2448
19641TIP3    H180338   1.232   2.814   3.038 -1.6948  1.5238 -0.4422
19641TIP3    H280339   1.374   2.848   2.998 -1.3313 -0.1960 -0.6371
19642TIP3   OH280340   6.637   4.346   0.366  0.0191  0.2664  0.3603
19642TIP3    H180341   6.576   4.419   0.375  0.0029  0.2582  0.3175
19642TIP3    H280342   6.589   4.281   0.314 -0.5296 -0.4141  1.6804
19643TIP3   OH280343   0.776   3.964   0.991  0.2579  0.2552  0.4677
19643TIP3    H180344   0.828   3.974   1.070 -2.5068 -0.7589  2.4734
19643TIP3    H280345   0.735   3.878   0.998 -2.0315  1.1705 -0.7957
19644TIP3   OH280346   5.171   5.628   4.277 -0.3918 -0.3101  0.4275
19644TIP3    H180347   5.239   5.568   4.306  0.2320  0.2818  0.2077
19644TIP3    H280348   5.183   5.706   4.331 -1.7696 -0.7015  1.3454
19645TIP3   OH280349   1.523   6.437   2.213 -0.0344  0.1907  0.2141
19645TIP3    H180350   1.500   6.398   2.298  0.5595 -0.5075  0.0572
19645TIP3    H280351   1.440   6.471   2.179 -0.2109  0.8539  1.2587
19646TIP3   OH280352   5.341   5.405  15.125  0.2153  0.1078 -0.0090
19646TIP3    H180353   5.433   5.390  15.101  0.4954 -0.0575  1.1521
19646TIP3    H280354   5.305   5.317  15.137  0.0140  0.1878 -0.0274
19647TIP3   OH280355   6.213   1.201  11.532  0.3113  0.5256 -0.1836
19647TIP3    H180356   6.190   1.263  11.601 -0.5713 -1.1090  1.0146
19647TIP3    H280357   6.163   1.232  11.456 -1.4911  0.2900  0.8707
19648TIP3   OH280358   3.154   3.499  13.583  0.2339  0.1595  0.3536
19648TIP3    H180359   3.126   3.565  13.519  1.7840  1.0632  0.5882
19648TIP3    H280360   3.181   3.550  13.660  1.7765 -0.7169  0.4065
19649TIP3   OH280361   4.061   6.457   6.244  0.1639 -0.0244 -0.0584
19649TIP3    H180362   3.975   6.426   6.272  1.5354 -1.2403  2.9917
19649TIP3    H280363   4.047   6.550   6.226 -1.7173 -0.1293  0.6856
19650TIP3   OH280364   3.729   0.798  11.968  0.3507  0.2221 -0.3450
19650TIP3    H180365   3.722   0.801  12.063  3.4759  0.3176 -0.0560
19650TIP3    H280366   3.686   0.878  11.938  0.2624  0.7111  1.0711
19651TIP3   OH280367   4.201   5.247  11.468  0.6538  0.6145  0.3300
19651TIP3    H180368   4.218   5.194  11.390  1.1683  1.7907 -0.3706
19651TIP3    H280369   4.253   5.326  11.455  1.1500  0.6105  2.1151
19652TIP3   OH280370   3.236   5.335  11.639  0.0375 -0.6188  0.0604
19652TIP3    H180371   3.272   5.392  11.571  0.4748  0.3522  1.0918
19652TIP3    H280372   3.147   5.316  11.610  0.4598 -0.7941 -1.1351
19653TIP3   OH280373   5.974   3.034   3.751  0.0876 -0.4132  0.0137
19653TIP3    H180374   5.991   2.986   3.833 -1.6947  0.9275  1.1849
19653TIP3    H280375   5.889   3.002   3.722 -0.3310  0.7980 -0.1011
19654TIP3   OH280376   0.101   2.135  14.425 -0.5886 -0.0468 -0.4458
19654TIP3    H180377   0.046   2.057  14.434 -1.4843  0.4713 -1.3884
19654TIP3    H280378   0.191   2.102  14.429 -0.9589 -0.9219  0.9456
19655TIP3   OH280379   2.709   5.917  14.805  0.3448  0.7810 -0.4214
19655TIP3    H180380   2.682   6.003  14.836  0.5229  0.6567  0.0945
19655TIP3    H280381   2.775   5.888  14.869 -1.2397 -0.6416  0.6080
19656TIP3   OH280382   3.363   6.448  11.166  0.8925  0.6246 -0.4076
19656TIP3    H180383   3.418   6.406  11.099  1.5816  0.4866  0.2461
19656TIP3    H280384   3.349   6.537  11.133  2.4330  1.0124 -0.0315
19657TIP3   OH280385   0.194   2.330  15.261 -0.4560  0.8026  0.6105
19657TIP3    H180386   0.145   2.284  15.329 -0.7232  0.4528  0.1803
19657TIP3    H280387   0.241   2.261  15.213  1.5344  1.2495  1.8664
19658TIP3   OH280388   3.524   3.800  12.844  0.1912  0.4238  0.3802
19658TIP3    H180389   3.439   3.829  12.877 -0.0845  0.7588 -0.5919
19658TIP3    H280390   3.502   3.737  12.775  0.7673 -0.9671  1.4494
19659TIP3   OH280391   3.281   6.736  14.620 -0.0216  0.0923 -0.9487
19659TIP3    H180392   3.305   6.718  14.529  0.3042  1.8053 -1.2117
19659TIP3    H280393   3.350   6.794  14.652 -1.2356  1.1534 -0.2350
19660TIP3   OH280394   3.834   6.388  14.311  0.1139 -0.1519  0.0630
19660TIP3    H180395   3.880   6.427  14.236 -1.1608  2.8193  0.7292
19660TIP3    H280396   3.766   6.333  14.273  0.1712  0.4792 -0.9612
19661TIP3   OH280397   6.659   0.017   3.892  0.2857  0.1319  0.6295
19661TIP3    H180398   6.670  -0.022   3.979 -1.3769 -2.9863 -0.4932
19661TIP3    H280399   6.696  -0.047   3.832  0.4880  1.7913 -1.0532
19662TIP3   OH280400   4.816   1.522  16.598  0.3146 -0.1923  0.7019
19662TIP3    H180401   4.835   1.597  16.542 -2.5062 -1.6108 -2.3259
19662TIP3    H280402   4.740   1.549  16.649 -0.6718 -0.9024 -0.3545
19663TIP3   OH280403   1.590   4.723   2.745  0.3400  0.3724 -0.1133
19663TIP3    H180404   1.639   4.653   2.702 -0.1557  0.3489 -0.6420
19663TIP3    H280405   1.657   4.786   2.772  0.6302  0.4951 -1.1223
19664TIP3   OH280406   0.598   3.462   5.016 -0.1129  0.3463  0.4183
19664TIP3    H180407   0.527   3.418   4.969  1.0959 -1.1293 -0.0779
19664TIP3    H280408   0.654   3.496   4.947  0.1416  0.7157  0.8079
19665TIP3   OH280409   0.535   3.801   2.187  0.5378 -0.4440 -0.2321
19665TIP3    H180410   0.443   3.806   2.214  0.6238  0.0985 -0.0516
19665TIP3    H280411   0.563   3.713   2.215  0.2540 -0.3749  0.2758
19666TIP3   OH280412   0.720   2.209  17.209  0.3571 -0.1830 -0.1497
19666TIP3    H180413   0.679   2.256  17.136 -0.0874 -0.8254 -0.3134
19666TIP3    H280414   0.708   2.117  17.188  1.5271 -0.3773  0.0085
19667TIP3   OH280415   5.003   1.523  14.490  0.1639 -0.2123  0.7120
19667TIP3    H180416   5.077   1.582  14.476  1.2330 -1.7926 -0.5796
19667TIP3    H280417   4.944   1.570  14.549  0.9543  2.1371 -0.3341
19668TIP3   OH280418   1.573   4.495  11.909  0.1048 -0.5211  0.2444
19668TIP3    H180419   1.531   4.472  11.826  1.6461 -3.3451  0.2061
19668TIP3    H280420   1.664   4.513  11.887 -0.2057  2.1608  0.8680
19669TIP3   OH280421   5.029   4.470  12.523 -0.3517 -0.2236  0.7286
19669TIP3    H180422   5.086   4.412  12.571  1.0524 -0.2217 -0.8877
19669TIP3    H280423   5.032   4.439  12.433 -0.6694  1.4912  0.0904
19670TIP3   OH280424   2.048   0.835  13.659  0.0441  0.4883  0.2479
19670TIP3    H180425   1.978   0.898  13.641  0.2241  1.0836  1.5774
19670TIP3    H280426   2.002   0.756  13.688 -0.1218  0.5277  0.0951
19671TIP3   OH280427   2.353   5.632  15.060  0.0818 -0.1095 -0.2389
19671TIP3    H180428   2.266   5.605  15.088  1.0894 -0.5358  2.7072
19671TIP3    H280429   2.384   5.560  15.005 -2.2142  1.0405 -3.2032
19672TIP3   OH280430   1.083   1.115   6.207  0.6923 -0.6296  0.1384
19672TIP3    H180431   1.003   1.167   6.198  0.6098 -0.3552  2.3971
19672TIP3    H280432   1.152   1.179   6.222  1.4629 -0.8277 -2.2938
19673TIP3   OH280433   0.438   2.644  14.734 -0.3845 -0.4963  0.4071
19673TIP3    H180434   0.346   2.622  14.742 -1.1632  2.0678 -0.8909
19673TIP3    H280435   0.460   2.686  14.817 -1.1525  1.3230 -0.2703
19674TIP3   OH280436   6.205   2.691   4.884 -0.0322 -0.3009  0.0697
19674TIP3    H180437   6.282   2.667   4.935 -0.1740  1.4634  1.1657
19674TIP3    H280438   6.135   2.699   4.949 -0.1612  2.2077 -0.3090
19675TIP3   OH280439   0.531   0.366  13.069  0.2404 -0.6148 -0.4043
19675TIP3    H180440   0.595   0.309  13.111  1.2387  0.9027  0.2038
19675TIP3    H280441   0.560   0.372  12.978  0.5553 -0.4983 -0.2976
19676TIP3   OH280442   2.644   1.685   6.309 -0.0213 -0.0456  0.0847
19676TIP3    H180443   2.692   1.716   6.385  0.7676  2.5880 -1.4374
19676TIP3    H280444   2.686   1.603   6.285  0.3749 -0.3663  1.8625
19677TIP3   OH280445   1.548   5.347  13.994  0.7533  0.1176  0.0173
19677TIP3    H180446   1.545   5.369  14.087 -0.9629  2.2692 -0.5133
19677TIP3    H280447   1.520   5.427  13.949  0.6395 -1.1813 -2.3119
19678TIP3   OH280448   2.196   6.293  14.390 -0.0994  0.7821  0.0730
19678TIP3    H180449   2.228   6.225  14.448 -0.0479 -0.6477 -1.5698
19678TIP3    H280450   2.229   6.268  14.303 -2.4653  1.3143 -1.0426
19679TIP3   OH280451   2.952   1.486  15.059  0.1716 -0.1038 -0.0252
19679TIP3    H180452   3.045   1.507  15.064  0.1075  0.2250 -0.1819
19679TIP3    H280453   2.948   1.391  15.066  0.7557 -0.4530 -3.6196
19680TIP3   OH280454   5.059   5.002  14.281 -0.4950 -0.3246  0.0087
19680TIP3    H180455   5.153   4.989  14.272 -0.4077 -0.0769  0.5281
19680TIP3    H280456   5.038   4.966  14.368 -1.0333 -1.2392 -0.4941
19681TIP3   OH280457   3.409   2.565   3.558  0.1144 -0.1078 -0.2955
19681TIP3    H180458   3.399   2.627   3.486 -0.3381 -0.8273 -0.8644
19681TIP3    H280459   3.352   2.599   3.627  0.2404  0.3665 -0.4257
19682TIP3   OH280460   3.449   5.601   3.136 -0.5135  0.1170  0.1583
19682TIP3    H180461   3.371   5.563   3.096 -0.2860 -0.0914 -0.0945
19682TIP3    H280462   3.429   5.694   3.145 -0.7471  0.0826 -0.0116
19683TIP3   OH280463   3.218   5.276   2.837 -0.4468  0.4191 -0.0292
19683TIP3    H180464   3.307   5.257   2.808 -0.7091 -0.7602 -0.1092
19683TIP3    H280465   3.201   5.213   2.907 -1.6092 -0.1652 -0.8023
19684TIP3   OH280466   6.384   1.445   5.680 -0.4494  0.1759  0.1298
19684TIP3    H180467   6.315   1.404   5.628 -0.4660 -1.6084  1.4923
19684TIP3    H280468   6.353   1.437   5.770  2.0599 -1.7524  0.8600
19685TIP3   OH280469   1.546   3.147   2.506 -0.0638 -0.5725  0.1569
19685TIP3    H180470   1.628   3.193   2.491 -0.4875  1.2467  3.0141
19685TIP3    H280471   1.513   3.183   2.588 -3.2701 -1.9093 -0.4557
19686TIP3   OH280472   3.356   4.559   4.604 -0.0259 -0.5531  0.0378
19686TIP3    H180473   3.430   4.613   4.576  0.2423 -1.4330 -1.0141
19686TIP3    H280474   3.354   4.488   4.540 -1.5128 -0.7780  0.3286
19687TIP3   OH280475   3.189   4.569  12.245 -0.2149 -0.0176 -0.4718
19687TIP3    H180476   3.215   4.654  12.280  0.1946 -0.5442  0.5301
19687TIP3    H280477   3.121   4.538  12.306  0.3686 -0.8605 -0.2365
19688TIP3   OH280478   3.160   1.988  14.247  0.1701  0.1324  0.1500
19688TIP3    H180479   3.114   2.069  14.266  1.5265  0.9282  0.1160
19688TIP3    H280480   3.126   1.959  14.162  0.0996  0.9687 -0.1065
19689TIP3   OH280481   4.592   5.918  15.957  0.1107  0.0340 -0.1257
19689TIP3    H180482   4.597   5.948  16.047  0.6298 -1.3626  0.3324
19689TIP3    H280483   4.658   5.970  15.910 -0.0586  0.6563  0.3237
19690TIP3   OH280484   5.261   0.991   3.213  0.0461 -0.4172  0.1411
19690TIP3    H180485   5.239   0.916   3.269  0.0663 -1.7579 -1.6310
19690TIP3    H280486   5.265   1.065   3.274 -0.6298 -1.7222  1.8173
19691TIP3   OH280487   2.912   2.458  15.360 -0.1589  0.2853 -0.0427
19691TIP3    H180488   2.938   2.443  15.269 -0.5851  1.5565 -0.3843
19691TIP3    H280489   2.905   2.370  15.397  0.2953 -0.2411 -1.1531
19692TIP3   OH280490   0.424   1.170   4.149  0.2102 -0.2979  0.4938
19692TIP3    H180491   0.458   1.248   4.106 -1.0801 -0.4132 -0.7553
19692TIP3    H280492   0.376   1.205   4.225 -0.5732  0.1634 -0.1947
19693TIP3   OH280493   5.698   1.621  12.611 -0.1443  0.4194 -0.3859
19693TIP3    H180494   5.675   1.683  12.542  0.5911 -2.1782 -3.0495
19693TIP3    H280495   5.793   1.633  12.622 -0.2467  0.7698  0.1223
19694TIP3   OH280496   5.872   0.798  16.688  0.3183  0.5991 -0.3834
19694TIP3    H180497   5.892   0.883  16.727  1.5566  0.0104  0.2737
19694TIP3    H280498   5.782   0.808  16.656 -0.7457  1.1154  2.5630
19695TIP3   OH280499   5.797   4.795  15.731  0.4651 -0.0225 -0.1874
19695TIP3    H180500   5.801   4.778  15.825 -1.1781  3.0832  0.5160
19695TIP3    H280501   5.832   4.884  15.722 -0.0470 -0.0354 -2.4323
19696TIP3   OH280502   5.267   3.691   5.308 -0.4575 -0.2785  0.2894
19696TIP3    H180503   5.223   3.773   5.287 -0.7468 -0.5225 -0.0587
19696TIP3    H280504   5.354   3.718   5.336 -1.5667  0.3927  3.2709
19697TIP3   OH280505   5.250   6.772  14.554  0.2117  0.4144  0.0361
19697TIP3    H180506   5.234   6.840  14.619 -3.4308 -0.6168  0.3317
19697TIP3    H280507   5.303   6.707  14.601  1.4791  1.7799  0.5394
19698TIP3   OH280508   5.905   2.947  14.998 -0.3616  0.3437 -0.0155
19698TIP3    H180509   5.861   2.967  15.081 -1.0883 -1.0950 -0.0363
19698TIP3    H280510   5.833   2.940  14.934 -0.0198 -0.8167 -0.2918
19699TIP3   OH280511   0.516   3.258  11.862 -0.0776  0.5048 -0.5305
19699TIP3    H180512   0.504   3.163  11.856 -1.6100  0.6068  0.6425
19699TIP3    H280513   0.610   3.271  11.859  0.1013 -0.9648 -1.9694
19700TIP3   OH280514   6.669   5.996   1.502  0.1582 -0.2269 -0.2516
19700TIP3    H180515   6.603   5.955   1.446  0.5301  0.1341 -0.9553
19700TIP3    H280516   6.713   5.923   1.545 -0.5107 -0.4827  0.0126
19701TIP3   OH280517   2.566   2.313  11.978 -0.3211  0.3290 -0.5572
19701TIP3    H180518   2.642   2.350  12.023 -2.4333  1.1104  2.5489
19701TIP3    H280519   2.532   2.386  11.926 -0.8862  0.9868  0.7108
19702TIP3   OH280520   0.669   4.924   2.210 -0.9463 -0.1353 -0.2853
19702TIP3    H180521   0.680   4.855   2.144  0.6580 -1.3621  1.1900
19702TIP3    H280522   0.656   4.876   2.292  0.7450  1.2858  0.8598
19703TIP3   OH280523   6.679   0.946   3.435 -0.3092 -0.6428 -0.0201
19703TIP3    H180524   6.770   0.974   3.440 -0.3835 -0.2632 -0.7656
19703TIP3    H280525   6.665   0.894   3.514  0.3920 -0.2261  0.3761
19704TIP3   OH280526   3.266   3.726   0.457  0.5070 -0.1456  0.1651
19704TIP3    H180527   3.173   3.746   0.446  0.8614  1.2193 -0.3708
19704TIP3    H280528   3.282   3.737   0.551  0.5389  1.4543 -0.0133
19705TIP3   OH280529   2.080   2.290   5.842  0.4350  0.6836  0.2394
19705TIP3    H180530   2.153   2.350   5.859  0.8430  0.2966 -0.1134
19705TIP3    H280531   2.052   2.260   5.928  0.9194  0.5759  0.3622
19706TIP3   OH280532   2.181   1.424  16.247  0.3476 -0.5285 -0.1157
19706TIP3    H180533   2.211   1.335  16.265  0.2266 -0.5550 -0.0420
19706TIP3    H280534   2.103   1.413  16.194 -0.7213 -0.5177  1.4150
19707TIP3   OH280535   3.199   3.543  16.362 -0.1045 -0.0929 -0.0698
19707TIP3    H180536   3.207   3.468  16.421 -1.0282 -0.6862 -0.6757
19707TIP3    H280537   3.118   3.526  16.313 -0.1305  1.1201 -0.4689
19708TIP3   OH280538   4.010   6.435   4.774 -0.4705 -0.3508  0.2834
19708TIP3    H180539   4.051   6.510   4.816  1.3417 -0.8911 -0.4604
19708TIP3    H280540   4.002   6.369   4.843  0.5237 -0.4656  0.2998
19709TIP3   OH280541   3.122   6.735   6.658  0.5958 -0.3616  0.4063
19709TIP3    H180542   3.058   6.802   6.636  2.1451  1.1982  0.5621
19709TIP3    H280543   3.206   6.780   6.656  1.5580 -2.0360  1.6743
19710TIP3   OH280544   0.855   3.458   2.411  0.4033 -0.0852 -0.0531
19710TIP3    H180545   0.826   3.549   2.405  0.6774 -0.0278 -0.4980
19710TIP3    H280546   0.858   3.441   2.506 -0.4363  0.1097  0.0138
19711TIP3   OH280547   4.015   4.179  14.408  0.2127 -0.4404 -0.2709
19711TIP3    H180548   3.974   4.198  14.324 -1.2368 -1.1861  0.2368
19711TIP3    H280549   3.950   4.126  14.455  1.1998 -0.4631  1.1165
19712TIP3   OH280550   5.026   3.411  11.547  0.1460  0.2909  0.1137
19712TIP3    H180551   4.958   3.359  11.505  0.2333 -0.5696  1.0325
19712TIP3    H280552   5.079   3.348  11.595 -0.4925  1.3489  2.3005
19713TIP3   OH280553   2.148   1.860   0.745  0.3541  0.4704 -0.0694
19713TIP3    H180554   2.135   1.822   0.658  1.3768 -2.4546  1.0092
19713TIP3    H280555   2.073   1.830   0.796  0.5713  0.8821  0.5052
19714TIP3   OH280556   5.813   6.068  15.951  0.1171 -0.4717 -0.5260
19714TIP3    H180557   5.778   6.123  15.881  0.8055  1.0638  0.2946
19714TIP3    H280558   5.874   6.009  15.908 -0.9830 -0.9270 -1.4905
19715TIP3   OH280559   0.739   4.470  12.418  0.0262 -0.2665  0.1112
19715TIP3    H180560   0.678   4.460  12.491  0.7060  0.1453  0.7383
19715TIP3    H280561   0.781   4.385  12.410  0.3039 -0.1699  0.5201
19716TIP3   OH280562   6.139   4.202  16.542 -0.5209  0.3127  0.5134
19716TIP3    H180563   6.150   4.270  16.476 -0.3090  0.2713  0.5046
19716TIP3    H280564   6.155   4.246  16.625 -0.1498  0.2233  0.4911
19717TIP3   OH280565   1.597   6.614  10.679  0.1995 -0.0695  0.7421
19717TIP3    H180566   1.672   6.555  10.683  0.4025  0.1666  0.4413
19717TIP3    H280567   1.635   6.701  10.681  0.0004  0.0523 -0.5421
19718TIP3   OH280568   1.425   5.465   1.079 -0.0907 -0.7113 -0.5551
19718TIP3    H180569   1.405   5.415   0.999 -0.0415  0.2845 -1.1962
19718TIP3    H280570   1.520   5.476   1.078 -0.1092 -0.5401 -0.4487
19719TIP3   OH280571   1.764   5.595  12.500  0.1562 -0.1127 -0.1242
19719TIP3    H180572   1.786   5.615  12.591 -2.2928 -0.8036  0.6733
19719TIP3    H280573   1.701   5.523  12.506  1.6816 -1.7160 -2.4885
19720TIP3   OH280574   0.813   5.375  16.029 -0.7932 -0.2924 -0.3774
19720TIP3    H180575   0.882   5.428  16.070 -1.6802  0.0357  0.6937
19720TIP3    H280576   0.846   5.358  15.941  2.1002 -2.7628  1.0717
19721TIP3   OH280577   2.894   2.948   0.679  0.2265  0.4002  0.2321
19721TIP3    H180578   2.967   2.947   0.741 -0.2146  0.7008  0.7705
19721TIP3    H280579   2.853   2.862   0.689 -1.6139  1.4792  2.5370
19722TIP3   OH280580   4.458   1.865   3.986  0.3486  0.7028 -0.8782
19722TIP3    H180581   4.482   1.772   3.988 -1.0739  0.3036 -1.7067
19722TIP3    H280582   4.527   1.906   3.933  0.4228 -0.0570 -1.3794
19723TIP3   OH280583   1.277   3.960   1.876  0.1021 -0.2475 -0.1090
19723TIP3    H180584   1.232   4.045   1.868  0.6429  0.0414 -0.1196
19723TIP3    H280585   1.208   3.899   1.899 -0.2562  0.2434  0.1349
19724TIP3   OH280586   2.691   2.128   1.689 -0.3782  0.3566  0.1362
19724TIP3    H180587   2.633   2.203   1.673 -0.4440  0.4996  1.0194
19724TIP3    H280588   2.766   2.144   1.632 -0.3948  1.0969  0.3171
19725TIP3   OH280589   1.975   5.382   5.460  0.2413  0.3367 -0.7245
19725TIP3    H180590   1.960   5.342   5.375 -0.7584  1.6188 -1.1594
19725TIP3    H280591   1.900   5.357   5.513  0.2957  0.4946 -0.5709
19726TIP3   OH280592   3.813   0.117  12.588  0.0549  0.0782  0.1291
19726TIP3    H180593   3.858   0.201  12.604  1.6542 -0.8404  0.5944
19726TIP3    H280594   3.739   0.118  12.647  2.0683 -0.3425  2.7397
19727TIP3   OH280595   5.228   5.187  11.687 -0.5062  0.6166  0.8715
19727TIP3    H180596   5.171   5.167  11.762  0.2865 -1.1004  1.0631
19727TIP3    H280597   5.230   5.282  11.682 -2.3914  0.7074  1.6334
19728TIP3   OH280598   5.178   3.444  16.888 -0.2338 -0.1021 -0.5846
19728TIP3    H180599   5.083   3.452  16.893 -0.1752 -0.0151  0.5276
19728TIP3    H280600   5.209   3.533  16.871 -0.2848  0.0699  0.2112
19729TIP3   OH280601   1.425   6.052   3.765 -0.2895 -0.3862  0.4871
19729TIP3    H180602   1.375   6.106   3.826 -1.3550  0.3838 -1.0344
19729TIP3    H280603   1.459   5.980   3.819 -1.4774  0.0907  1.9087
19730TIP3   OH280604   5.371   1.073   2.027  0.7796  0.1112 -0.1741
19730TIP3    H180605   5.461   1.094   2.002  0.2943  2.2723 -0.1851
19730TIP3    H280606   5.376   0.983   2.060  2.9175  0.1554 -0.2922
19731TIP3   OH280607   3.830   1.932  17.122  0.2091  0.2439 -0.1858
19731TIP3    H180608   3.855   2.007  17.176 -0.7280  0.4473 -0.0361
19731TIP3    H280609   3.840   1.963  17.032 -0.7305  0.7400 -0.1252
19732TIP3   OH280610   0.988   6.243   0.737 -0.1444  0.6109 -0.5419
19732TIP3    H180611   1.017   6.317   0.790 -0.9876  0.1082  0.6270
19732TIP3    H280612   1.000   6.273   0.646  2.5981  0.9726 -0.1123
19733TIP3   OH280613   6.530   1.431   5.234 -0.4632  0.0029  0.2582
19733TIP3    H180614   6.539   1.418   5.140  0.5846 -1.4062  0.5348
19733TIP3    H280615   6.488   1.351   5.266 -0.2260  0.1904  1.0600
19734TIP3   OH280616   0.263   6.104   2.267 -0.8485 -0.5497 -0.1956
19734TIP3    H180617   0.350   6.130   2.236 -1.3070 -1.6640 -2.4755
19734TIP3    H280618   0.263   6.009   2.262 -1.9416 -0.5961  0.5573
19735TIP3   OH280619   3.321   0.706   4.290 -0.2820  0.2959  0.2944
19735TIP3    H180620   3.238   0.713   4.243 -0.2708 -1.5103 -0.0268
19735TIP3    H280621   3.379   0.767   4.246 -0.8689  0.1015 -0.7539
19736TIP3   OH280622   3.543   1.478  16.892 -0.2140  0.2120 -0.7439
19736TIP3    H180623   3.564   1.466  16.799 -0.1319 -0.2095 -0.6694
19736TIP3    H280624   3.462   1.430  16.905 -0.8013  1.1601 -0.8412
19737TIP3   OH280625   5.856   0.668   3.215 -0.1845  0.0922 -0.0614
19737TIP3    H180626   5.821   0.611   3.283  0.4264 -4.2999 -3.2127
19737TIP3    H280627   5.947   0.640   3.204  0.8446  3.3015 -0.1269
19738TIP3   OH280628   0.611   1.162   1.402 -0.0471 -0.3030  0.7657
19738TIP3    H180629   0.649   1.080   1.372  0.9818  0.6884 -0.7263
19738TIP3    H280630   0.668   1.230   1.365 -0.8247  1.0800  2.0385
19739TIP3   OH280631   3.340   1.528  10.839 -0.0928 -0.3943 -0.0718
19739TIP3    H180632   3.301   1.442  10.821  1.1932 -1.1963  0.8278
19739TIP3    H280633   3.336   1.574  10.755 -2.2091 -0.7454 -0.1831
19740TIP3   OH280634   1.175   4.982  16.644 -0.0708 -0.4890 -0.2219
19740TIP3    H180635   1.093   4.965  16.691  1.6896 -1.4798  2.6041
19740TIP3    H280636   1.198   4.898  16.605 -0.2138 -0.2823 -0.7628
19741TIP3   OH280637   5.508   3.508   2.796 -0.1932 -0.1910  0.3234
19741TIP3    H180638   5.532   3.601   2.802  1.2045 -0.5591  0.6677
19741TIP3    H280639   5.510   3.489   2.702  1.7923 -0.4399  0.4051
19742TIP3   OH280640   0.763   2.583  13.847  0.3381 -0.0138  0.1147
19742TIP3    H180641   0.776   2.647  13.918  0.6343 -1.3023  1.2346
19742TIP3    H280642   0.834   2.520  13.859  0.2976 -0.3203 -1.2545
19743TIP3   OH280643   2.043   6.047   2.519 -0.1908 -0.0680 -0.7119
19743TIP3    H180644   2.118   6.078   2.570  0.3385  1.8017 -2.5636
19743TIP3    H280645   2.013   6.124   2.470 -2.2549 -1.2049 -1.3292
19744TIP3   OH280646   3.556   0.211  14.235 -0.1121 -0.9418 -0.2083
19744TIP3    H180647   3.518   0.299  14.239  2.3020  0.0645  2.0990
19744TIP3    H280648   3.564   0.192  14.142 -1.7099  0.7933 -0.7385
19745TIP3   OH280649   0.660   0.309   6.112 -0.2391 -0.3637  0.5528
19745TIP3    H180650   0.755   0.310   6.126 -0.2084 -1.0311  0.4175
19745TIP3    H280651   0.630   0.392   6.148  0.4930  0.1847 -0.0887
19746TIP3   OH280652   5.129   1.254   5.401 -0.1922  0.2559  0.7695
19746TIP3    H180653   5.201   1.309   5.433  0.6211 -0.6104  0.4450
19746TIP3    H280654   5.060   1.264   5.466 -0.6194  2.8160  0.0118
19747TIP3   OH280655   6.460   1.212   5.396 -0.2517 -0.0452  0.5530
19747TIP3    H180656   6.387   1.218   5.458 -0.1286 -2.6451  0.9713
19747TIP3    H280657   6.520   1.149   5.434  1.9313  1.5421 -0.1353
19748TIP3   OH280658   5.876   5.965  12.644  0.5368  0.5033 -0.2938
19748TIP3    H180659   5.834   5.985  12.728 -0.8242 -0.5606 -0.7120
19748TIP3    H280660   5.878   6.048  12.597 -1.1208  0.5697 -0.2723
19749TIP3   OH280661   1.290   1.378   6.829  0.0450 -0.1701  0.7223
19749TIP3    H180662   1.296   1.407   6.738  0.0298 -1.5699  0.2622
19749TIP3    H280663   1.375   1.402   6.867  0.4486 -0.5094  0.0510
19750TIP3   OH280664   6.244   3.079  12.217  0.0183  0.0612  0.6434
19750TIP3    H180665   6.164   3.031  12.198 -0.1104 -0.2474  1.8875
19750TIP3    H280666   6.226   3.168  12.190 -0.4767 -0.1670  0.2119
19751TIP3   OH280667   2.210   4.940  11.274 -0.0690  0.0402  0.3937
19751TIP3    H180668   2.286   4.882  11.284 -0.3143 -0.1339  1.2616
19751TIP3    H280669   2.216   4.972  11.184 -0.0570 -1.5214 -0.1814
19752TIP3   OH280670   6.369   0.319  15.261  0.8859  0.0432 -0.0550
19752TIP3    H180671   6.294   0.373  15.287 -0.5635 -1.9495 -0.0234
19752TIP3    H280672   6.346   0.286  15.175  1.0146 -1.8337  0.6040
19753TIP3   OH280673   0.860   2.548  14.242  0.1166  0.3811  0.0983
19753TIP3    H180674   0.953   2.534  14.227  0.4920  0.2045  2.3842
19753TIP3    H280675   0.829   2.465  14.278 -1.0329  0.2920 -1.0572
19754TIP3   OH280676   1.762   2.628   3.686  0.5867 -0.0917  0.3511
19754TIP3    H180677   1.778   2.719   3.711 -0.1719  0.5359 -1.3376
19754TIP3    H280678   1.849   2.590   3.675  0.9154  0.7408  0.0301
19755TIP3   OH280679   5.454   3.771   0.731 -0.8149 -0.8596  0.1010
19755TIP3    H180680   5.468   3.676   0.730 -0.1392 -0.7771  1.3961
19755TIP3    H280681   5.360   3.781   0.747 -0.9656 -1.3080 -0.4704
19756TIP3   OH280682   4.508   6.216  15.507 -0.0662  0.2471  0.6167
19756TIP3    H180683   4.420   6.216  15.545 -0.2852  2.3450  0.2015
19756TIP3    H280684   4.556   6.282  15.557  1.3271 -0.9756  0.9272
19757TIP3   OH280685   4.069   3.171  14.644 -0.3572  0.1378 -0.6416
19757TIP3    H180686   4.164   3.170  14.639 -0.3973  1.5343 -2.2401
19757TIP3    H280687   4.044   3.079  14.654  1.2010 -0.1196  1.1984
19758TIP3   OH280688   3.664   5.843  14.550  0.1699  0.2437 -0.3104
19758TIP3    H180689   3.704   5.760  14.575  1.5539  0.1939 -2.4835
19758TIP3    H280690   3.590   5.853  14.609  0.7002 -1.9348  0.7904
19759TIP3   OH280691   0.617   0.652  15.202  1.1986  0.5161 -0.3516
19759TIP3    H180692   0.527   0.654  15.167  1.3559  1.3818 -0.7292
19759TIP3    H280693   0.626   0.565  15.240 -0.0876  0.7104  0.4429
19760TIP3   OH280694   1.289   6.251   1.252 -0.1963  0.0126  0.1733
19760TIP3    H180695   1.208   6.277   1.296 -1.7375 -2.0974 -1.2681
19760TIP3    H280696   1.261   6.183   1.190  3.0311 -2.4185  1.2666
19761TIP3   OH280697   3.738   1.775  13.404  0.7009 -0.2203  0.4947
19761TIP3    H180698   3.782   1.792  13.488 -0.0317  3.8046  0.2042
19761TIP3    H280699   3.645   1.777  13.426  0.5422 -1.0609 -0.1074
19762TIP3   OH280700   2.004   6.722   5.676 -0.5617  0.4084  0.0070
19762TIP3    H180701   1.917   6.722   5.636 -0.5083  2.1125 -0.1594
19762TIP3    H280702   1.988   6.734   5.770 -0.5242  0.0875  0.0562
19763TIP3   OH280703   2.908   1.654  12.097 -0.0187  0.1102  0.8288
19763TIP3    H180704   2.945   1.679  12.013 -2.2830  0.2927 -0.1274
19763TIP3    H280705   2.981   1.613  12.144  1.2185 -0.1068 -1.2550
19764TIP3   OH280706   6.172   1.636  11.972  0.2346  0.2346 -0.3114
19764TIP3    H180707   6.243   1.651  11.910  1.1870 -1.9210  0.1955
19764TIP3    H280708   6.097   1.614  11.918  0.8731 -0.9164 -0.7496
19765TIP3   OH280709   5.509   3.289   2.122  0.3410  0.3875  0.4421
19765TIP3    H180710   5.602   3.314   2.121  0.1527  1.0876  0.0993
19765TIP3    H280711   5.477   3.310   2.034 -0.3239  0.8485  0.7902
19766TIP3   OH280712   2.623   5.115  15.926  0.0228  0.2986  0.0842
19766TIP3    H180713   2.698   5.101  15.983 -1.2959 -1.3350  1.4649
19766TIP3    H280714   2.626   5.208  15.905  1.7968  0.4673  1.0200
19767TIP3   OH280715   5.561   0.808  14.264 -0.3037  0.0530 -0.1282
19767TIP3    H180716   5.643   0.838  14.224 -0.6381  0.9481 -0.1539
19767TIP3    H280717   5.569   0.713  14.265  0.3203  0.0844 -1.0267
19768TIP3   OH280718   4.849   2.717   5.622 -0.1685 -0.1605  0.1575
19768TIP3    H180719   4.808   2.764   5.550  2.6411  0.2376 -1.2668
19768TIP3    H280720   4.849   2.626   5.594 -1.1718 -0.3232  0.6947
19769TIP3   OH280721   0.372   5.299  17.179 -0.1220 -0.0298 -0.3486
19769TIP3    H180722   0.289   5.347  17.183  0.1898  0.6560 -1.7629
19769TIP3    H280723   0.370   5.241  17.255 -0.7713  1.8039  1.0504
19770TIP3   OH280724   6.023   3.954  12.339 -0.0662  0.4539 -0.2372
19770TIP3    H180725   5.967   3.878  12.356 -0.4878  0.6577 -0.7108
19770TIP3    H280726   6.071   3.967  12.420 -0.3331 -0.0423  0.0015
19771TIP3   OH280727   6.229   4.374  14.563 -0.4260  0.0949  0.3474
19771TIP3    H180728   6.184   4.454  14.537 -0.9050  0.0799  1.1095
19771TIP3    H280729   6.159   4.313  14.584 -0.0679 -0.7375 -0.8613
19772TIP3   OH280730   2.695   5.854   5.980  0.3771  0.3914  0.2228
19772TIP3    H180731   2.630   5.897   5.925 -1.6616  1.1264  3.0829
19772TIP3    H280732   2.762   5.921   5.995  0.0401  0.7645  0.0779
19773TIP3   OH280733   6.117   5.595   4.343 -0.1849  0.1492 -0.1615
19773TIP3    H180734   6.068   5.670   4.309  2.5002  0.8640 -2.7049
19773TIP3    H280735   6.197   5.633   4.380  0.1077 -1.2692  0.7066
19774TIP3   OH280736   6.229   0.079   1.681  0.2063 -0.3368 -0.0147
19774TIP3    H180737   6.305   0.114   1.634 -0.1812  0.4091 -0.0858
19774TIP3    H280738   6.266   0.043   1.762  0.3966  1.9438  0.9600
19775TIP3   OH280739   2.238   0.322  11.532 -0.0666 -0.4238  0.2172
19775TIP3    H180740   2.218   0.232  11.558 -3.0630  0.5639  1.5843
19775TIP3    H280741   2.325   0.339  11.567 -0.2517 -2.1648  1.5748
19776TIP3   OH280742   1.859   4.718  13.429  0.0774  0.3910 -0.6976
19776TIP3    H180743   1.907   4.693  13.508  0.9892  2.6565 -0.4973
19776TIP3    H280744   1.906   4.674  13.358  0.7186  0.2738 -0.2126
19777TIP3   OH280745   5.627   5.210   0.754 -0.5007  0.1448  0.2363
19777TIP3    H180746   5.696   5.156   0.793  0.7905  1.0683 -0.7263
19777TIP3    H280747   5.639   5.200   0.660 -2.0111 -0.0747  0.0622
19778TIP3   OH280748   3.250   4.927   4.578 -0.4755 -0.7331  0.5953
19778TIP3    H180749   3.298   4.911   4.497 -2.4962  1.2452 -1.0567
19778TIP3    H280750   3.175   4.866   4.573 -1.2075  0.1730  0.4178
19779TIP3   OH280751   5.901   5.446  10.840 -0.2421  0.9419 -0.0042
19779TIP3    H180752   5.918   5.472  10.931 -0.3701 -0.2029  0.3586
19779TIP3    H280753   5.944   5.513  10.787 -0.4588  1.8073  0.9000
19780TIP3   OH280754   5.514   6.006  15.744 -0.2877 -0.4670  0.1364
19780TIP3    H180755   5.585   6.066  15.720  0.3776 -0.7025  1.4760
19780TIP3    H280756   5.520   5.936  15.679 -0.2925  0.2966 -0.6991
19781TIP3   OH280757   1.356   1.825  11.806 -0.0465 -0.3760 -0.1556
19781TIP3    H180758   1.422   1.889  11.835 -0.7194 -0.1852  0.9570
19781TIP3    H280759   1.310   1.800  11.886 -0.3476 -1.6286 -0.7193
19782TIP3   OH280760   4.271   3.104  15.247  0.1850  0.0116 -0.0336
19782TIP3    H180761   4.302   3.060  15.326 -0.8823  0.2803  0.5526
19782TIP3    H280762   4.323   3.066  15.176  0.1152 -1.3225  0.6153
19783TIP3   OH280763   6.696   2.200  11.179  0.1309  0.2753  0.0934
19783TIP3    H180764   6.634   2.274  11.179 -0.4634 -0.2166 -1.4571
19783TIP3    H280765   6.748   2.212  11.100  0.4134 -0.6571  0.1333
19784TIP3   OH280766   3.008   0.625   5.436  0.3484  0.0349  0.0167
19784TIP3    H180767   3.045   0.538   5.451 -1.1944 -0.9529 -1.7850
19784TIP3    H280768   3.058   0.660   5.362  0.6753  0.5114  0.4595
19785TIP3   OH280769   4.531   5.287  15.643 -0.1152  0.8252 -0.0598
19785TIP3    H180770   4.438   5.300  15.623  0.5940  1.4443 -3.2583
19785TIP3    H280771   4.555   5.207  15.597  0.6552 -0.1124  1.8888
19786TIP3   OH280772   3.432   5.679  12.686 -0.4282 -0.0183 -0.1460
19786TIP3    H180773   3.492   5.630  12.630  0.0145  1.0831 -0.6378
19786TIP3    H280774   3.477   5.685  12.770 -0.4741 -0.4191 -0.0885
19787TIP3   OH280775   3.939   5.111   5.259  0.1873  0.1200 -0.0651
19787TIP3    H180776   3.987   5.176   5.308  0.6650 -0.9654  0.9332
19787TIP3    H280777   4.005   5.049   5.228  0.2555  2.0775 -4.2538
19788TIP3   OH280778   4.654   3.655   4.787  0.4380  0.3639  0.3906
19788TIP3    H180779   4.591   3.602   4.835 -1.2499  1.4511 -0.5740
19788TIP3    H280780   4.602   3.724   4.747  2.0945  0.6331 -1.3706
19789TIP3   OH280781   4.305   2.346  16.748 -0.0379 -0.3734  0.1089
19789TIP3    H180782   4.395   2.329  16.721  0.3612 -1.3659  2.0233
19789TIP3    H280783   4.292   2.439  16.731  1.4887 -0.1289  0.2179
19790TIP3   OH280784   5.770   2.722   2.424 -0.0934  0.1751 -0.3542
19790TIP3    H180785   5.810   2.751   2.342  0.6940 -0.0936 -0.0717
19790TIP3    H280786   5.817   2.642   2.446 -1.1110 -0.4056 -0.2528
19791TIP3   OH280787   0.516   1.015   0.434 -0.1908 -0.1022  0.0312
19791TIP3    H180788   0.604   0.976   0.437 -0.5729 -1.1602 -1.8111
19791TIP3    H280789   0.459   0.948   0.470 -0.4877 -0.1812 -0.5757
19792TIP3   OH280790   0.935   6.624  16.404  0.5373  0.4488 -0.4604
19792TIP3    H180791   0.990   6.549  16.381  0.0203  0.5690 -2.1221
19792TIP3    H280792   0.849   6.586  16.423  0.7797  0.4237  0.5994
19793TIP3   OH280793   5.124   0.768  14.034  0.0356  1.3669 -0.7547
19793TIP3    H180794   5.180   0.718  14.094 -0.5710  0.9414 -0.5378
19793TIP3    H280795   5.050   0.795  14.088  0.7327  3.1777 -0.6621
19794TIP3   OH280796   4.884   3.375  15.265 -0.3554  0.4426  0.2577
19794TIP3    H180797   4.974   3.376  15.297 -0.6060  0.5003  0.9825
19794TIP3    H280798   4.877   3.454  15.212  0.8132 -0.9868 -2.0883
19795TIP3   OH280799   6.761   0.719  16.845  0.0148 -0.3355  0.4090
19795TIP3    H180800   6.697   0.765  16.900 -1.1957 -2.3038  0.7034
19795TIP3    H280801   6.844   0.726  16.892  0.3157  3.2517 -0.5275
19796TIP3   OH280802   1.446   4.797  11.005 -0.9967  0.8128  0.4772
19796TIP3    H180803   1.446   4.892  11.014 -0.8183  0.6614  2.2996
19796TIP3    H280804   1.359   4.776  10.971 -0.9650  1.6243 -0.1420
19797TIP3   OH280805   3.288   1.076   1.425 -0.7284  0.1868 -0.2309
19797TIP3    H180806   3.213   1.101   1.479 -1.0883 -0.0286 -0.6274
19797TIP3    H280807   3.254   1.008   1.368  0.3553 -1.5713  1.1662
19798TIP3   OH280808   3.271   2.950  14.771 -0.3120 -0.1628  0.1724
19798TIP3    H180809   3.297   2.980  14.684  0.5052 -0.5699  0.2700
19798TIP3    H280810   3.176   2.962  14.773 -0.0125  2.3749  0.2188
19799TIP3   OH280811   4.334   0.768   5.049  0.7956 -0.6351 -0.2219
19799TIP3    H180812   4.378   0.739   5.129  0.8010 -0.7861 -0.2787
19799TIP3    H280813   4.317   0.861   5.062  1.0584 -0.5951 -0.1659
19800TIP3   OH280814   4.351   3.998  11.063  0.1936 -0.4479 -0.5142
19800TIP3    H180815   4.322   3.931  11.001  3.2190 -0.5158 -1.9261
19800TIP3    H280816   4.314   4.080  11.029  0.7420 -0.6780 -1.6762
19801TIP3   OH280817   4.040   5.540  12.427 -0.0114 -0.0558  0.4029
19801TIP3    H180818   3.960   5.496  12.456  0.3853 -0.1725  1.3528
19801TIP3    H280819   4.083   5.567  12.508  0.6202  0.5346 -0.1169
19802TIP3   OH280820   5.211   4.573   2.599  0.3932  0.0145 -0.3615
19802TIP3    H180821   5.188   4.480   2.595 -0.9391  0.2282  2.0255
19802TIP3    H280822   5.275   4.579   2.670 -0.7884  1.1527  0.6341
19803TIP3   OH280823   2.897   0.094  15.613  0.2270  0.0870 -0.0649
19803TIP3    H180824   2.841   0.140  15.551 -1.8194 -1.2471  0.7375
19803TIP3    H280825   2.921   0.013  15.568  0.1390 -0.1074  0.2361
19804TIP3   OH280826   0.435   4.500  13.207  0.1873  0.2404 -0.1077
19804TIP3    H180827   0.450   4.594  13.199  0.3482  0.3167  1.0301
19804TIP3    H280828   0.456   4.465  13.121 -2.5065  1.5838 -1.3854
19805TIP3   OH280829   6.372   5.306  14.302  0.0719  0.1382 -0.1315
19805TIP3    H180830   6.310   5.378  14.303 -0.1565 -0.0586  0.4065
19805TIP3    H280831   6.317   5.227  14.307  0.4197  0.0119  2.4335
19806TIP3   OH280832   1.624   3.657   5.507  0.4591 -0.4227 -0.2163
19806TIP3    H180833   1.531   3.663   5.486  0.5775  0.4297 -0.5083
19806TIP3    H280834   1.658   3.588   5.449  1.1143  2.9572 -4.0126
19807TIP3   OH280835   1.716   1.644  11.393  0.2202 -0.3468  0.2776
19807TIP3    H180836   1.787   1.579  11.399 -0.2457 -0.8927 -0.1420
19807TIP3    H280837   1.727   1.698  11.472 -0.2233 -1.7941  1.3576
19808TIP3   OH280838   1.756   1.939  17.047  0.0168  0.3387 -0.1420
19808TIP3    H180839   1.763   2.025  17.087  0.8745  0.8435 -1.3439
19808TIP3    H280840   1.833   1.932  16.990  0.2077 -1.4063  0.2930
19809TIP3   OH280841   4.403   3.628   4.527  0.3292 -0.0746  0.2098
19809TIP3    H180842   4.316   3.661   4.505  0.2415 -0.0735  0.5653
19809TIP3    H280843   4.410   3.639   4.622  0.7977  0.1206  0.1565
19810TIP3   OH280844   0.317   0.117   2.526  0.0338  0.4429 -0.2051
19810TIP3    H180845   0.412   0.111   2.520  0.1057  2.0421 -0.7367
19810TIP3    H280846   0.301   0.174   2.602 -0.5057  0.2714 -0.1828
19811TIP3   OH280847   4.290   4.589  16.395  0.1868  0.1190 -0.1024
19811TIP3    H180848   4.383   4.593  16.419  0.6380 -3.1305 -1.0530
19811TIP3    H280849   4.259   4.679  16.405  2.7247  0.7610  3.0360
19812TIP3   OH280850   2.617   6.703  12.684  0.1865 -0.6214 -0.0834
19812TIP3    H180851   2.685   6.650  12.643  0.4018 -1.0308  0.7862
19812TIP3    H280852   2.547   6.641  12.703 -0.1314 -0.3362 -0.3205
19813TIP3   OH280853   6.680   6.036  11.026  0.4267 -0.5023  0.0991
19813TIP3    H180854   6.722   6.086  10.957 -1.1632 -0.6891 -1.0185
19813TIP3    H280855   6.668   5.949  10.988  0.4321 -0.8931  0.9707
19814TIP3   OH280856   1.593   5.848  17.207 -0.0700 -0.3067 -0.1910
19814TIP3    H180857   1.686   5.831  17.217  0.1374  1.4601  1.1093
19814TIP3    H280858   1.552   5.762  17.216  1.3938 -1.0413 -0.4035
19815TIP3   OH280859   0.104   2.759   5.067 -0.2724  0.1245 -0.1543
19815TIP3    H180860   0.012   2.734   5.053 -0.3496  0.0946  0.3722
19815TIP3    H280861   0.146   2.744   4.983 -0.2901 -1.9226  0.1795
19816TIP3   OH280862   6.727   0.383   4.163  0.0443  0.5347 -0.5109
19816TIP3    H180863   6.787   0.405   4.091  1.5309  2.4306  1.2433
19816TIP3    H280864   6.767   0.424   4.240 -2.4498  0.0528  1.0748
19817TIP3   OH280865   6.317   6.614  12.928 -0.5605 -0.1161  0.8031
19817TIP3    H180866   6.361   6.587  13.008 -1.7081  1.2567  1.9121
19817TIP3    H280867   6.293   6.706  12.942 -1.5727 -0.1106 -0.7421
19818TIP3   OH280868   6.119   1.878   0.316 -0.3893  0.4906  0.2564
19818TIP3    H180869   6.041   1.898   0.265 -1.9517  1.0436  2.7519
19818TIP3    H280870   6.126   1.950   0.379  2.4450  0.7096 -0.2359
19819TIP3   OH280871   1.645   1.866   2.318 -0.2565 -0.0982 -0.6012
19819TIP3    H180872   1.610   1.934   2.261  0.7708  0.7876 -0.1882
19819TIP3    H280873   1.598   1.786   2.292 -1.1467  0.6741 -1.3849
19820TIP3   OH280874   4.591   6.191   0.846  0.5994 -0.1357 -0.4360
19820TIP3    H180875   4.602   6.227   0.933  0.8854 -1.3910  0.0630
19820TIP3    H280876   4.515   6.134   0.852  0.4370  0.0040 -1.0827
19821TIP3   OH280877   1.843   3.696  14.419 -1.0351  0.0179 -0.0010
19821TIP3    H180878   1.824   3.619  14.472  0.3601 -0.5066 -0.2210
19821TIP3    H280879   1.769   3.755  14.432 -2.0901 -1.3548  0.1957
19822TIP3   OH280880   3.485   4.244   2.487  0.2861  0.3421  0.4495
19822TIP3    H180881   3.419   4.292   2.437  0.3478  0.0388  0.0673
19822TIP3    H280882   3.550   4.310   2.512  0.8816  0.3030 -0.9289
19823TIP3   OH280883   4.829   5.515  11.060  0.2482 -0.3449 -0.0918
19823TIP3    H180884   4.845   5.469  10.977 -0.2233 -0.1734 -0.2750
19823TIP3    H280885   4.865   5.456  11.127 -2.2312 -1.9595 -0.1364
19824TIP3   OH280886   5.210   4.510  16.632  0.0942  0.2172 -0.2334
19824TIP3    H180887   5.137   4.547  16.681 -0.1698 -1.8481  1.0247
19824TIP3    H280888   5.171   4.441  16.578  0.8555  0.2678 -0.8722
19825TIP3   OH280889   6.051   5.348   3.431 -0.5021 -0.1387  0.0358
19825TIP3    H180890   6.120   5.399   3.473 -1.2038  0.8493 -0.0044
19825TIP3    H280891   5.974   5.362   3.485 -0.8313 -0.7437 -0.2733
19826TIP3   OH280892   1.851   4.114   5.332  0.0995  0.4694 -0.2270
19826TIP3    H180893   1.869   4.160   5.250 -0.2583  0.9052 -0.0685
19826TIP3    H280894   1.756   4.101   5.331  0.1126  0.3587  0.0525
19827TIP3   OH280895   6.004   1.096  14.037  0.1931  0.4177 -0.2556
19827TIP3    H180896   5.981   1.188  14.033 -1.7952 -0.0712 -1.0563
19827TIP3    H280897   6.042   1.084  14.124 -0.1063  1.8612  0.0833
19828TIP3   OH280898   1.893   5.212   5.248 -0.5850 -0.2938  0.0073
19828TIP3    H180899   1.931   5.180   5.166 -0.6075 -2.2707  0.7432
19828TIP3    H280900   1.810   5.253   5.222  0.2645  0.7210 -1.1542
19829TIP3   OH280901   0.833   0.831   0.131  0.6263  0.3736  0.0779
19829TIP3    H180902   0.862   0.852   0.220  1.7656 -1.1435  0.0871
19829TIP3    H280903   0.914   0.828   0.080  0.2259 -1.0842 -0.5043
19830TIP3   OH280904   2.353   0.892   4.777  0.5763  0.3346  0.3673
19830TIP3    H180905   2.377   0.941   4.698 -0.9772  0.1976 -0.1982
19830TIP3    H280906   2.414   0.924   4.844  0.9208  1.5374 -0.5034
19831TIP3   OH280907   4.298   5.290  16.893 -0.0150 -0.4349 -0.2446
19831TIP3    H180908   4.207   5.297  16.922 -0.2195 -0.5300 -0.8467
19831TIP3    H280909   4.305   5.356  16.824  0.3533 -0.4740 -0.2423
19832TIP3   OH280910   1.827   1.488   0.226  0.1824  0.2220  0.2695
19832TIP3    H180911   1.746   1.528   0.259  1.1421  2.9558 -0.6206
19832TIP3    H280912   1.801   1.444   0.145 -0.2831  1.6889 -0.3844
19833TIP3   OH280913   1.315   5.074   3.480  0.1081 -0.0438  0.1632
19833TIP3    H180914   1.409   5.074   3.462  0.1050  0.0166  0.1485
19833TIP3    H280915   1.309   5.058   3.575  0.1297 -0.1341  0.1495
19834TIP3   OH280916   0.532   0.728   4.412  0.1596 -0.5816  0.5214
19834TIP3    H180917   0.488   0.658   4.460 -1.6232 -0.4980 -0.9483
19834TIP3    H280918   0.576   0.683   4.339 -2.4380 -0.0661 -1.4622
19835TIP3   OH280919   5.632   1.656  14.331 -0.4296  0.1263  0.3543
19835TIP3    H180920   5.603   1.578  14.283 -0.8689  0.3096  0.3203
19835TIP3    H280921   5.647   1.625  14.421 -1.7965  0.2602  0.6351
19836TIP3   OH280922   6.505   2.999  15.473  0.2081 -0.0933 -0.2696
19836TIP3    H180923   6.588   3.031  15.507 -0.2856  1.7760 -0.7480
19836TIP3    H280924   6.510   2.904  15.482  1.7448  0.1059  1.1509
19837TIP3   OH280925   1.774   6.484  14.285  0.3476 -0.3118  0.7111
19837TIP3    H180926   1.708   6.481  14.354 -0.0825 -0.4962  0.2914
19837TIP3    H280927   1.765   6.401  14.238  1.2999 -0.6040  1.0436
19838TIP3   OH280928   2.023   0.650   0.533  0.0072  0.1733  0.4606
19838TIP3    H180929   1.942   0.603   0.513  0.0282  0.2368  0.2300
19838TIP3    H280930   2.090   0.583   0.538  0.4202  0.3721 -1.8307
19839TIP3   OH280931   5.098   6.163  12.414 -0.4326  0.3919 -0.2852
19839TIP3    H180932   5.112   6.190  12.323  0.2734  2.0110  0.2918
19839TIP3    H280933   5.183   6.132  12.444 -1.2231 -2.5448 -0.9284
19840TIP3   OH280934   3.362   3.085   2.609 -0.2896 -0.0162  0.4751
19840TIP3    H180935   3.276   3.118   2.583 -0.4183 -0.1998  0.6590
19840TIP3    H280936   3.377   3.122   2.696 -0.4317 -0.4267  0.6795
19841TIP3   OH280937   5.952   3.046  12.358  0.4494 -0.0872 -0.5782
19841TIP3    H180938   5.931   2.991  12.282 -0.4024  1.1928 -1.2846
19841TIP3    H280939   5.929   2.992  12.433 -1.0180 -0.4623 -1.2770
19842TIP3   OH280940   6.624   6.708  11.865  0.3532 -0.2020  0.0605
19842TIP3    H180941   6.654   6.632  11.814  0.7236 -0.3972  0.5549
19842TIP3    H280942   6.551   6.744  11.815 -0.5258 -1.5251  0.3571
19843TIP3   OH280943   2.908   0.905  16.075 -0.0524 -0.2251  0.0303
19843TIP3    H180944   2.958   0.867  16.147  0.7411 -0.6155 -0.7061
19843TIP3    H280945   2.830   0.942  16.116  1.7972  2.2203  1.4859
19844TIP3   OH280946   2.341   1.277  13.613 -0.1812  0.6648  0.4749
19844TIP3    H180947   2.257   1.263  13.657  0.6116  0.7609  2.0192
19844TIP3    H280948   2.407   1.248  13.676  0.9362  0.1287 -0.9149
19845TIP3   OH280949   5.919   4.733   1.440 -0.0883  0.0092  0.7749
19845TIP3    H180950   5.837   4.746   1.488 -0.8114  0.8040 -0.6405
19845TIP3    H280951   5.910   4.646   1.401  0.0579 -0.2017  1.1999
19846TIP3   OH280952   5.168   0.153   5.776 -0.2500  0.5058 -0.4086
19846TIP3    H180953   5.138   0.069   5.741 -1.2729  0.4702  0.5189
19846TIP3    H280954   5.097   0.214   5.756  1.2260  1.5431 -2.5809
19847TIP3   OH280955   4.558   4.285   5.327 -0.5127 -0.1159  0.4470
19847TIP3    H180956   4.558   4.194   5.297 -0.0864 -0.0906  0.3764
19847TIP3    H280957   4.547   4.336   5.247 -1.4372 -0.1313  0.5596
19848TIP3   OH280958   2.132   4.841  15.481 -0.0772 -0.7070  0.0302
19848TIP3    H180959   2.095   4.785  15.549 -0.7259 -0.2927  0.0195
19848TIP3    H280960   2.192   4.784  15.433 -1.4400 -1.6561 -0.5772
19849TIP3   OH280961   0.925   0.221   5.515  0.0846 -1.0538 -0.2061
19849TIP3    H180962   0.958   0.211   5.604 -0.0606  0.2009  0.0027
19849TIP3    H280963   0.832   0.241   5.526  0.5185  1.3247 -0.5096
19850TIP3   OH280964   5.495   5.610   0.422  0.7446 -0.3993  0.3098
19850TIP3    H180965   5.485   5.518   0.396  1.6949 -0.1044 -1.1341
19850TIP3    H280966   5.489   5.659   0.340 -0.6194  0.9125  1.1618
19851TIP3   OH280967   6.469   1.014   3.639 -0.7839  0.3189 -0.5912
19851TIP3    H180968   6.434   0.977   3.721 -0.7074 -0.0069 -0.7029
19851TIP3    H280969   6.555   1.046   3.662 -0.2188 -0.9722 -0.8385
19852TIP3   OH280970   1.125   3.283  17.189 -0.1431 -0.2563 -0.0549
19852TIP3    H180971   1.171   3.242  17.116 -0.6099 -0.8046 -0.0481
19852TIP3    H280972   1.052   3.330  17.149 -0.2512 -0.3498  0.0271
19853TIP3   OH280973   5.108   5.531  12.073 -0.0296  0.5017  0.3374
19853TIP3    H180974   5.028   5.559  12.028 -0.2295 -0.9858 -0.2784
19853TIP3    H280975   5.139   5.456  12.022  1.9547  1.2555  0.3765
19854TIP3   OH280976   3.638   3.333  14.663  0.0582  0.4633  0.6091
19854TIP3    H180977   3.600   3.346  14.576 -0.1073 -1.1714  0.4195
19854TIP3    H280978   3.609   3.409  14.714 -2.3968 -0.1130  0.1128
19855TIP3   OH280979   3.937   3.149   5.539  0.1866  0.6440  0.4369
19855TIP3    H180980   4.021   3.120   5.576 -0.8112 -0.9927  1.4568
19855TIP3    H280981   3.918   3.230   5.585  0.7015  0.4711  0.9721
19856TIP3   OH280982   1.816   2.386  11.502 -0.4620  0.3806 -0.1161
19856TIP3    H180983   1.893   2.331  11.510 -0.1473  0.7888 -0.3364
19856TIP3    H280984   1.797   2.414  11.592  0.0297  0.8040 -0.1432
19857TIP3   OH280985   0.548   3.431  12.318 -0.6344 -0.1066 -0.4275
19857TIP3    H180986   0.638   3.462  12.307 -0.4583 -0.8110 -0.9559
19857TIP3    H280987   0.551   3.373  12.394 -0.9225  0.9709  0.4264
19858TIP3   OH280988   2.550   3.424   1.320  0.2037 -0.2018  0.0338
19858TIP3    H180989   2.574   3.375   1.399 -2.5404 -2.6974 -0.5731
19858TIP3    H280990   2.497   3.497   1.352 -0.6992 -1.0699  0.5527
19859TIP3   OH280991   3.585   1.649   0.276 -0.1082 -0.1330 -0.6012
19859TIP3    H180992   3.555   1.717   0.215 -1.8851 -2.3086 -2.2145
19859TIP3    H280993   3.531   1.662   0.354  0.5023  1.1179 -0.3592
19860TIP3   OH280994   1.822   6.261   4.289  0.4313 -0.4349  0.1901
19860TIP3    H180995   1.846   6.191   4.228  1.3792 -0.0152  0.0726
19860TIP3    H280996   1.757   6.313   4.242  3.0070  1.3747 -1.4931
19861TIP3   OH280997   5.973   0.095   0.368 -0.0601  0.1641  0.6318
19861TIP3    H180998   5.975   0.191   0.377 -1.0501  0.0993  1.6002
19861TIP3    H280999   5.980   0.080   0.274 -0.4708  1.2127  0.4247
19862TIP3   OH281000   5.199   2.174  13.843 -0.3795 -0.1149 -0.0421
19862TIP3    H181001   5.201   2.177  13.938 -0.6939  2.3249 -0.0799
19862TIP3    H281002   5.277   2.123  13.819  2.9549  3.9692  1.4259
19863TIP3   OH281003   0.692   4.127   1.964  0.2901  0.2916  0.3317
19863TIP3    H181004   0.597   4.118   1.965  0.1421  1.7325  0.5560
19863TIP3    H281005   0.713   4.167   2.048  1.2901 -1.7396  1.0695
19864TIP3   OH281006   2.199   0.745  13.893  0.0991  0.3329  0.2659
19864TIP3    H181007   2.152   0.752  13.810  1.6143  2.8626 -0.4375
19864TIP3    H281008   2.250   0.664  13.884 -0.6484 -0.0307 -0.8105
19865TIP3   OH281009   6.783   1.692  16.520  0.6639  0.2148  0.2014
19865TIP3    H181010   6.813   1.700  16.429  3.3083 -2.2621  0.7730
19865TIP3    H281011   6.804   1.776  16.559  2.0562  0.3461 -0.7873
19866TIP3   OH281012   3.524   1.558   4.506  0.2112  0.0475  0.0370
19866TIP3    H181013   3.539   1.468   4.534  0.7912  0.2531  0.3870
19866TIP3    H281014   3.434   1.557   4.472  0.3100 -0.7249 -0.2316
19867TIP3   OH281015   2.596   6.425  10.753 -0.0764 -0.5426  0.1300
19867TIP3    H181016   2.526   6.490  10.747  1.5727  1.5578  2.5002
19867TIP3    H281017   2.564   6.359  10.814 -0.8253 -0.7196 -0.4516
19868TIP3   OH281018   1.785   0.058  16.067 -0.0682 -0.0979 -1.0991
19868TIP3    H181019   1.743   0.130  16.020  0.4496  0.1138 -1.2430
19868TIP3    H281020   1.728  -0.017  16.053 -3.0819  1.2973  2.8381
19869TIP3   OH281021   6.390   4.655   3.828 -0.4537 -0.1085 -0.7314
19869TIP3    H181022   6.376   4.606   3.910  2.8781 -1.5831 -0.9872
19869TIP3    H281023   6.307   4.647   3.782 -1.6294 -1.2620  1.4737
19870TIP3   OH281024   1.793   5.767   3.468 -0.0981 -0.1380 -0.5694
19870TIP3    H181025   1.820   5.682   3.501 -0.9276  0.7197  2.4994
19870TIP3    H281026   1.854   5.829   3.509 -1.6910  1.0473  0.0855
19871TIP3   OH281027   5.756   4.180   4.564  0.2726  0.3460 -0.4002
19871TIP3    H181028   5.664   4.203   4.573  0.5802  1.6297 -0.4726
19871TIP3    H281029   5.783   4.155   4.652 -0.1900 -0.2156 -0.4138
19872TIP3   OH281030   1.515   0.552   3.525  0.4039  0.1809  0.1157
19872TIP3    H181031   1.506   0.642   3.555 -0.6391 -0.1917  0.9588
19872TIP3    H281032   1.436   0.536   3.473 -0.5321 -0.9381  1.8145
19873TIP3   OH281033   4.915   5.078   1.883  0.2286  0.4187 -0.7588
19873TIP3    H181034   5.000   5.120   1.866  0.2098  0.5774 -0.4629
19873TIP3    H281035   4.914   5.065   1.978 -0.1179  0.4929 -0.7550
19874TIP3   OH281036   0.939   6.149  11.202 -0.1152 -0.1213  0.2885
19874TIP3    H181037   0.846   6.127  11.203  0.1695 -1.4929 -1.2109
19874TIP3    H281038   0.971   6.113  11.119  1.4239  1.7081  0.0629
19875TIP3   OH281039   5.464   1.221   3.280  0.6908 -0.2988  0.3147
19875TIP3    H181040   5.508   1.187   3.202 -0.7647 -1.8421  0.1410
19875TIP3    H281041   5.508   1.179   3.354  2.1100  1.2109  0.3663
19876TIP3   OH281042   0.451   1.616   5.698  0.1087 -0.2533 -0.1849
19876TIP3    H181043   0.376   1.559   5.681  0.4003 -0.1972 -1.7490
19876TIP3    H281044   0.412   1.702   5.716 -0.2479 -0.5031  0.2409
19877TIP3   OH281045   5.373   2.219  15.744  0.2176  0.2703 -0.6345
19877TIP3    H181046   5.341   2.309  15.741 -1.2151 -0.2360 -0.8939
19877TIP3    H281047   5.307   2.172  15.794  0.7282 -0.7362 -0.9049
19878TIP3   OH281048   1.417   0.497  11.472  0.0798  0.1855  0.1521
19878TIP3    H181049   1.400   0.436  11.401 -2.9804  1.4184 -0.2474
19878TIP3    H281050   1.436   0.580  11.429 -0.9080  0.7202  0.7124
19879TIP3   OH281051   5.449   5.781   5.435  0.3224 -0.5860 -0.1520
19879TIP3    H181052   5.474   5.831   5.512  2.4612 -2.6749  0.5797
19879TIP3    H281053   5.364   5.743   5.458  0.3826 -0.2051  0.7051
19880TIP3   OH281054   0.619   1.869   0.623 -0.2472 -0.2103  0.1719
19880TIP3    H181055   0.625   1.940   0.558 -0.3699  0.8218  1.2757
19880TIP3    H281056   0.559   1.902   0.689 -0.5372 -1.4830  0.5572
19881TIP3   OH281057   2.335   1.689  13.593 -0.1660  0.3855  0.2168
19881TIP3    H181058   2.386   1.741  13.531 -0.6462  2.2928  1.3870
19881TIP3    H281059   2.372   1.601  13.585  1.5409  1.1563 -0.8765
19882TIP3   OH281060   0.824   0.743  13.166 -0.0995 -0.2916  0.2394
19882TIP3    H181061   0.867   0.823  13.136 -1.7680 -0.0398 -1.6088
19882TIP3    H281062   0.774   0.771  13.243  0.1462  0.2245  0.2156
19883TIP3   OH281063   5.797   1.366   1.382  0.3828  0.1312  0.3892
19883TIP3    H181064   5.722   1.314   1.410  1.8696 -2.1675  0.2361
19883TIP3    H281065   5.760   1.437   1.330 -1.8403  0.3301  2.1989
19884TIP3   OH281066   4.670   1.181   3.914  0.4188  0.4955  0.2341
19884TIP3    H181067   4.675   1.138   3.999 -0.8216 -0.3572 -0.1112
19884TIP3    H281068   4.589   1.233   3.917 -1.0624 -1.6206 -1.3424
19885TIP3   OH281069   0.218   5.068  14.280 -0.1670  0.3541  0.7740
19885TIP3    H181070   0.142   5.125  14.294 -1.9846 -1.6275 -0.7973
19885TIP3    H281071   0.242   5.082  14.189  1.0834  0.6321  1.1424
19886TIP3   OH281072   4.849   1.716  15.792 -0.3286 -0.1131  0.4007
19886TIP3    H181073   4.939   1.689  15.810 -0.3879  0.4286  1.5627
19886TIP3    H281074   4.820   1.658  15.721  0.5039 -1.1535  0.8968
19887TIP3   OH281075   2.189   4.082   6.385  0.2108  0.1171  0.2441
19887TIP3    H181076   2.127   4.028   6.337  0.8823 -0.8588  0.4705
19887TIP3    H281077   2.134   4.136   6.442 -0.6822  2.1550 -2.4221
19888TIP3   OH281078   0.533   2.992  10.991  0.5216  0.0277 -0.4366
19888TIP3    H181079   0.515   2.995  10.897  0.6918  0.6631 -0.4528
19888TIP3    H281080   0.578   2.909  11.004 -0.1242 -0.3843 -0.8063
19889TIP3   OH281081   3.822   1.467  13.313 -0.0742 -0.4463  0.0282
19889TIP3    H181082   3.914   1.491  13.300 -0.3980  0.6115 -0.3723
19889TIP3    H281083   3.787   1.534  13.371 -0.5434 -0.9602  0.3433
19890TIP3   OH281084   3.710   5.669  15.121 -0.4623 -0.9341  0.5274
19890TIP3    H181085   3.732   5.680  15.213 -0.5525 -0.9615  0.5528
19890TIP3    H281086   3.779   5.612  15.087 -0.6042 -1.1779  0.6496
19891TIP3   OH281087   5.767   0.082  15.262 -0.7626  0.5448  0.0510
19891TIP3    H181088   5.796  -0.008  15.279 -1.5821  0.4929  1.2390
19891TIP3    H281089   5.825   0.136  15.315  0.2974  0.7907 -1.3384
19892TIP3   OH281090   2.416   5.904  14.967 -0.0581  0.0663 -0.0139
19892TIP3    H181091   2.477   5.882  14.897 -0.7126  0.4736 -0.7286
19892TIP3    H281092   2.431   5.838  15.034  1.0844  0.1078 -0.2318
19893TIP3   OH281093   3.106   3.869   6.347 -0.1647  0.0678 -0.1745
19893TIP3    H181094   3.100   3.940   6.284  0.7799  0.8627  0.6103
19893TIP3    H281095   3.054   3.899   6.422  1.2545  0.5138  0.6662
19894TIP3   OH281096   6.231   3.350  12.087 -0.4117 -0.2990  0.3491
19894TIP3    H181097   6.160   3.326  12.028 -0.0708  2.5600 -1.2815
19894TIP3    H281098   6.310   3.347  12.032  0.3062 -0.3348  1.3591
19895TIP3   OH281099   2.806   3.093   2.121 -0.0045  0.3455  0.2475
19895TIP3    H181100   2.737   3.052   2.069 -0.4854 -0.4797  1.5072
19895TIP3    H281101   2.885   3.085   2.068 -0.4191 -0.7668 -0.2042
19896TIP3   OH281102   2.842   4.049  11.694 -0.2885 -0.3473  0.0031
19896TIP3    H181103   2.864   3.994  11.619 -1.0849 -0.0091 -0.4850
19896TIP3    H281104   2.748   4.062  11.687 -0.3934 -0.4758  1.1825
19897TIP3   OH281105   2.845   5.149   2.344 -0.1846  0.1988  0.8173
19897TIP3    H181106   2.767   5.115   2.300 -0.4537  1.1555  0.5506
19897TIP3    H281107   2.820   5.156   2.436  0.6418 -2.5969  1.3174
19898TIP3   OH281108   4.006   1.852   2.820 -0.1049  0.5574  0.1927
19898TIP3    H181109   4.053   1.769   2.813 -1.1723 -0.0988  0.6792
19898TIP3    H281110   4.061   1.906   2.876  0.4668  0.0880  0.0933
19899TIP3   OH281111   1.358   3.238   0.638  0.1004 -0.4719 -0.1328
19899TIP3    H181112   1.381   3.147   0.658  0.1822 -0.3972  0.1135
19899TIP3    H281113   1.268   3.248   0.669  0.6174 -0.0245  1.2780
19900TIP3   OH281114   0.400   6.406   0.282 -0.0654  0.4269 -0.3347
19900TIP3    H181115   0.370   6.402   0.191 -2.0252 -0.8018  0.3481
19900TIP3    H281116   0.340   6.467   0.324 -0.3565 -0.4882  0.5865
19901TIP3   OH281117   4.315   2.800   2.011  0.4130  0.2344 -0.7101
19901TIP3    H181118   4.363   2.863   1.957 -0.7373  0.7432 -1.1530
19901TIP3    H281119   4.382   2.764   2.070  1.3410  0.9237 -1.3111
19902TIP3   OH281120   6.104   3.647   2.544  0.1868  0.1015  0.0001
19902TIP3    H181121   6.057   3.678   2.466  1.1482 -0.9732 -1.0191
19902TIP3    H281122   6.067   3.699   2.616 -0.9099  0.9118 -1.1208
19903TIP3   OH281123   6.538   1.022   4.864 -0.0280  0.3801 -0.1994
19903TIP3    H181124   6.572   1.071   4.939  0.4088  1.1869 -0.9162
19903TIP3    H281125   6.613   1.011   4.806  0.1772 -2.2580  0.5193
19904TIP3   OH281126   5.085   0.168   1.343 -0.1171  0.2935 -0.4777
19904TIP3    H181127   5.092   0.091   1.287  3.3670  1.8907 -2.4080
19904TIP3    H281128   5.031   0.229   1.293 -1.6380 -0.3103  0.3992
19905TIP3   OH281129   0.550   3.516   0.648  0.3206 -0.6610 -0.3715
19905TIP3    H181130   0.592   3.573   0.712  0.6800  0.0093 -1.1853
19905TIP3    H281131   0.616   3.503   0.580 -0.7472  0.3879 -1.6438
19906TIP3   OH281132   5.974   1.558   4.031 -0.0004 -0.2559  0.0003
19906TIP3    H181133   5.903   1.563   4.095  1.2917 -2.5180  1.6643
19906TIP3    H281134   6.034   1.627   4.056 -1.0080  0.8939 -0.6959
19907TIP3   OH281135   4.036   0.487  15.920 -0.3907 -0.0498 -0.1552
19907TIP3    H181136   4.116   0.540  15.928 -0.8917  0.7111 -0.0662
19907TIP3    H281137   4.033   0.462  15.828  1.5635 -2.6850  0.4482
19908TIP3   OH281138   5.258   5.650  11.443 -0.2582 -0.0566  0.5843
19908TIP3    H181139   5.270   5.745  11.453 -1.6822  0.3967 -1.5476
19908TIP3    H281140   5.304   5.629  11.361  1.6683 -1.5683  2.0137
19909TIP3   OH281141   0.567   3.053  16.841  0.7426 -0.1112 -0.6949
19909TIP3    H181142   0.530   3.093  16.762 -0.5612  2.3902  1.0984
19909TIP3    H281143   0.640   3.001  16.809  0.8399  1.5965 -3.4724
19910TIP3   OH281144   3.583   1.248  11.243  0.1060 -0.5410  0.2895
19910TIP3    H181145   3.597   1.316  11.309 -1.1317  0.7286 -0.7195
19910TIP3    H281146   3.561   1.296  11.163  0.2742 -2.0966 -0.7166
19911TIP3   OH281147   0.619   0.811  13.996  0.3397  0.5375 -0.3073
19911TIP3    H181148   0.644   0.862  14.073 -1.0316  0.4177  0.2279
19911TIP3    H281149   0.524   0.822  13.989  0.3097 -0.2637 -1.3987
19912TIP3   OH281150   4.037   0.814   3.569  0.7736  0.0865  0.2200
19912TIP3    H181151   4.131   0.805   3.585  0.7748  0.4857  0.4378
19912TIP3    H281152   3.998   0.813   3.656  0.6632  0.9066  0.1789
19913TIP3   OH281153   0.299   4.919  16.018 -0.7922  0.0185  0.7626
19913TIP3    H181154   0.358   4.867  15.964 -0.9971  0.9621 -0.3891
19913TIP3    H281155   0.342   5.004  16.026 -1.0892  0.1023  1.5116
19914TIP3   OH281156   6.011   5.473   1.461  0.6113  0.1007 -0.0613
19914TIP3    H181157   6.044   5.423   1.386  0.7540 -0.0157  0.0766
19914TIP3    H281158   6.056   5.434   1.536  2.2004  1.7182 -0.1440
19915TIP3   OH281159   1.118   5.710  15.371 -0.6051 -0.2014  0.1129
19915TIP3    H181160   1.174   5.757  15.433 -0.5295 -1.6846  1.1820
19915TIP3    H281161   1.123   5.762  15.291 -0.0656  1.3103  1.0857
19916TIP3   OH281162   4.007   1.535   1.344  0.1415 -0.4890  0.4563
19916TIP3    H181163   3.994   1.630   1.340 -0.3406 -0.4905  1.8409
19916TIP3    H281164   3.921   1.499   1.362  0.4170 -1.1672  0.4471
19917TIP3   OH281165   0.533   5.301   4.128  0.3188  0.2411  0.1889
19917TIP3    H181166   0.495   5.248   4.198 -0.4954  0.8650  0.2325
19917TIP3    H281167   0.621   5.323   4.159  0.1932 -0.0154  0.7294
19918TIP3   OH281168   2.756   0.293   4.479 -0.0606 -0.1336 -0.1745
19918TIP3    H181169   2.727   0.307   4.569 -0.2035 -1.3755 -0.0144
19918TIP3    H281170   2.840   0.248   4.487 -0.3317 -0.7420 -0.6566
19919TIP3   OH281171   0.741   0.879  10.385 -0.1961 -0.3295  0.2062
19919TIP3    H181172   0.763   0.795  10.425  1.3638 -0.6331 -1.2108
19919TIP3    H281173   0.820   0.933  10.397 -0.8350  0.6027  0.2706
19920TIP3   OH281174   6.346   2.370   4.581  0.0331 -0.0968 -0.1894
19920TIP3    H181175   6.319   2.456   4.614  0.0334 -0.7460  1.5442
19920TIP3    H281176   6.300   2.307   4.636  1.1359 -1.2166 -0.5204
19921TIP3   OH281177   0.182   1.067   3.373 -0.2028  0.2855  0.0998
19921TIP3    H181178   0.226   1.141   3.331 -0.1983  0.1808 -0.0802
19921TIP3    H281179   0.234   0.991   3.348 -0.8163  0.0880 -0.5790
19922TIP3   OH281180   5.818   5.648   2.081  0.6896  0.2298 -0.2435
19922TIP3    H181181   5.810   5.567   2.032 -0.1219  1.1525 -1.6899
19922TIP3    H281182   5.805   5.623   2.172  0.5612 -1.2698 -0.6697
19923TIP3   OH281183   3.904   2.249   5.485 -0.1305  0.6459  0.8001
19923TIP3    H181184   3.853   2.176   5.450 -0.0946  0.2954  1.4555
19923TIP3    H281185   3.893   2.241   5.580  0.8306  0.8038  0.9240
19924TIP3   OH281186   6.361   1.976  13.474 -0.9155 -0.2586  0.0872
19924TIP3    H181187   6.313   2.044  13.427 -0.2488  1.3055  1.6403
19924TIP3    H281188   6.361   2.005  13.565  1.5236 -1.1057  0.3735
19925TIP3   OH281189   6.105   3.659  16.579 -0.1384  0.0584 -0.0036
19925TIP3    H181190   6.162   3.612  16.517 -0.0287 -0.3097  0.3725
19925TIP3    H281191   6.027   3.604  16.586  0.0049 -0.0815  0.4648
19926TIP3   OH281192   0.953   4.337   2.598 -0.0558  0.9576 -0.3491
19926TIP3    H181193   0.898   4.361   2.672 -0.9506 -0.3582 -0.5612
19926TIP3    H281194   1.043   4.348   2.630 -0.4211 -0.2676  1.1787
19927TIP3   OH281195   5.236   6.349   1.846 -0.0629  0.4879 -0.0425
19927TIP3    H181196   5.267   6.321   1.759  1.1497 -3.0643  1.4385
19927TIP3    H281197   5.304   6.409   1.877  1.1945 -0.8005 -0.2359
19928TIP3   OH281198   2.803   4.440   2.885  0.2833  0.5001  0.5765
19928TIP3    H181199   2.819   4.527   2.923 -3.1288  1.5293 -0.1790
19928TIP3    H281200   2.831   4.449   2.794  3.2395 -0.2927  1.3726
19929TIP3   OH281201   0.167   3.547   4.098  0.1310 -0.5348  0.9066
19929TIP3    H181202   0.090   3.602   4.088 -0.6348 -1.6267  0.8235
19929TIP3    H281203   0.204   3.574   4.183  1.0694  1.7180 -0.1634
19930TIP3   OH281204   4.909   4.036  17.208 -0.4554  0.3766  0.0086
19930TIP3    H181205   4.943   4.085  17.282  2.0974  0.5244 -1.2020
19930TIP3    H281206   4.963   3.957  17.204 -3.0498 -1.5036  0.5728
19931TIP3   OH281207   4.868   1.909   6.382  0.0672  0.0690  0.0092
19931TIP3    H181208   4.812   1.978   6.417  0.5647  0.1498  0.6564
19931TIP3    H281209   4.886   1.852   6.457  0.6849 -0.0660 -0.2348
19932TIP3   OH281210   5.251   6.762   4.072  0.1210 -0.0093  0.6387
19932TIP3    H181211   5.284   6.673   4.079  0.2983  0.2340  3.0373
19932TIP3    H281212   5.328   6.818   4.082 -0.4009  0.4596  2.1949
19933TIP3   OH281213   5.159   2.875  15.111  0.4939  0.2945  0.0479
19933TIP3    H181214   5.253   2.860  15.111  0.7241  1.6589 -0.5083
19933TIP3    H281215   5.146   2.948  15.173  0.0239  1.3226 -1.2344
19934TIP3   OH281216   4.915   6.126   5.358 -0.1244  0.3499 -0.4239
19934TIP3    H181217   4.856   6.071   5.410  0.7845 -0.3521 -0.1208
19934TIP3    H281218   4.953   6.187   5.420 -0.4830  0.7661 -0.6104
19935TIP3   OH281219   4.876   2.109   3.341 -0.6352  0.1372  0.0356
19935TIP3    H181220   4.831   2.185   3.303 -0.9980  0.1557  0.4994
19935TIP3    H281221   4.958   2.104   3.292 -0.5203  0.9464  0.1305
19936TIP3   OH281222   6.773   6.068  15.114  0.4691 -0.3353  0.6799
19936TIP3    H181223   6.709   6.005  15.082  0.6666  0.3857 -1.1531
19936TIP3    H281224   6.740   6.093  15.201  0.9211 -3.6695  1.8716
19937TIP3   OH281225   0.248   2.925   0.070  0.6440  0.3868 -0.3421
19937TIP3    H181226   0.228   2.878   0.151  0.2850 -0.1134 -0.7212
19937TIP3    H281227   0.246   2.858   0.002 -0.6783  1.0824 -1.0161
19938TIP3   OH281228   5.788   4.554  12.570 -0.1008  0.1297 -0.2843
19938TIP3    H181229   5.724   4.559  12.641  0.6161  1.2746  0.3070
19938TIP3    H281230   5.844   4.480  12.593 -0.5334 -0.1818 -0.2269
19939TIP3   OH281231   6.299   1.216   0.194 -0.0436  0.2986 -0.2063
19939TIP3    H181232   6.208   1.198   0.171 -0.2902  0.2479  0.7732
19939TIP3    H281233   6.294   1.281   0.264  0.6394 -0.4756  0.5786
19940TIP3   OH281234   6.465   6.409  11.800 -0.5802 -0.0106 -0.0073
19940TIP3    H181235   6.403   6.336  11.792  0.2177 -0.6221 -0.6247
19940TIP3    H281236   6.545   6.378  11.760  0.5242  0.3408  1.8503
19941TIP3   OH281237   6.559   1.220   3.465 -0.3135 -0.4274 -0.1085
19941TIP3    H181238   6.650   1.251   3.457 -0.8573  0.5054 -3.4925
19941TIP3    H281239   6.566   1.125   3.460  0.4991 -0.3786 -0.0133
19942TIP3   OH281240   5.631   1.837   5.046  0.1001  0.2936  0.1980
19942TIP3    H181241   5.654   1.856   5.137  0.3251 -1.5981  0.5383
19942TIP3    H281242   5.690   1.767   5.019  1.9325  2.6743 -2.3073
19943TIP3   OH281243   6.715   1.466  13.833  0.4919 -0.0348  0.4094
19943TIP3    H181244   6.809   1.482  13.823  0.4692  0.5218  1.0005
19943TIP3    H281245   6.691   1.415  13.756  1.4895 -1.1350  0.8153
19944TIP3   OH281246   1.047   5.467   5.507  0.3085 -0.0054 -0.0898
19944TIP3    H181247   1.079   5.434   5.424 -0.7845 -0.4624 -0.3318
19944TIP3    H281248   1.027   5.559   5.491  1.8915  0.4104  0.1827
19945TIP3   OH281249   2.927   5.079  15.335  0.2274 -0.2166  0.0712
19945TIP3    H181250   2.939   5.150  15.397  1.5590 -1.3151  1.0918
19945TIP3    H281251   3.004   5.082  15.279 -0.5382  0.2084 -0.9718
19946TIP3   OH281252   1.041   5.563   0.852 -0.1855 -0.2272  0.1597
19946TIP3    H181253   1.090   5.645   0.856 -1.1625  0.3209  1.1408
19946TIP3    H281254   1.109   5.495   0.848  0.7174  0.4695  2.3412
19947TIP3   OH281255   4.799   6.225  10.687  0.2034 -0.2306  0.1322
19947TIP3    H181256   4.736   6.205  10.757 -0.0557 -0.8660 -0.2798
19947TIP3    H281257   4.882   6.187  10.718  0.0378 -0.7044 -0.0048
19948TIP3   OH281258   0.648   0.713   2.379  0.7084 -0.0025 -0.7019
19948TIP3    H181259   0.681   0.774   2.445 -0.9255 -0.7686  0.8559
19948TIP3    H281260   0.614   0.639   2.429 -3.8582  0.9587 -2.1352
19949TIP3   OH281261   0.758   5.746   4.819 -0.5267 -0.0348 -0.1231
19949TIP3    H181262   0.708   5.762   4.739  0.2852 -0.7664 -0.7855
19949TIP3    H281263   0.829   5.811   4.816 -1.9944  1.6768  1.3201
19950TIP3   OH281264   3.092   5.888  13.987 -0.2173 -0.1783  0.2425
19950TIP3    H181265   3.169   5.875  14.042 -1.3329  0.9489  2.1292
19950TIP3    H281266   3.117   5.960  13.928  2.0079 -3.2417 -2.8075
19951TIP3   OH281267   2.611   4.444   6.003  0.4845 -0.1965 -0.1283
19951TIP3    H181268   2.679   4.435   6.070 -0.0378 -2.0279  0.1745
19951TIP3    H281269   2.541   4.493   6.046  0.0132 -1.6529  0.7818
19952TIP3   OH281270   5.781   6.349  14.782  0.1816  0.5006 -0.4261
19952TIP3    H181271   5.819   6.402  14.851  1.0280 -0.1066 -0.4193
19952TIP3    H281272   5.775   6.409  14.707  1.2007  0.6011 -0.4444
19953TIP3   OH281273   1.901   1.334  15.125  0.2061 -0.7031  0.3795
19953TIP3    H181274   1.843   1.272  15.168 -1.6005 -0.0753 -1.0873
19953TIP3    H281275   1.842   1.400  15.087  1.8747  0.0749 -0.9527
19954TIP3   OH281276   4.371   3.048  16.827  0.0958 -0.8156  0.0291
19954TIP3    H181277   4.452   3.015  16.791  0.0754 -2.0146  1.0333
19954TIP3    H281278   4.389   3.060  16.920 -1.0630 -1.7720  0.4012
19955LIG      O81279   5.266   2.018  16.703 -0.1444  0.1734  0.1541
19955LIG      N81280   5.262   1.633  16.380 -0.3346  0.0463 -0.1276
19955LIG     C181281   5.337   2.069  16.473 -0.2303  0.2422 -0.3235
19955LIG     C281282   5.245   1.984  16.561  0.2673  0.3813 -0.3397
19955LIG     C381283   5.322   2.222  16.487 -0.0349  0.2970  0.4034
19955LIG     C481284   5.491   2.038  16.493  0.1369  0.3143 -0.3398
19955LIG     C581285   5.262   1.829  16.546  0.2386 -0.2337 -0.4918
19955LIG     C681286   5.412   2.295  16.380 -0.8118 -0.2089  0.3386
19955LIG     C781287   5.584   2.112  16.391 -0.8113 -0.2347 -0.2492
19955LIG     C881288   5.559   2.261  16.397 -0.3328 -0.1034 -0.1917
19955LIG     C981289   5.263   1.775  16.398  0.4063  0.2963  0.2637
19955LIG    C1081290   5.092   2.028  16.527 -0.4180  0.8083  0.5768
19955LIG    C1181291   5.138   1.571  16.431 -0.1605 -0.7446 -0.3010
19955LIG    C1281292   5.386   1.583  16.445 -0.3441  0.8281  0.5731
19955LIG    C1381293   5.145   1.421  16.403  0.1023  0.9090 -0.0180
19955LIG    C1481294   5.395   1.436  16.424 -0.0933 -0.5230  0.9316
19955LIG    C1581295   5.268   1.354  16.468 -0.0330 -0.0472 -0.9755
19955LIG    C1681296   5.051   2.050  16.389  0.7906  0.0465  0.5496
19955LIG    C1781297   4.998   2.054  16.627  0.0608  0.2861  0.6163
19955LIG    C1881298   4.922   2.095  16.358  0.7554  0.7208 -0.0379
19955LIG    C1981299   4.870   2.093  16.593 -0.0863 -0.4148  0.5064
19955LIG    C2081300   4.826   2.102  16.460  0.0623  0.6181 -0.2319
19955LIG     H181301   5.322   2.038  16.367  1.0791 -1.9712  0.1046
19955LIG     H281302   5.346   2.243  16.594  0.1637  2.5943 -0.0715
19955LIG     H381303   5.219   2.260  16.476  0.2297  1.1284  0.7273
19955LIG     H481304   5.516   1.931  16.477  0.3035  0.5243 -1.5174
19955LIG     H581305   5.515   2.058  16.599 -2.2101  0.8275  0.1339
19955LIG     H681306   5.183   1.772  16.598  0.7341 -1.3281 -0.9217
19955LIG     H781307   5.356   1.803  16.598 -0.4672 -2.6565 -0.3571
19955LIG     H881308   5.406   2.406  16.388 -2.2145 -0.1128 -1.6619
19955LIG     H981309   5.372   2.270  16.279  1.0300  1.2607 -0.7922
19955LIG    H1081310   5.563   2.070  16.290  0.0266 -1.0740 -0.0754
19955LIG    H1181311   5.690   2.083  16.407 -1.0891 -1.0789  0.1166
19955LIG    H1281312   5.584   2.285  16.503  1.4052 -3.5726  0.2243
19955LIG    H1381313   5.625   2.320  16.330 -0.1042 -1.4398 -1.1519
19955LIG    H1481314   5.166   1.809  16.357  0.1710 -0.1578  0.4416
19955LIG    H1581315   5.345   1.813  16.333 -1.3790  0.7066 -1.8099
19955LIG    H1681316   5.045   1.617  16.393  0.2318 -0.9624 -1.5387
19955LIG    H1781317   5.132   1.595  16.540 -3.2202  0.1621 -0.6137
19955LIG    H1881318   5.388   1.596  16.556 -0.1670  0.2545  0.6412
19955LIG    H1981319   5.463   1.638  16.387 -0.3350  2.2509  1.9033
19955LIG    H2081320   5.223   1.954  16.761 -0.7417  0.4833  0.0586
19955LIG    H2181321   5.162   1.406  16.294 -0.9347  3.3521 -0.5514
19955LIG    H2281322   5.050   1.366  16.422 -0.4117  1.7519 -0.1045
19955LIG    H2381323   5.482   1.402  16.484  0.3643 -2.3779 -0.6957
19955LIG    H2481324   5.413   1.428  16.314  2.4869  0.0636  1.2643
19955LIG    H2581325   5.269   1.249  16.432 -0.2275 -1.1129  2.0337
19955LIG    H2681326   5.253   1.368  16.577 -2.8527 -0.8898 -1.2304
19955LIG    H2781327   5.117   2.028  16.307  1.2271  0.9174  0.6649
19955LIG    H2881328   5.021   2.041  16.731 -0.8114 -0.9606  0.6572
19955LIG    H2981329   4.892   2.111  16.256  0.6938  1.2398  0.0624
19955LIG    H3081330   4.793   2.099  16.668 -0.3229  1.4360  0.1345
19955LIG    H3181331   4.722   2.124  16.442 -0.3166 -1.6852 -1.0423
   6.78697   6.78697  17.23950
